   * xtb version 6.7.1 (edcfbbe) compiled by 'albert@albert-system' on 2024-07-22

   ID    Z sym.   atoms
    1    9 F      1, 3, 4
    2    6 C      2, 5-8, 10-18, 20-35, 37-52
    3    7 N      9, 19, 36
    4    1 H      53-80

          program call               : xtb data2507/toluene/CzB-FMPPI/CzB-FMPPI_toluene_S0_finalOpt.xtbopt.xyz --gfn 2 --uhf 2 --gbsa toluene --ohess vtight --parallel 40 --molden --ceasefiles --namespace data2507/toluene/CzB-FMPPI/CzB-FMPPI_toluene_T1_preOpt
      * Solvation model:               GBSA
        Solvent                        toluene
        Solvent mass                       9.2140E+01 g/mol
          :  Hamiltonian                  GFN2-xTB          :
 * total energy  :  -135.8085274 Eh     change       -0.1127540E-07 Eh
 * total energy  :  -135.8139317 Eh     change       -0.5404352E-02 Eh
 * total energy  :  -135.8167936 Eh     change       -0.2861841E-02 Eh
 * total energy  :  -135.8176283 Eh     change       -0.8347334E-03 Eh
 * total energy  :  -135.8185900 Eh     change       -0.9617090E-03 Eh
 * total energy  :  -135.8191516 Eh     change       -0.5616178E-03 Eh
 * total energy  :  -135.8194716 Eh     change       -0.3199787E-03 Eh
 * total energy  :  -135.8196613 Eh     change       -0.1897370E-03 Eh
 * total energy  :  -135.8197967 Eh     change       -0.1353575E-03 Eh
 * total energy  :  -135.8198788 Eh     change       -0.8213611E-04 Eh
 * total energy  :  -135.8201772 Eh     change       -0.4732351E-05 Eh
 * total energy  :  -135.8201809 Eh     change       -0.3732608E-05 Eh
 * total energy  :  -135.8201845 Eh     change       -0.3594526E-05 Eh
 * total energy  :  -135.8201882 Eh     change       -0.3691582E-05 Eh
 * total energy  :  -135.8201911 Eh     change       -0.2881725E-05 Eh
 * total energy  :  -135.8201928 Eh     change       -0.1741997E-05 Eh
 * total energy  :  -135.8201939 Eh     change       -0.1094150E-05 Eh
 * total energy  :  -135.8201949 Eh     change       -0.9986609E-06 Eh
 * total energy  :  -135.8201949 Eh     change       -0.6589545E-08 Eh
   *** GEOMETRY OPTIMIZATION CONVERGED AFTER 44 ITERATIONS ***

 final structure:
================
80
 xtb: 6.7.1 (edcfbbe)
F           -3.48432195826906        6.22191478322237       -0.14448864743468
C           -2.64163736340549        5.40635824532266        0.51477273938474
F           -2.62477621931404        5.84238170495281        1.79077983733863
F           -1.40687470382286        5.69937311137076        0.02768795147177
C           -2.98487352256798        3.96089158214242        0.38939841763245
C           -3.73683509715452        3.50675768665922       -0.69648676015795
C           -4.02461389161792        2.16653523195271       -0.81684723807117
C           -3.55576521252029        1.25440449531922        0.13974053402982
N           -3.81942640000670       -0.10743799954987        0.01270432555858
C           -2.84214133873256       -1.12849441400597        0.02659064400480
C           -1.44829088109562       -0.98111515763343       -0.03406120052932
C           -0.75417832164629        0.20392380052294       -0.40979580340088
C            0.60723229522373        0.24520549976602       -0.43195354229324
C            1.40578857671658       -0.87772774617156       -0.09700253354246
C            2.83959372436467       -0.80638923613617       -0.09501071358138
C            3.64196464573975       -1.95710454519482       -0.25821196409778
C            5.01179380454326       -1.88638074305983       -0.25546741826488
C            5.66132820592889       -0.65683049393981       -0.09014662049057
N            7.05261410249222       -0.58314720743836       -0.08813863256335
C            7.81629279100058        0.32125576854231       -0.80243315799652
C            7.41661918036472        1.29443083398475       -1.70881783547325
C            8.39994094144172        2.05198597027033       -2.31846793608012
C            9.75019466779135        1.84382797512314       -2.04763115167668
C           10.15596174643644        0.85486734710386       -1.16967367306185
C            9.18706196146009        0.08291485628601       -0.54563843982833
C            9.24392106202246       -1.02050238248381        0.37654025148681
C           10.28671611998599       -1.68636462676589        1.00373625413443
C            9.98446371251689       -2.71301612933095        1.88016956306673
C            8.66273681483698       -3.06177818004144        2.14711948857712
C            7.60711525043512       -2.41192458758106        1.53417010492179
C            7.90512411532127       -1.40192320818870        0.62900737351060
C            4.88536770243617        0.49722651031021        0.07368834332102
C            3.51581610558297        0.42244179805064        0.07252396946015
C            0.71098348484168       -2.07689666588648        0.21395789450355
C           -0.64698891837150       -2.13051631753216        0.23986135236476
N           -3.42729130233568       -2.34027153796426       -0.00277010845112
C           -4.73397103902088       -2.13331297875307       -0.09647914764285
C           -5.75743072018369       -3.11699232017993       -0.23633731457678
C           -5.43733729817381       -4.47437083667692       -0.32627352373644
C           -6.42831369105202       -5.41405185604927       -0.50262886237608
C           -7.75044038516173       -4.99538562987747       -0.59976376998765
C           -8.07700548738180       -3.65727562484652       -0.50726671692326
C           -7.09790043887628       -2.67472942492110       -0.31092161343642
C           -7.41195182840441       -1.26222578165208       -0.15341588541800
C           -8.73287879908072       -0.81125189321670       -0.11339304213123
C           -9.05399541166680        0.51368276739016        0.09944524758993
C           -8.04240444639562        1.44790656138571        0.31309468466148
C           -6.73056864213420        1.05382446016824        0.26766893597057
C           -6.37241714991653       -0.28722412951492        0.00449301276661
C           -5.04088224345441       -0.74190982587767       -0.06405497657180
C           -2.79066053328941        1.71848596404072        1.22030052728029
C           -2.51030582726696        3.05897591704605        1.34480135641345
H           -4.08719981398592        4.20804805550383       -1.43789840714969
H           -4.60103221993500        1.80682042372419       -1.65554668836716
H           -1.30826774412556        1.06780182710316       -0.73922162170414
H            1.08778683085650        1.15288988767253       -0.76474078002917
H            3.17258723777703       -2.91145578444372       -0.43705273838164
H            5.60089315133640       -2.77592157828103       -0.42255182569753
H            6.37479353556207        1.44894543308472       -1.94350907151914
H            8.11406354400771        2.81817006670240       -3.02396032328764
H           10.48895812611885        2.45750713699626       -2.54150052137582
H           11.20379475619410        0.68090547413816       -0.97728116000608
H           11.31108818734142       -1.40315350461905        0.81465901099742
H           10.78212796894083       -3.24577651925039        2.37628350239446
H            8.45687842988136       -3.85372442136662        2.85197698161630
H            6.58647834766867       -2.67456134293244        1.76572641190013
H            5.37642555076975        1.44416999326108        0.24276703845877
H            2.94725476925969        1.32169293380010        0.25073626808695
H            1.27223182697434       -2.95969986493826        0.47839513833812
H           -1.16343644717351       -3.04207919933327        0.49598699671525
H           -4.39695194970647       -4.75318217253576       -0.26045714095837
H           -6.18298982176735       -6.46326737852488       -0.57068858994761
H           -8.53455882886204       -5.72344658709143       -0.74935169571886
H           -9.11614019950198       -3.38314917448802       -0.59246180226197
H           -9.54212349629702       -1.51211907625782       -0.23852200362053
H          -10.08871932155343        0.82102717409593        0.12056534949861
H           -8.28937446667152        2.47883440657476        0.51943981881177
H           -5.95655860505509        1.77726292899912        0.46130764576028
H           -2.42880648258187        1.01440546239148        1.95333270886918
H           -1.93443670965592        3.42100296639609        2.18246780674713

          :  Hamiltonian                  GFN2-xTB          :
         :: gradient norm              0.000058034186 Eh/a0 ::
         :: HOMO-LUMO gap              0.533931290579 eV    ::
         :: SCC energy              -138.100019249874 Eh    ::
         :: -> dispersion             -0.113040318874 Eh    ::
         :: -> Gsolv                  -0.053022193908 Eh    ::
         :: repulsion energy           2.279824337689 Eh    ::

    * Orbital Energies and Occupations

         #    Occupation            Energy/Eh            Energy/eV
      -------------------------------------------------------------
         1        2.0000           -0.8838397             -24.0505
       ...           ...                  ...                  ...
       113        2.0000           -0.4152820             -11.3004
       114        2.0000           -0.4147858             -11.2869
       115        2.0000           -0.4125849             -11.2270
       116        2.0000           -0.4124101             -11.2223
       117        2.0000           -0.4089711             -11.1287
       118        2.0000           -0.4031628             -10.9706
       119        2.0000           -0.3940128             -10.7216
       120        2.0000           -0.3886813             -10.5766
       121        2.0000           -0.3863818             -10.5140
       122        2.0000           -0.3835512             -10.4370
       123        1.9981           -0.3713673             -10.1054
       124        1.0019           -0.3594793              -9.7819
       125        1.0000           -0.2847034              -7.7472 (HOMO)
       126        0.0000           -0.2650817              -7.2132 (LUMO)
       127                         -0.2546320              -6.9289
       128                         -0.2533059              -6.8928
       129                         -0.2513419              -6.8394
       130                         -0.2497153              -6.7951
       131                         -0.2332571              -6.3472
       132                         -0.2301764              -6.2634
       133                         -0.2297454              -6.2517
       134                         -0.2185737              -5.9477
       135                         -0.2116695              -5.7598
       136                         -0.1981967              -5.3932
       ...                                ...                  ...
       236                          0.7363614              20.0374
      -------------------------------------------------------------
                  HL-Gap            0.0196218 Eh            0.5339 eV

     #   Z          covCN         q      C6AA      α(0)
     1   9 F        0.791    -0.219    11.434     3.994
     2   6 C        3.336     0.485    17.297     6.586
     3   9 F        0.791    -0.222    11.464     3.999
     4   9 F        0.790    -0.230    11.554     4.015
     5   6 C        2.975    -0.046    29.140     8.855
     6   6 C        2.917    -0.026    28.645     8.777
     7   6 C        2.919    -0.039    28.968     8.826
     8   6 C        2.908     0.065    26.542     8.448
     9   7 N        2.814    -0.056    22.318     7.016
    10   6 C        3.140     0.123    25.093     8.198
    11   6 C        2.968    -0.009    28.230     8.715
    12   6 C        2.911    -0.043    29.061     8.840
    13   6 C        2.916    -0.034    28.851     8.808
    14   6 C        2.970     0.005    27.911     8.666
    15   6 C        2.970     0.011    27.762     8.643
    16   6 C        2.921    -0.034    28.857     8.809
    17   6 C        2.916    -0.042    29.031     8.835
    18   6 C        2.912     0.056    26.742     8.480
    19   7 N        2.800    -0.019    21.623     6.906
    20   6 C        3.071     0.046    26.892     8.503
    21   6 C        2.909    -0.046    29.132     8.850
    22   6 C        2.923    -0.032    28.808     8.802
    23   6 C        2.920    -0.036    28.906     8.817
    24   6 C        2.912    -0.031    28.780     8.797
    25   6 C        3.065    -0.013    28.282     8.721
    26   6 C        3.065    -0.013    28.281     8.720
    27   6 C        2.912    -0.031    28.779     8.797
    28   6 C        2.920    -0.036    28.905     8.816
    29   6 C        2.923    -0.032    28.806     8.802
    30   6 C        2.909    -0.046    29.132     8.850
    31   6 C        3.072     0.046    26.892     8.503
    32   6 C        2.916    -0.042    29.031     8.835
    33   6 C        2.922    -0.035    28.865     8.810
    34   6 C        2.915    -0.035    28.875     8.812
    35   6 C        2.921    -0.033    28.831     8.805
    36   7 N        1.881    -0.309    28.852     7.963
    37   6 C        3.168     0.081    25.851     8.307
    38   6 C        2.984    -0.004    28.123     8.699
    39   6 C        2.922    -0.027    28.685     8.783
    40   6 C        2.916    -0.031    28.763     8.795
    41   6 C        2.917    -0.028    28.697     8.785
    42   6 C        2.922    -0.034    28.854     8.809
    43   6 C        2.977     0.001    28.006     8.681
    44   6 C        2.977    -0.000    28.032     8.685
    45   6 C        2.920    -0.033    28.815     8.803
    46   6 C        2.916    -0.032    28.798     8.800
    47   6 C        2.914    -0.031    28.770     8.795
    48   6 C        2.918    -0.040    28.989     8.829
    49   6 C        2.973    -0.008    28.221     8.714
    50   6 C        3.034     0.032    27.264     8.564
    51   6 C        2.920    -0.038    28.947     8.823
    52   6 C        2.918    -0.023    28.590     8.768
    53   1 H        0.926     0.057     2.229     2.335
    54   1 H        0.926     0.057     2.233     2.337
    55   1 H        0.926     0.025     2.663     2.552
    56   1 H        0.926     0.036     2.504     2.474
    57   1 H        0.926     0.046     2.372     2.408
    58   1 H        0.926     0.045     2.380     2.412
    59   1 H        0.926     0.039     2.464     2.455
    60   1 H        0.926     0.037     2.492     2.469
    61   1 H        0.926     0.036     2.508     2.477
    62   1 H        0.926     0.038     2.473     2.459
    63   1 H        0.926     0.038     2.475     2.460
    64   1 H        0.926     0.036     2.505     2.475
    65   1 H        0.926     0.038     2.482     2.464
    66   1 H        0.926     0.040     2.451     2.448
    67   1 H        0.926     0.044     2.400     2.423
    68   1 H        0.926     0.043     2.413     2.429
    69   1 H        0.926     0.041     2.433     2.439
    70   1 H        0.926     0.050     2.323     2.384
    71   1 H        0.926     0.050     2.315     2.379
    72   1 H        0.926     0.040     2.455     2.450
    73   1 H        0.926     0.040     2.453     2.449
    74   1 H        0.926     0.041     2.433     2.439
    75   1 H        0.926     0.042     2.423     2.434
    76   1 H        0.926     0.037     2.493     2.469
    77   1 H        0.926     0.034     2.531     2.488
    78   1 H        0.926     0.033     2.549     2.496
    79   1 H        0.926     0.054     2.269     2.356
    80   1 H        0.926     0.056     2.246     2.343

molecular dipole:
                 x           y           z       tot (Debye)
 q only:        1.709      -2.312      -0.252
   full:        1.463      -1.795      -0.246       5.918

 projected vibrational frequencies (cm⁻¹)
eigval :       -0.00    -0.00     0.00     0.00     0.00     0.00
eigval :        6.52    10.66    13.36    18.36    19.29    26.19
eigval :       34.08    44.97    49.46    53.54    66.70    74.19
eigval :       87.63    92.23    99.44   105.56   110.83   119.12
eigval :      127.62   136.55   146.22   172.25   175.09   187.87
eigval :      200.96   202.31   229.27   237.38   248.00   263.33
eigval :      269.15   272.36   300.93   307.04   324.68   347.75
eigval :      364.35   370.81   373.38   380.58   382.07   385.34
eigval :      390.59   394.74   400.08   402.72   415.24   416.58
eigval :      426.64   432.31   438.75   446.17   458.23   469.06
eigval :      495.17   501.51   508.89   516.09   518.01   528.26
eigval :      531.88   538.30   541.42   545.11   578.39   582.07
eigval :      588.85   591.45   595.86   610.26   613.71   616.37
eigval :      628.74   643.79   656.58   664.23   670.13   671.92
eigval :      674.67   677.70   683.57   686.47   708.55   716.78
eigval :      730.30   747.43   753.68   755.25   759.36   768.86
eigval :      773.36   777.59   788.97   793.61   809.91   811.11
eigval :      817.98   843.37   847.59   856.73   865.76   871.00
eigval :      873.30   895.47   897.36   898.69   901.41   902.74
eigval :      904.01   907.88   911.48   912.25   915.38   916.15
eigval :      917.74   919.08   921.29   922.30   924.59   928.13
eigval :      932.66   954.28   960.74   987.66   996.67  1002.76
eigval :     1010.54  1024.67  1040.26  1051.54  1057.96  1068.51
eigval :     1070.70  1082.00  1092.13  1104.18  1113.13  1132.78
eigval :     1133.69  1139.15  1144.60  1151.68  1156.30  1167.22
eigval :     1174.19  1177.61  1178.19  1178.93  1181.49  1194.93
eigval :     1202.26  1205.57  1230.29  1232.75  1237.34  1240.10
eigval :     1246.84  1250.07  1260.14  1261.14  1270.84  1282.55
eigval :     1284.84  1285.95  1292.26  1307.91  1324.62  1328.19
eigval :     1328.73  1332.35  1334.66  1347.33  1354.84  1356.58
eigval :     1362.32  1387.63  1398.47  1405.77  1410.26  1415.86
eigval :     1415.95  1419.48  1422.32  1429.44  1438.16  1452.23
eigval :     1461.44  1462.09  1469.62  1474.82  1480.48  1481.21
eigval :     1488.33  1495.01  1514.08  1536.78  1541.74  1549.25
eigval :     1562.84  1568.41  1576.44  1579.94  1582.06  1583.01
eigval :     1590.61  1601.80  3074.15  3077.08  3077.55  3077.60
eigval :     3081.49  3083.32  3083.97  3084.39  3085.12  3085.89
eigval :     3087.83  3088.98  3091.78  3092.83  3092.99  3095.56
eigval :     3097.60  3098.74  3099.78  3100.39  3102.86  3103.60
eigval :     3104.40  3106.84  3107.56  3111.17  3111.65  3128.02

   temp. (K)  partition function   enthalpy   heat capacity  entropy
                                   cal/mol     cal/K/mol   cal/K/mol   J/K/mol
 298.15  VIB  0.161E+20            23939.694    151.440    149.357
         ROT  0.163E+09              888.752      2.981     40.557
         INT  0.261E+28            24828.446    154.421    189.913
         TR   0.171E+29             1481.254      4.968     45.410
         TOT                       26309.6998   159.3892   235.3235   984.5934

       T/K    H(0)-H(T)+PV         H(T)/Eh          T*S/Eh         G(T)/Eh
   ------------------------------------------------------------------------
    298.15    0.419272E-01    0.631983E+00    0.111810E+00    0.520174E+00
   ------------------------------------------------------------------------

         :::::::::::::::::::::::::::::::::::::::::::::::::::::
         ::                  THERMODYNAMIC                  ::
         :::::::::::::::::::::::::::::::::::::::::::::::::::::
         :: total free energy        -135.300021321509 Eh   ::
         ::.................................................::
         :: total energy             -135.820194913906 Eh   ::
         :: zero point energy           0.590056189438 Eh   ::
         :: G(RRHO) w/o ZPVE           -0.069882597041 Eh   ::
         :: G(RRHO) contrib.            0.520173592397 Eh   ::
         :::::::::::::::::::::::::::::::::::::::::::::::::::::

           -------------------------------------------------
          | TOTAL ENERGY             -135.820194913906 Eh   |
          | TOTAL ENTHALPY           -135.188211549090 Eh   |
          | TOTAL FREE ENERGY        -135.300021321509 Eh   |
          | GRADIENT NORM               0.000057944815 Eh/α |
          | HOMO-LUMO GAP               0.533935183987 eV   |
           -------------------------------------------------

 * finished run on 2025/07/18 at 12:35:14.346
