   * xtb version 6.7.1 (edcfbbe) compiled by 'albert@albert-system' on 2024-07-22

   ID    Z sym.   atoms
    1    9 F      1, 3, 4
    2    6 C      2, 5-8, 10-18, 20-35, 37-52
    3    7 N      9, 19, 36
    4    1 H      53-80

          program call               : xtb data2507/toluene/CzB-FMPPI/CzB-FMPPI_toluene_S0_crest.xyz --gfn 2 --gbsa toluene --ohess vtight --parallel 40 --molden --ceasefiles --namespace data2507/toluene/CzB-FMPPI/CzB-FMPPI_toluene_S0_finalOpt
      * Solvation model:               GBSA
        Solvent                        toluene
        Solvent mass                       9.2140E+01 g/mol
          :  Hamiltonian                  GFN2-xTB          :
 * total energy  :  -135.9028018 Eh     change       -0.2424201E-08 Eh
 * total energy  :  -135.9028606 Eh     change       -0.5870980E-04 Eh
 * total energy  :  -135.9028839 Eh     change       -0.2335934E-04 Eh
 * total energy  :  -135.9028911 Eh     change       -0.7160309E-05 Eh
 * total energy  :  -135.9028991 Eh     change       -0.8024644E-05 Eh
 * total energy  :  -135.9029042 Eh     change       -0.5083769E-05 Eh
 * total energy  :  -135.9029078 Eh     change       -0.3630264E-05 Eh
 * total energy  :  -135.9029110 Eh     change       -0.3166259E-05 Eh
 * total energy  :  -135.9029139 Eh     change       -0.2962595E-05 Eh
 * total energy  :  -135.9029167 Eh     change       -0.2744900E-05 Eh
 * total energy  :  -135.9029626 Eh     change       -0.8480632E-06 Eh
 * total energy  :  -135.9029635 Eh     change       -0.8753233E-06 Eh
 * total energy  :  -135.9029644 Eh     change       -0.9429471E-06 Eh
 * total energy  :  -135.9029655 Eh     change       -0.1103471E-05 Eh
 * total energy  :  -135.9029665 Eh     change       -0.1014339E-05 Eh
 * total energy  :  -135.9029675 Eh     change       -0.9320550E-06 Eh
 * total energy  :  -135.9029682 Eh     change       -0.7419599E-06 Eh
 * total energy  :  -135.9029687 Eh     change       -0.5050517E-06 Eh
 * total energy  :  -135.9029687 Eh     change       -0.3013497E-08 Eh
   *** GEOMETRY OPTIMIZATION CONVERGED AFTER 44 ITERATIONS ***

 final structure:
================
80
 xtb: 6.7.1 (edcfbbe)
F           -3.16692112464603        6.07675269388607       -0.20787417054073
C           -2.37668337221534        5.24095523432989        0.48593633033417
F           -2.37726603644886        5.68931561834304        1.75398089439714
F           -1.12271848213708        5.45518396424840        0.02529865888552
C           -2.78538487487511        3.80246905137267        0.37114917081953
C           -3.49606852822068        3.36982437690855       -0.74298156120266
C           -3.84183868255781        2.03747068230211       -0.85474828513614
C           -3.47742666889700        1.13655818326098        0.14526376042810
N           -3.80035826482852       -0.22468584266489        0.01992076890214
C           -2.88008686029548       -1.25249392008006       -0.06834056124811
C           -1.43610253732200       -1.08272352580733       -0.05790131156379
C           -0.79400010758655       -0.00872783780488       -0.67294523889295
C            0.58289176972104        0.08596295354377       -0.65240629291920
C            1.36151785353433       -0.89070265939486       -0.03337827579077
C            2.82708918305584       -0.79034803398982       -0.02889679689130
C            3.61693963440963       -1.91989057192297       -0.23982034057587
C            4.99400414154928       -1.82925463688505       -0.25636528498894
C            5.61718433660519       -0.60216692803671       -0.04438679346003
N            7.01661143048397       -0.50868948223330       -0.05769703931214
C            7.76024986256114        0.38072757925274       -0.80772968474597
C            7.33745730235907        1.33695389455051       -1.72074372245501
C            8.30342606296345        2.08687076933230       -2.36435827284805
C            9.66102091433679        1.89110367379463       -2.11746167350395
C           10.08869251236639        0.92612016701806       -1.22720608032843
C            9.13646516134651        0.15874888197557       -0.56817531870339
C            9.21703787852668       -0.91829384437129        0.37890727242921
C           10.27551533587475       -1.56716007622918        1.00229437150526
C            9.99593166356958       -2.57678356014466        1.90182095975585
C            8.68033520614111       -2.93220830276348        2.19392853750979
C            7.61090967120203       -2.30203685880122        1.58672965989581
C            7.88603050403974       -1.30243608256907        0.66381020825613
C            4.83752992526863        0.52984254768376        0.17790801035825
C            3.46025597780374        0.43465408726320        0.17672887634788
C            0.71583465562176       -1.97435868980568        0.56264188220910
C           -0.65919766711748       -2.07063382016645        0.54992528095180
N           -3.45951132753609       -2.41826448080554       -0.19537791097789
C           -4.79833241605697       -2.17865897479346       -0.19847196028760
C           -5.85104123727730       -3.12361834594845       -0.35599945339093
C           -5.58380594893327       -4.48524032741573       -0.53678639328778
C           -6.61207350685681       -5.37510105666176       -0.72454035620082
C           -7.92578896843558       -4.90935843409949       -0.73707052438231
C           -8.20037639812949       -3.57402121769613       -0.55352181050266
C           -7.17748716251402       -2.63429667981239       -0.34958494113080
C           -7.43587459964768       -1.22353723222279       -0.11549582638199
C           -8.74267734384470       -0.72185581758500       -0.02488938341890
C           -9.00021069666746        0.60141570232172        0.24564092087066
C           -7.94868746726937        1.48723558736548        0.45974396404060
C           -6.65379808894164        1.03857894224521        0.37028121163121
C           -6.36839445859903       -0.29936871244184        0.06031756304882
C           -5.04610318375766       -0.81561530337575       -0.05497878007887
C           -2.75933658205027        1.57563539368477        1.25466365341592
C           -2.41188768275491        2.90801172020435        1.36747667821803
H           -3.77676336314378        4.07126874318721       -1.51313318353601
H           -4.39497142508566        1.68784710947849       -1.71324923309642
H           -1.36596288813468        0.74266245318473       -1.19584089489946
H            1.06318367551936        0.91471237859385       -1.15115216330147
H            3.14528529509242       -2.87325631989133       -0.42575942708793
H            5.59566025747283       -2.70494388528779       -0.44956929851472
H            6.28898005971318        1.48549012913508       -1.93092571223249
H            7.99974041632609        2.83951717865772       -3.07761106540399
H           10.38570346614805        2.49940428377357       -2.63885938445924
H           11.14129349292047        0.76440635364024       -1.04789488262473
H           11.29484059050077       -1.28194743743424        0.78790772814840
H           10.80494384882256       -3.09536643462745        2.39533812252731
H            8.49270213792236       -3.71594334320578        2.91358528423471
H            6.59510402789364       -2.57369448846608        1.83133007585186
H            5.31808003846340        1.47895933790144        0.36385876135538
H            2.86734815579314        1.31736862260251        0.36561550167820
H            1.29892244199171       -2.73784256161943        1.05552100885678
H           -1.15800019201768       -2.90928076274228        1.01086927278347
H           -4.55232453197390       -4.80295398985802       -0.53072612428759
H           -6.40925127597417       -6.42641867256833       -0.86651857653744
H           -8.73841407806307       -5.60450726318766       -0.89207669083401
H           -9.23192465781548       -3.26070866677280       -0.57310845123340
H           -9.58115571801310       -1.38551544550683       -0.15935883597851
H          -10.02060650829251        0.94998487903497        0.30711833663573
H           -8.14781701150076        2.52108824235665        0.70029367369490
H           -5.84387608196550        1.72466165557865        0.55860416461130
H           -2.47595007353394        0.87197810788257        2.02170844283940
H           -1.86120585668208        3.25623433850792        2.22739225435390

          :  Hamiltonian                  GFN2-xTB          :
         :: gradient norm              0.000041635217 Eh/a0 ::
         :: HOMO-LUMO gap              2.188724331867 eV    ::
         :: SCC energy              -138.202247307523 Eh    ::
         :: -> dispersion             -0.112949080241 Eh    ::
         :: -> Gsolv                  -0.052620764210 Eh    ::
         :: repulsion energy           2.299278597591 Eh    ::

    * Orbital Energies and Occupations

         #    Occupation            Energy/Eh            Energy/eV
      -------------------------------------------------------------
         1        2.0000           -0.8912056             -24.2509
       ...           ...                  ...                  ...
       112        2.0000           -0.4177743             -11.3682
       113        2.0000           -0.4168834             -11.3440
       114        2.0000           -0.4149290             -11.2908
       115        2.0000           -0.4134266             -11.2499
       116        2.0000           -0.4133211             -11.2470
       117        2.0000           -0.4056409             -11.0381
       118        2.0000           -0.4046452             -11.0110
       119        2.0000           -0.3969415             -10.8013
       120        2.0000           -0.3875620             -10.5461
       121        2.0000           -0.3858302             -10.4990
       122        2.0000           -0.3780582             -10.2875
       123        2.0000           -0.3705216             -10.0824
       124        2.0000           -0.3611678              -9.8279 (HOMO)
       125                         -0.2807337              -7.6392 (LUMO)
       126                         -0.2673284              -7.2744
       127                         -0.2659793              -7.2377
       128                         -0.2530520              -6.8859
       129                         -0.2516320              -6.8473
       130                         -0.2443227              -6.6484
       131                         -0.2316690              -6.3040
       132                         -0.2315281              -6.3002
       133                         -0.2297058              -6.2506
       134                         -0.2214496              -6.0260
       135                         -0.2110247              -5.7423
       ...                                ...                  ...
       236                          0.7448958              20.2696
      -------------------------------------------------------------
                  HL-Gap            0.0804342 Eh            2.1887 eV

     #   Z          covCN         q      C6AA      α(0)
     1   9 F        0.791    -0.213    11.372     3.983
     2   6 C        3.336     0.487    17.271     6.581
     3   9 F        0.791    -0.215    11.389     3.986
     4   9 F        0.791    -0.221    11.450     3.997
     5   6 C        2.976    -0.025    28.622     8.776
     6   6 C        2.919    -0.019    28.478     8.751
     7   6 C        2.922    -0.030    28.753     8.793
     8   6 C        2.911     0.080    26.219     8.396
     9   7 N        2.840    -0.047    22.148     6.990
    10   6 C        3.182     0.131    24.731     8.117
    11   6 C        2.974    -0.004    28.123     8.699
    12   6 C        2.920    -0.037    28.918     8.818
    13   6 C        2.924    -0.034    28.848     8.808
    14   6 C        2.976     0.015    27.684     8.631
    15   6 C        2.976     0.008    27.831     8.654
    16   6 C        2.924    -0.033    28.810     8.802
    17   6 C        2.920    -0.042    29.053     8.839
    18   6 C        2.912     0.063    26.589     8.455
    19   7 N        2.802    -0.045    22.118     6.985
    20   6 C        3.075     0.047    26.863     8.498
    21   6 C        2.909    -0.052    29.292     8.875
    22   6 C        2.924    -0.035    28.876     8.812
    23   6 C        2.919    -0.043    29.064     8.841
    24   6 C        2.912    -0.035    28.871     8.811
    25   6 C        3.067    -0.019    28.406     8.739
    26   6 C        3.067    -0.019    28.406     8.739
    27   6 C        2.912    -0.035    28.870     8.811
    28   6 C        2.920    -0.043    29.063     8.840
    29   6 C        2.924    -0.035    28.874     8.812
    30   6 C        2.909    -0.052    29.290     8.874
    31   6 C        3.076     0.047    26.863     8.498
    32   6 C        2.920    -0.043    29.059     8.840
    33   6 C        2.924    -0.033    28.819     8.804
    34   6 C        2.923    -0.032    28.798     8.800
    35   6 C        2.926    -0.028    28.700     8.785
    36   7 N        1.894    -0.303    28.708     7.943
    37   6 C        3.202     0.060    26.102     8.324
    38   6 C        2.985    -0.001    28.055     8.688
    39   6 C        2.921    -0.033    28.813     8.803
    40   6 C        2.917    -0.031    28.767     8.795
    41   6 C        2.917    -0.033    28.821     8.803
    42   6 C        2.921    -0.036    28.890     8.814
    43   6 C        2.979    -0.003    28.097     8.695
    44   6 C        2.979     0.001    28.005     8.681
    45   6 C        2.922    -0.034    28.848     8.808
    46   6 C        2.916    -0.033    28.813     8.802
    47   6 C        2.917    -0.032    28.787     8.798
    48   6 C        2.919    -0.042    29.043     8.837
    49   6 C        2.978    -0.004    28.118     8.698
    50   6 C        3.067     0.019    27.528     8.603
    51   6 C        2.922    -0.031    28.784     8.798
    52   6 C        2.920    -0.017    28.433     8.744
    53   1 H        0.926     0.073     2.054     2.241
    54   1 H        0.926     0.070     2.080     2.255
    55   1 H        0.926     0.029     2.602     2.522
    56   1 H        0.926     0.042     2.425     2.435
    57   1 H        0.926     0.045     2.385     2.415
    58   1 H        0.926     0.044     2.401     2.423
    59   1 H        0.926     0.030     2.586     2.515
    60   1 H        0.926     0.029     2.593     2.518
    61   1 H        0.926     0.027     2.626     2.534
    62   1 H        0.926     0.030     2.591     2.517
    63   1 H        0.926     0.030     2.593     2.518
    64   1 H        0.926     0.027     2.624     2.533
    65   1 H        0.926     0.030     2.586     2.515
    66   1 H        0.926     0.031     2.577     2.510
    67   1 H        0.926     0.043     2.411     2.428
    68   1 H        0.926     0.043     2.412     2.429
    69   1 H        0.926     0.046     2.369     2.407
    70   1 H        0.926     0.049     2.333     2.388
    71   1 H        0.926     0.046     2.371     2.408
    72   1 H        0.926     0.034     2.525     2.485
    73   1 H        0.926     0.034     2.535     2.490
    74   1 H        0.926     0.037     2.494     2.470
    75   1 H        0.926     0.040     2.453     2.449
    76   1 H        0.926     0.035     2.520     2.482
    77   1 H        0.926     0.033     2.540     2.492
    78   1 H        0.926     0.028     2.613     2.528
    79   1 H        0.926     0.067     2.116     2.274
    80   1 H        0.926     0.072     2.067     2.248

molecular dipole:
                 x           y           z       tot (Debye)
 q only:       -0.719      -0.951      -0.001
   full:       -0.900      -0.496       0.026       2.613

 projected vibrational frequencies (cm⁻¹)
eigval :       -0.00    -0.00     0.00     0.00     0.00     0.00
eigval :        9.37    10.03    13.44    16.77    19.38    24.28
eigval :       33.32    40.03    49.66    55.18    70.10    74.85
eigval :       83.62    84.43    93.71   100.06   106.95   113.60
eigval :      123.64   132.00   146.21   173.31   179.53   185.99
eigval :      198.26   202.62   230.40   246.09   246.98   266.31
eigval :      268.91   270.77   299.77   308.04   337.01   365.53
eigval :      370.12   371.77   375.32   377.50   382.58   392.09
eigval :      397.28   400.51   402.03   409.06   417.84   428.45
eigval :      431.20   438.63   442.93   461.93   474.22   492.82
eigval :      505.77   517.05   518.67   522.66   526.10   534.20
eigval :      535.81   541.38   544.03   558.70   582.08   585.02
eigval :      596.28   598.61   604.29   615.65   625.12   633.31
eigval :      643.24   651.20   672.18   674.13   675.78   682.02
eigval :      685.34   686.77   702.89   707.81   709.79   722.72
eigval :      733.72   754.27   761.92   764.64   766.79   768.22
eigval :      779.46   781.92   800.01   807.29   827.20   832.05
eigval :      860.29   865.77   868.92   869.13   873.49   874.52
eigval :      878.79   897.39   901.43   901.84   907.04   911.53
eigval :      913.86   914.72   918.82   919.32   922.84   924.58
eigval :      925.68   925.73   927.42   928.06   933.48   938.10
eigval :      953.53   982.24   993.27  1006.34  1011.11  1015.77
eigval :     1028.08  1038.93  1065.40  1068.11  1068.98  1072.35
eigval :     1078.52  1084.61  1107.18  1116.45  1130.42  1133.74
eigval :     1137.27  1142.50  1150.15  1150.77  1169.84  1175.11
eigval :     1180.10  1181.85  1181.92  1184.01  1186.97  1196.85
eigval :     1204.41  1206.53  1235.49  1242.22  1244.36  1253.75
eigval :     1257.46  1261.69  1264.41  1269.89  1280.93  1285.01
eigval :     1299.39  1300.62  1309.83  1313.63  1316.86  1318.41
eigval :     1324.84  1336.98  1344.45  1355.70  1360.36  1366.26
eigval :     1370.69  1392.06  1404.75  1405.85  1410.53  1416.29
eigval :     1427.16  1427.58  1428.30  1433.84  1463.27  1474.16
eigval :     1481.70  1486.79  1498.25  1511.31  1514.35  1541.06
eigval :     1554.10  1560.26  1563.99  1568.10  1570.61  1573.28
eigval :     1585.69  1586.49  1587.79  1592.68  1596.91  1599.46
eigval :     1603.24  1612.78  3070.19  3070.77  3071.73  3075.33
eigval :     3075.68  3076.64  3079.27  3082.03  3082.14  3082.49
eigval :     3083.99  3084.88  3085.31  3086.19  3090.61  3091.46
eigval :     3092.81  3094.32  3095.01  3097.68  3098.00  3099.93
eigval :     3100.22  3100.84  3108.31  3110.89  3110.96  3115.05

   temp. (K)  partition function   enthalpy   heat capacity  entropy
                                   cal/mol     cal/K/mol   cal/K/mol   J/K/mol
 298.15  VIB  0.152E+20            23711.028    149.331    148.343
         ROT  0.158E+09              888.752      2.981     40.502
         INT  0.240E+28            24599.781    152.312    188.844
         TR   0.171E+29             1481.254      4.968     45.410
         TOT                       26081.0347   157.2801   234.2544   980.1204

       T/K    H(0)-H(T)+PV         H(T)/Eh          T*S/Eh         G(T)/Eh
   ------------------------------------------------------------------------
    298.15    0.415628E-01    0.635680E+00    0.111302E+00    0.524378E+00
   ------------------------------------------------------------------------

         :::::::::::::::::::::::::::::::::::::::::::::::::::::
         ::                  THERMODYNAMIC                  ::
         :::::::::::::::::::::::::::::::::::::::::::::::::::::
         :: total free energy        -135.378590940152 Eh   ::
         ::.................................................::
         :: total energy             -135.902968708722 Eh   ::
         :: zero point energy           0.594116812908 Eh   ::
         :: G(RRHO) w/o ZPVE           -0.069739044337 Eh   ::
         :: G(RRHO) contrib.            0.524377768570 Eh   ::
         :::::::::::::::::::::::::::::::::::::::::::::::::::::

           -------------------------------------------------
          | TOTAL ENERGY             -135.902968708722 Eh   |
          | TOTAL ENTHALPY           -135.267289121492 Eh   |
          | TOTAL FREE ENERGY        -135.378590940152 Eh   |
          | GRADIENT NORM               0.000041628276 Eh/α |
          | HOMO-LUMO GAP               2.188724819263 eV   |
           -------------------------------------------------

 * finished run on 2025/07/18 at 12:35:06.308
