   * xtb version 6.7.1 (edcfbbe) compiled by 'albert@albert-system' on 2024-07-22

   ID    Z sym.   atoms
    1    6 C      1, 3-14, 16-21, 23-41
    2    8 O      2, 42
    3    7 N      15, 22
    4    1 H      43-68

          program call               : xtb data2507/toluene/C-O/C-O_toluene_T1_crest.xyz --gfn 2 --uhf 2 --gbsa toluene --ohess vtight --parallel 40 --molden --ceasefiles --namespace data2507/toluene/C-O/C-O_toluene_T1_finalOpt
      * Solvation model:               GBSA
        Solvent                        toluene
        Solvent mass                       9.2140E+01 g/mol
          :  Hamiltonian                  GFN2-xTB          :
 * total energy  :  -108.6483234 Eh     change       -0.1906152E-07 Eh
 * total energy  :  -108.6483804 Eh     change       -0.5699773E-04 Eh
 * total energy  :  -108.6484412 Eh     change       -0.6080358E-04 Eh
 * total energy  :  -108.6484831 Eh     change       -0.4186799E-04 Eh
 * total energy  :  -108.6485195 Eh     change       -0.3637282E-04 Eh
 * total energy  :  -108.6485818 Eh     change       -0.6237178E-04 Eh
 * total energy  :  -108.6486765 Eh     change       -0.9465145E-04 Eh
 * total energy  :  -108.6487257 Eh     change       -0.4923833E-04 Eh
 * total energy  :  -108.6487946 Eh     change       -0.6883412E-04 Eh
 * total energy  :  -108.6489081 Eh     change       -0.1135674E-03 Eh
 * total energy  :  -108.6491528 Eh     change        0.1391498E-08 Eh
 * total energy  :  -108.6491528 Eh     change        0.2284906E-08 Eh
 * total energy  :  -108.6491528 Eh     change        0.3151769E-08 Eh
 * total energy  :  -108.6491528 Eh     change        0.3868280E-08 Eh
 * total energy  :  -108.6491528 Eh     change        0.4653060E-08 Eh
 * total energy  :  -108.6491528 Eh     change        0.5449550E-08 Eh
 * total energy  :  -108.6491528 Eh     change        0.6251156E-08 Eh
 * total energy  :  -108.6491528 Eh     change        0.7055107E-08 Eh
 * total energy  :  -108.6491528 Eh     change       -0.6449152E-07 Eh
   *** GEOMETRY OPTIMIZATION CONVERGED AFTER 55 ITERATIONS ***

 final structure:
================
68
 xtb: 6.7.1 (edcfbbe)
C            5.03349120839705        5.31643263597008        0.07485740336513
O            3.69262505785899        5.22757554976146       -0.35669014665022
C            2.98131311517632        4.10564809180304       -0.07442703506729
C            1.64795661520612        4.12475126682168       -0.54407449757131
C            0.79451035864814        3.06053882290454       -0.32100282606164
C            1.27814107895729        1.96119908822450        0.37312877075620
C            2.63452189930581        1.91514237782050        0.82332793668007
C            3.48202280170511        3.00355886888177        0.60409097165349
C            2.82412025897464        0.64559406138854        1.43300179505197
C            3.90422517658891        0.02510124378423        2.06591106991771
C            3.71415604591553       -1.22002018058826        2.63558887017345
C            2.47019406483238       -1.84441610342534        2.61499151892282
C            1.38257448446222       -1.25078645941890        1.97648826326435
C            1.58162620796945       -0.03950194144473        1.34938340724096
N            0.66401856868286        0.76653742574505        0.67507095208268
C           -0.60176604635076        0.37445492870845        0.27327722839518
C           -1.70510129827160        1.19587360242573        0.49140357536957
C           -2.98410383125676        0.77703801385293        0.18033109666511
C           -3.20499697102325       -0.51072619964433       -0.38985256768593
C           -2.11114483036369       -1.31483194384140       -0.62969896928031
C           -0.80954136613467       -0.91128282935392       -0.34347630598932
N            0.27064367560660       -1.70173038461436       -0.70885042683030
C            1.42502534044240       -1.25665349245397       -1.33746912617148
C            1.67303033016185       -0.04489405065318       -1.95967955666084
C            2.91237105253211        0.14020063705597       -2.55199440980052
C            3.87367022034750       -0.86900377323487       -2.54320691261256
C            3.60909990417216       -2.10256252764252       -1.98035619872002
C            2.36844279475183       -2.31379140661154       -1.38655271688116
C            1.74463999586982       -3.44823696520884       -0.77903916071215
C            2.16212269341128       -4.75178678209022       -0.52642769557337
C            1.29899461894952       -5.61152038400161        0.12433767739129
C            0.03558034201743       -5.18926346443333        0.53795853942187
C           -0.40535956679768       -3.89862521182229        0.29172644840126
C            0.44549368917686       -3.03622292324707       -0.38090451493365
C           -4.58942853453242       -0.94921830079891       -0.75630071093125
C           -5.64314298089162        0.03352332830447       -0.33373558712745
C           -6.98954417174870       -0.24531499227800       -0.52025244067829
C           -7.96915557756638        0.65656799065276       -0.14562762115056
C           -7.60692062005443        1.86942560219662        0.42916615846904
C           -6.27657810179340        2.16857471364799        0.62619055794676
C           -5.29057872639908        1.25552633875404        0.24640856393288
O           -3.99908778854510        1.63407960499678        0.47022552900308
H            5.65007465025170        4.53655457467491       -0.38171453934295
H            5.38193735105023        6.29439186662372       -0.25338645403297
H            5.10578559591052        5.24928978982079        1.16435258576270
H            1.31723913075436        4.99713096667446       -1.08319732841138
H           -0.21646749981441        3.09149936172399       -0.69616643494456
H            4.50064233379917        2.96006047811006        0.95158756841978
H            4.86505807665488        0.51472256523350        2.11252115514025
H            4.54117613869630       -1.71359061620725        3.12572368105639
H            2.33982251937744       -2.79996884564434        3.09922119603227
H            0.41539263711573       -1.72977166181165        1.99032661623691
H           -1.57700204969720        2.15545369576115        0.96723769701171
H           -2.26149112101778       -2.27158604406299       -1.10803848747995
H            0.92495460563224        0.73214546369314       -2.00113103224469
H            3.13073194674725        1.08205330629737       -3.03268335196063
H            4.83328335511756       -0.68631699021398       -3.00472008747901
H            4.34412169467599       -2.89290288189734       -2.00588619290633
H            3.14633647861861       -5.07701847294637       -0.82810235492586
H            1.60703782384954       -6.62692745821052        0.32771732645240
H           -0.60965256084008       -5.87834126277443        1.06217628070199
H           -1.37887286123478       -3.57859674366024        0.63112889707868
H           -4.79867522716984       -1.92675319418861       -0.30649013320648
H           -4.65065540453779       -1.09378546243411       -1.84283624797820
H           -7.26752884227339       -1.18855452229035       -0.96844387827090
H           -9.01050674251278        0.41872594919213       -0.29926409458354
H           -8.36557082631817        2.57871747750914        0.72346404476612
H           -5.96716976034132        3.10193342514940        1.07072446649514

          :  Hamiltonian                  GFN2-xTB          :
         :: gradient norm              0.000055739095 Eh/a0 ::
         :: HOMO-LUMO gap              0.150737350215 eV    ::
         :: SCC energy              -110.525224847722 Eh    ::
         :: -> dispersion             -0.103172878653 Eh    ::
         :: -> Gsolv                  -0.041108568000 Eh    ::
         :: repulsion energy           1.876072006143 Eh    ::

    * Orbital Energies and Occupations

         #    Occupation            Energy/Eh            Energy/eV
      -------------------------------------------------------------
         1        2.0000           -0.7353846             -20.0108
       ...           ...                  ...                  ...
        89        2.0000           -0.4182889             -11.3822
        90        2.0000           -0.4179362             -11.3726
        91        2.0000           -0.4164864             -11.3332
        92        2.0000           -0.4098381             -11.1523
        93        2.0000           -0.4049530             -11.0193
        94        2.0000           -0.4029700             -10.9654
        95        2.0000           -0.3961413             -10.7796
        96        2.0000           -0.3789970             -10.3130
        97        2.0000           -0.3775903             -10.2748
        98        2.0000           -0.3732257             -10.1560
        99        1.9800           -0.3638053              -9.8996
       100        1.0200           -0.3564126              -9.6985
       101        0.9486           -0.2526101              -6.8739 (HOMO)
       102        0.0514           -0.2470709              -6.7231 (LUMO)
       103        0.0001           -0.2407009              -6.5498
       104        0.0000           -0.2347191              -6.3870
       105                         -0.2276758              -6.1954
       106                         -0.2246507              -6.1131
       107                         -0.2171222              -5.9082
       108                         -0.2138380              -5.8188
       109                         -0.1931365              -5.2555
       110                         -0.1880965              -5.1184
       111                         -0.1860578              -5.0629
       112                         -0.1851727              -5.0388
       ...                                ...                  ...
       194                          0.7446388              20.2627
      -------------------------------------------------------------
                  HL-Gap            0.0055392 Eh            0.1507 eV

     #   Z          covCN         q      C6AA      α(0)
     1   6 C        3.642     0.032    20.388     6.492
     2   8 O        1.705    -0.268    18.448     5.799
     3   6 C        2.862     0.144    24.867     8.174
     4   6 C        2.920    -0.072    29.798     8.952
     5   6 C        2.906    -0.047    29.175     8.857
     6   6 C        3.061     0.039    27.069     8.532
     7   6 C        3.063    -0.018    28.402     8.739
     8   6 C        2.906    -0.079    29.969     8.976
     9   6 C        3.056    -0.025    28.577     8.767
    10   6 C        2.911    -0.040    28.999     8.830
    11   6 C        2.917    -0.036    28.895     8.815
    12   6 C        2.921    -0.048    29.201     8.862
    13   6 C        2.909    -0.043    29.061     8.840
    14   6 C        3.069     0.040    27.024     8.524
    15   7 N        2.795    -0.008    21.408     6.872
    16   6 C        2.908     0.031    27.314     8.570
    17   6 C        2.913    -0.073    29.824     8.955
    18   6 C        2.872     0.123    25.287     8.243
    19   6 C        2.963    -0.022    28.555     8.765
    20   6 C        2.920    -0.058    29.436     8.897
    21   6 C        2.906     0.033    27.274     8.563
    22   7 N        2.796    -0.021    21.659     6.912
    23   6 C        3.070     0.045    26.930     8.509
    24   6 C        2.909    -0.045    29.128     8.850
    25   6 C        2.922    -0.042    29.032     8.836
    26   6 C        2.919    -0.038    28.943     8.822
    27   6 C        2.912    -0.037    28.911     8.817
    28   6 C        3.061    -0.021    28.460     8.748
    29   6 C        3.063    -0.017    28.372     8.735
    30   6 C        2.911    -0.037    28.913     8.817
    31   6 C        2.918    -0.036    28.903     8.816
    32   6 C        2.922    -0.042    29.044     8.838
    33   6 C        2.909    -0.048    29.190     8.859
    34   6 C        3.067     0.045    26.928     8.509
    35   6 C        3.813    -0.057    21.593     6.614
    36   6 C        2.967    -0.014    28.366     8.736
    37   6 C        2.924    -0.042    29.051     8.839
    38   6 C        2.917    -0.042    29.041     8.837
    39   6 C        2.919    -0.034    28.841     8.807
    40   6 C        2.917    -0.055    29.370     8.887
    41   6 C        2.879     0.129    25.180     8.226
    42   8 O        1.710    -0.240    17.972     5.724
    43   1 H        0.924     0.053     2.284     2.363
    44   1 H        0.925     0.071     2.076     2.253
    45   1 H        0.924     0.053     2.285     2.364
    46   1 H        0.926     0.043     2.406     2.426
    47   1 H        0.926     0.040     2.452     2.449
    48   1 H        0.926     0.041     2.434     2.440
    49   1 H        0.926     0.028     2.608     2.525
    50   1 H        0.926     0.028     2.616     2.529
    51   1 H        0.926     0.024     2.667     2.554
    52   1 H        0.926     0.025     2.663     2.552
    53   1 H        0.926     0.055     2.254     2.348
    54   1 H        0.926     0.052     2.290     2.367
    55   1 H        0.926     0.025     2.658     2.550
    56   1 H        0.926     0.027     2.632     2.537
    57   1 H        0.926     0.029     2.595     2.519
    58   1 H        0.926     0.031     2.574     2.509
    59   1 H        0.926     0.031     2.578     2.511
    60   1 H        0.926     0.030     2.582     2.513
    61   1 H        0.926     0.030     2.581     2.512
    62   1 H        0.926     0.032     2.560     2.502
    63   1 H        0.924     0.065     2.145     2.290
    64   1 H        0.924     0.066     2.127     2.281
    65   1 H        0.926     0.041     2.432     2.439
    66   1 H        0.926     0.039     2.461     2.453
    67   1 H        0.926     0.041     2.438     2.442
    68   1 H        0.926     0.045     2.377     2.411

molecular dipole:
                 x           y           z       tot (Debye)
 q only:       -0.471       0.013      -0.168
   full:       -0.460      -0.017      -0.143       1.225

 projected vibrational frequencies (cm⁻¹)
eigval :       -0.00    -0.00    -0.00    -0.00     0.00     0.00
eigval :       17.19    19.59    29.83    41.73    44.68    46.81
eigval :       55.77    75.50    89.17   104.71   109.54   123.69
eigval :      136.24   152.25   154.41   157.38   170.01   180.56
eigval :      189.96   197.33   210.37   226.75   251.77   257.68
eigval :      268.51   270.49   282.52   295.29   322.70   353.94
eigval :      372.65   374.63   384.03   390.26   397.52   407.64
eigval :      409.48   416.44   421.83   437.56   461.57   469.76
eigval :      474.20   488.46   490.66   513.18   519.74   522.46
eigval :      528.40   542.05   546.66   555.16   575.13   578.03
eigval :      580.97   587.24   597.43   617.25   628.79   644.45
eigval :      648.00   652.56   661.60   678.49   681.86   695.79
eigval :      700.70   717.04   732.83   751.94   755.32   759.42
eigval :      768.96   769.65   775.49   790.18   817.37   830.69
eigval :      839.24   848.04   854.76   857.53   860.74   862.09
eigval :      868.92   877.88   887.61   888.98   890.61   897.57
eigval :      898.06   902.26   904.21   909.61   911.43   914.22
eigval :      915.56   924.27   932.66  1005.59  1011.00  1025.96
eigval :     1049.44  1064.89  1065.79  1070.28  1076.36  1083.22
eigval :     1102.52  1111.75  1118.17  1135.05  1139.31  1146.61
eigval :     1148.65  1149.08  1156.60  1165.92  1171.76  1173.96
eigval :     1175.30  1179.39  1185.16  1196.57  1198.52  1216.35
eigval :     1222.35  1224.36  1228.32  1231.62  1253.41  1254.72
eigval :     1258.52  1273.47  1288.08  1289.03  1310.85  1324.31
eigval :     1333.77  1337.15  1341.79  1346.04  1351.54  1366.95
eigval :     1372.49  1391.18  1392.59  1401.40  1411.69  1417.34
eigval :     1425.54  1432.65  1437.10  1442.47  1443.76  1454.78
eigval :     1461.28  1461.74  1469.68  1470.28  1474.64  1478.00
eigval :     1494.12  1503.31  1526.45  1530.80  1537.22  1558.26
eigval :     1561.65  1565.62  1568.16  1581.64  2888.92  2927.91
eigval :     2940.01  2951.48  3025.39  3070.52  3071.18  3072.19
eigval :     3074.70  3079.37  3079.96  3082.08  3083.75  3085.09
eigval :     3085.57  3086.47  3088.86  3092.96  3093.56  3093.77
eigval :     3094.20  3096.85  3101.25  3107.53  3113.27  3115.20

   temp. (K)  partition function   enthalpy   heat capacity  entropy
                                   cal/mol     cal/K/mol   cal/K/mol   J/K/mol
 298.15  VIB  0.143E+14            18956.712    125.074    114.442
         ROT  0.455E+08              888.752      2.981     38.023
         INT  0.652E+21            19845.465    128.054    152.465
         TR   0.122E+29             1481.254      4.968     44.739
         TOT                       21326.7184   133.0226   197.2040   825.1016

       T/K    H(0)-H(T)+PV         H(T)/Eh          T*S/Eh         G(T)/Eh
   ------------------------------------------------------------------------
    298.15    0.339863E-01    0.548924E+00    0.936980E-01    0.455226E+00
   ------------------------------------------------------------------------

         :::::::::::::::::::::::::::::::::::::::::::::::::::::
         ::                  THERMODYNAMIC                  ::
         :::::::::::::::::::::::::::::::::::::::::::::::::::::
         :: total free energy        -108.193926882119 Eh   ::
         ::.................................................::
         :: total energy             -108.649152839947 Eh   ::
         :: zero point energy           0.514937662385 Eh   ::
         :: G(RRHO) w/o ZPVE           -0.059711704558 Eh   ::
         :: G(RRHO) contrib.            0.455225957827 Eh   ::
         :::::::::::::::::::::::::::::::::::::::::::::::::::::

           -------------------------------------------------
          | TOTAL ENERGY             -108.649152839947 Eh   |
          | TOTAL ENTHALPY           -108.100228888394 Eh   |
          | TOTAL FREE ENERGY        -108.193926882119 Eh   |
          | GRADIENT NORM               0.000056671370 Eh/α |
          | HOMO-LUMO GAP               0.150729085956 eV   |
           -------------------------------------------------

 * finished run on 2025/09/11 at 03:46:41.031
