   * xtb version 6.7.1 (edcfbbe) compiled by 'albert@albert-system' on 2024-07-22

   ID    Z sym.   atoms
    1    6 C      1, 3-14, 16-21, 23-41
    2    8 O      2, 42
    3    7 N      15, 22
    4    1 H      43-68

          program call               : xtb data2507/toluene/C-O/C-O.xyz --gfn 2 --gbsa toluene --ohess vtight --parallel 40 --molden --ceasefiles --namespace data2507/toluene/C-O/C-O_toluene_S0_preOpt
      * Solvation model:               GBSA
        Solvent                        toluene
        Solvent mass                       9.2140E+01 g/mol
          :  Hamiltonian                  GFN2-xTB          :
 * total energy  :  -108.7368198 Eh     change       -0.6944759E-08 Eh
 * total energy  :  -108.7499353 Eh     change       -0.1311553E-01 Eh
 * total energy  :  -108.7528093 Eh     change       -0.2873986E-02 Eh
 * total energy  :  -108.7534401 Eh     change       -0.6307705E-03 Eh
 * total energy  :  -108.7538422 Eh     change       -0.4021304E-03 Eh
 * total energy  :  -108.7539827 Eh     change       -0.1404479E-03 Eh
 * total energy  :  -108.7540898 Eh     change       -0.1071424E-03 Eh
 * total energy  :  -108.7541764 Eh     change       -0.8660340E-04 Eh
 * total energy  :  -108.7542572 Eh     change       -0.8081958E-04 Eh
 * total energy  :  -108.7543322 Eh     change       -0.7497188E-04 Eh
 * total energy  :  -108.7551474 Eh     change       -0.2329160E-06 Eh
 * total energy  :  -108.7551476 Eh     change       -0.2179564E-06 Eh
 * total energy  :  -108.7551477 Eh     change       -0.1716246E-06 Eh
 * total energy  :  -108.7551479 Eh     change       -0.1320242E-06 Eh
 * total energy  :  -108.7551480 Eh     change       -0.1113651E-06 Eh
 * total energy  :  -108.7551481 Eh     change       -0.1096883E-06 Eh
 * total energy  :  -108.7551482 Eh     change       -0.1147111E-06 Eh
 * total energy  :  -108.7551483 Eh     change       -0.1008521E-06 Eh
 * total energy  :  -108.7551484 Eh     change       -0.8582721E-07 Eh
   *** GEOMETRY OPTIMIZATION CONVERGED AFTER 59 ITERATIONS ***

 final structure:
================
68
 xtb: 6.7.1 (edcfbbe)
C            6.28863711515182       -0.35274865084311        2.50624000697916
O            5.10767186188185        0.39954579926620        2.67016493761407
C            3.95640658228828       -0.06102765254816        2.08685299537880
C            2.82541547196890        0.74237207890022        2.29947051206401
C            1.59811080472203        0.42063296340509        1.76454533745675
C            1.50708273665957       -0.72242740193431        0.98326045148019
C            2.62247525385284       -1.56532420706466        0.80702405828135
C            3.85720926514189       -1.23213955632392        1.35405210791215
C            2.16685413495128       -2.68908133993082        0.03814909668770
C            2.79104656239089       -3.82825179305414       -0.45455443443121
C            2.04528658386303       -4.72825042930047       -1.18931048584024
C            0.69433999822243       -4.49993019991181       -1.44396282593108
C            0.05140994124352       -3.37369473100019       -0.96689023193147
C            0.79254691725699       -2.47249124171651       -0.21564844745108
N            0.40713623494179       -1.27386289157666        0.35139989800840
C           -0.83505443728619       -0.64830874405092        0.17867172486459
C           -1.99739688554600       -1.31491908759442        0.53776670308076
C           -3.24227305946461       -0.71419568877492        0.38834719535552
C           -3.34280624825653        0.58007553141940       -0.11889614622893
C           -2.17906401531998        1.23484092294175       -0.48888457227861
C           -0.92763300050930        0.64572593450584       -0.36079621961595
N            0.21840775416461        1.34526561887611       -0.76995164332995
C            0.63353451187469        2.56794057821468       -0.27802714328901
C            0.00248863471665        3.41954701758323        0.61720218939470
C            0.65071796452692        4.59086974115886        0.96042352101288
C            1.90028411726922        4.91060412847466        0.43369601805482
C            2.53890428771484        4.05982926725800       -0.44688279290866
C            1.90690783525538        2.87691932682291       -0.80776020044684
C            2.26693052619193        1.78492871672853       -1.66874522421470
C            3.37066336381011        1.51782367756622       -2.46799355784366
C            3.37978090441339        0.35864524366570       -3.21875795244901
C            2.29500364987170       -0.51531953541589       -3.20180628862829
C            1.18662887732054       -0.27102760114024       -2.41426304175132
C            1.19346659632462        0.86722252261925       -1.62214236317735
C           -4.67942299941404        1.24998171888774       -0.27297361228065
C           -5.81335587676129        0.36119170598419        0.16056971988555
C           -7.12696471422342        0.80502800554490        0.08285832068998
C           -8.18053569949358        0.00137165672711        0.47823772470767
C           -7.92996857441346       -1.27274593873115        0.96227056303960
C           -6.63097032946961       -1.73392583667631        1.04765430976973
C           -5.57530281726900       -0.91959978908521        0.64909795681910
O           -4.31858801880407       -1.45859174193562        0.77063932056642
H            6.55895340315543       -0.44671499285750        1.44969997438822
H            7.06398215657480        0.20361543273312        3.03069109483590
H            6.19284121995583       -1.34881684269922        2.95018068535058
H            2.94546108409063        1.62903406602437        2.90205263118552
H            0.73755399235989        1.04013225841036        1.96191305242124
H            4.70020242096087       -1.88624974629329        1.20281471117166
H            3.84027430412245       -4.00094286141910       -0.26725917176136
H            2.51209579684348       -5.62081373067774       -1.57941422320317
H            0.13812514894650       -5.21779681011478       -2.02914702503554
H           -0.99274030865691       -3.19934971772859       -1.18077278206736
H           -1.94515966535470       -2.30613704480956        0.96013012764004
H           -2.24435282154532        2.22727546480864       -0.91013289422672
H           -0.95982705511549        3.17353642661004        1.04119266421551
H            0.17979576771200        5.27177533243285        1.65455479226648
H            2.37487158473444        5.83606308271422        0.72543170209411
H            3.51200675175066        4.30364863327455       -0.84619270205787
H            4.20000851328342        2.20849858078134       -2.50385779902954
H            4.23142065033734        0.13014614636446       -3.84280915619432
H            2.31800046923421       -1.40197915688911       -3.81845472847114
H            0.34145593982677       -0.94209493844137       -2.42583881937476
H           -4.82279450708605        1.54346458161128       -1.31925093789041
H           -4.69519114847073        2.17463636095611        0.31593419213942
H           -7.31744077667062        1.79897686803981       -0.29567936735674
H           -9.19375773182636        0.36704007966113        0.40938719599506
H           -8.74506895913254       -1.90824769559583        1.27347737551813
H           -6.40672704176872       -2.72119887481905        1.42100092235125

          :  Hamiltonian                  GFN2-xTB          :
         :: gradient norm              0.000034354527 Eh/a0 ::
         :: HOMO-LUMO gap              2.924992399185 eV    ::
         :: SCC energy              -110.653105980770 Eh    ::
         :: -> dispersion             -0.102454069168 Eh    ::
         :: -> Gsolv                  -0.041505143553 Eh    ::
         :: repulsion energy           1.897957586442 Eh    ::

    * Orbital Energies and Occupations

         #    Occupation            Energy/Eh            Energy/eV
      -------------------------------------------------------------
         1        2.0000           -0.7348729             -19.9969
       ...           ...                  ...                  ...
        88        2.0000           -0.4198231             -11.4240
        89        2.0000           -0.4197484             -11.4219
        90        2.0000           -0.4185590             -11.3896
        91        2.0000           -0.4182703             -11.3817
        92        2.0000           -0.4151779             -11.2976
        93        2.0000           -0.4047111             -11.0128
        94        2.0000           -0.4045456             -11.0082
        95        2.0000           -0.3970585             -10.8045
        96        2.0000           -0.3806005             -10.3567
        97        2.0000           -0.3797046             -10.3323
        98        2.0000           -0.3760452             -10.2327
        99        2.0000           -0.3622693              -9.8578
       100        2.0000           -0.3580100              -9.7419 (HOMO)
       101                         -0.2505185              -6.8170 (LUMO)
       102                         -0.2468396              -6.7168
       103                         -0.2418938              -6.5823
       104                         -0.2410453              -6.5592
       105                         -0.2300186              -6.2591
       106                         -0.2240286              -6.0961
       107                         -0.2176154              -5.9216
       108                         -0.2141699              -5.8279
       109                         -0.1934466              -5.2639
       110                         -0.1887383              -5.1358
       111                         -0.1860245              -5.0620
       ...                                ...                  ...
       194                          0.7459581              20.2986
      -------------------------------------------------------------
                  HL-Gap            0.1074915 Eh            2.9250 eV

     #   Z          covCN         q      C6AA      α(0)
     1   6 C        3.642     0.038    20.286     6.476
     2   8 O        1.705    -0.296    18.921     5.873
     3   6 C        2.865     0.131    25.134     8.218
     4   6 C        2.925    -0.058    29.433     8.897
     5   6 C        2.910    -0.048    29.202     8.861
     6   6 C        3.079     0.041    26.986     8.517
     7   6 C        3.068    -0.019    28.417     8.741
     8   6 C        2.911    -0.073    29.824     8.955
     9   6 C        3.070    -0.017    28.368     8.733
    10   6 C        2.912    -0.034    28.848     8.807
    11   6 C        2.919    -0.042    29.055     8.839
    12   6 C        2.924    -0.035    28.861     8.810
    13   6 C        2.910    -0.052    29.280     8.873
    14   6 C        3.076     0.049    26.812     8.489
    15   7 N        2.802    -0.044    22.093     6.981
    16   6 C        2.912     0.051    26.854     8.498
    17   6 C        2.922    -0.071    29.767     8.947
    18   6 C        2.878     0.134    25.064     8.207
    19   6 C        2.967    -0.015    28.377     8.738
    20   6 C        2.929    -0.057    29.408     8.893
    21   6 C        2.910     0.042    27.053     8.529
    22   7 N        2.801    -0.046    22.123     6.986
    23   6 C        3.076     0.049    26.827     8.492
    24   6 C        2.910    -0.052    29.303     8.876
    25   6 C        2.924    -0.035    28.866     8.811
    26   6 C        2.920    -0.042    29.047     8.838
    27   6 C        2.913    -0.034    28.841     8.806
    28   6 C        3.068    -0.018    28.380     8.735
    29   6 C        3.068    -0.019    28.418     8.741
    30   6 C        2.913    -0.035    28.877     8.812
    31   6 C        2.920    -0.042    29.055     8.839
    32   6 C        2.924    -0.035    28.864     8.810
    33   6 C        2.910    -0.050    29.242     8.867
    34   6 C        3.078     0.050    26.796     8.487
    35   6 C        3.813    -0.058    21.606     6.616
    36   6 C        2.968    -0.013    28.343     8.732
    37   6 C        2.927    -0.042    29.032     8.836
    38   6 C        2.918    -0.039    28.969     8.826
    39   6 C        2.920    -0.033    28.812     8.802
    40   6 C        2.919    -0.054    29.345     8.883
    41   6 C        2.880     0.132    25.120     8.217
    42   8 O        1.710    -0.255    18.228     5.764
    43   1 H        0.924     0.044     2.394     2.420
    44   1 H        0.925     0.065     2.145     2.290
    45   1 H        0.924     0.044     2.395     2.420
    46   1 H        0.926     0.043     2.408     2.427
    47   1 H        0.926     0.034     2.535     2.490
    48   1 H        0.926     0.041     2.437     2.441
    49   1 H        0.926     0.032     2.559     2.502
    50   1 H        0.926     0.030     2.581     2.512
    51   1 H        0.926     0.032     2.557     2.501
    52   1 H        0.926     0.029     2.607     2.525
    53   1 H        0.926     0.062     2.181     2.309
    54   1 H        0.926     0.057     2.229     2.335
    55   1 H        0.926     0.029     2.601     2.522
    56   1 H        0.926     0.032     2.560     2.502
    57   1 H        0.926     0.029     2.596     2.519
    58   1 H        0.926     0.031     2.577     2.510
    59   1 H        0.926     0.031     2.572     2.508
    60   1 H        0.926     0.029     2.600     2.521
    61   1 H        0.926     0.029     2.599     2.521
    62   1 H        0.926     0.024     2.673     2.556
    63   1 H        0.924     0.062     2.179     2.309
    64   1 H        0.924     0.061     2.183     2.311
    65   1 H        0.926     0.044     2.402     2.424
    66   1 H        0.926     0.042     2.425     2.435
    67   1 H        0.926     0.043     2.407     2.426
    68   1 H        0.926     0.048     2.349     2.397

molecular dipole:
                 x           y           z       tot (Debye)
 q only:       -1.000       0.174      -0.201
   full:       -0.971       0.112      -0.236       2.557

 projected vibrational frequencies (cm⁻¹)
eigval :       -0.00    -0.00     0.00     0.00     0.00     0.00
eigval :       15.94    18.61    23.52    36.71    43.23    48.46
eigval :       54.45    72.36    89.03    94.93   105.65   115.41
eigval :      143.00   148.74   158.66   161.79   165.73   174.01
eigval :      190.21   193.37   211.62   241.07   255.53   260.98
eigval :      273.66   275.69   281.20   289.25   331.91   371.99
eigval :      377.90   392.46   398.36   400.38   406.26   419.06
eigval :      423.18   430.03   433.08   438.22   467.41   473.91
eigval :      486.35   499.88   503.92   517.96   527.88   528.99
eigval :      542.05   546.44   551.66   560.88   582.35   584.42
eigval :      590.94   599.84   611.70   624.71   654.02   660.72
eigval :      668.83   672.99   683.80   685.63   703.32   707.23
eigval :      715.17   732.61   755.38   758.05   768.93   773.92
eigval :      779.95   781.14   806.00   840.85   845.58   850.96
eigval :      852.35   862.42   868.47   870.66   873.26   876.10
eigval :      877.91   890.65   897.85   898.87   901.89   904.25
eigval :      908.11   912.42   921.39   922.34   922.88   923.43
eigval :      926.10   947.48   962.57  1011.90  1022.00  1054.52
eigval :     1067.83  1070.64  1071.71  1074.82  1085.95  1114.47
eigval :     1118.06  1118.43  1142.16  1143.58  1150.29  1153.30
eigval :     1166.22  1167.48  1172.47  1175.13  1179.42  1179.92
eigval :     1181.52  1181.98  1195.24  1215.66  1220.30  1233.58
eigval :     1235.35  1238.67  1242.36  1245.13  1261.49  1278.03
eigval :     1298.35  1299.10  1304.94  1315.77  1318.57  1325.77
eigval :     1345.33  1354.66  1357.92  1362.33  1362.73  1388.21
eigval :     1395.21  1412.74  1423.76  1427.70  1433.10  1435.54
eigval :     1440.95  1448.58  1465.24  1473.35  1475.03  1478.59
eigval :     1480.03  1487.49  1489.53  1495.03  1555.85  1572.09
eigval :     1574.37  1584.65  1586.56  1589.79  1590.65  1598.60
eigval :     1601.32  1603.76  1614.32  1618.02  2905.30  2928.31
eigval :     2936.65  2942.35  3022.22  3071.42  3071.78  3072.40
eigval :     3076.34  3077.31  3077.37  3078.12  3083.33  3083.47
eigval :     3084.77  3086.25  3091.22  3091.57  3092.34  3094.23
eigval :     3094.82  3095.00  3103.30  3106.52  3109.10  3111.29

   temp. (K)  partition function   enthalpy   heat capacity  entropy
                                   cal/mol     cal/K/mol   cal/K/mol   J/K/mol
 298.15  VIB  0.203E+14            18675.037    122.421    113.366
         ROT  0.426E+08              888.752      2.981     37.892
         INT  0.864E+21            19563.790    125.402    151.257
         TR   0.122E+29             1481.254      4.968     44.739
         TOT                       21045.0438   130.3705   195.9961   820.0476

       T/K    H(0)-H(T)+PV         H(T)/Eh          T*S/Eh         G(T)/Eh
   ------------------------------------------------------------------------
    298.15    0.335374E-01    0.554498E+00    0.931241E-01    0.461374E+00
   ------------------------------------------------------------------------

         :::::::::::::::::::::::::::::::::::::::::::::::::::::
         ::                  THERMODYNAMIC                  ::
         :::::::::::::::::::::::::::::::::::::::::::::::::::::
         :: total free energy        -108.293774203827 Eh   ::
         ::.................................................::
         :: total energy             -108.755148392406 Eh   ::
         :: zero point energy           0.520960841242 Eh   ::
         :: G(RRHO) w/o ZPVE           -0.059586652663 Eh   ::
         :: G(RRHO) contrib.            0.461374188580 Eh   ::
         :::::::::::::::::::::::::::::::::::::::::::::::::::::

           -------------------------------------------------
          | TOTAL ENERGY             -108.755148392406 Eh   |
          | TOTAL ENTHALPY           -108.200650139196 Eh   |
          | TOTAL FREE ENERGY        -108.293774203827 Eh   |
          | GRADIENT NORM               0.000034344411 Eh/α |
          | HOMO-LUMO GAP               2.924992000926 eV   |
           -------------------------------------------------

 * finished run on 2025/09/11 at 03:38:27.543
