   * xtb version 6.7.1 (edcfbbe) compiled by 'albert@albert-system' on 2024-07-22

   ID    Z sym.   atoms
    1    6 C      1, 3-14, 16-21, 23-41
    2    8 O      2, 42
    3    7 N      15, 22
    4    1 H      43-68

          program call               : xtb data2507/toluene/C-O/C-O_toluene_S0_crest.xyz --gfn 2 --gbsa toluene --ohess vtight --parallel 40 --molden --ceasefiles --namespace data2507/toluene/C-O/C-O_toluene_S0_finalOpt
      * Solvation model:               GBSA
        Solvent                        toluene
        Solvent mass                       9.2140E+01 g/mol
          :  Hamiltonian                  GFN2-xTB          :
 * total energy  :  -108.7545873 Eh     change       -0.1004238E-08 Eh
 * total energy  :  -108.7546668 Eh     change       -0.7956712E-04 Eh
 * total energy  :  -108.7547686 Eh     change       -0.1017813E-03 Eh
 * total energy  :  -108.7548256 Eh     change       -0.5699691E-04 Eh
 * total energy  :  -108.7549059 Eh     change       -0.8025892E-04 Eh
 * total energy  :  -108.7550280 Eh     change       -0.1220708E-03 Eh
 * total energy  :  -108.7551292 Eh     change       -0.1012479E-03 Eh
 * total energy  :  -108.7552020 Eh     change       -0.7281705E-04 Eh
 * total energy  :  -108.7552295 Eh     change       -0.2745249E-04 Eh
 * total energy  :  -108.7552804 Eh     change       -0.5090499E-04 Eh
 * total energy  :  -108.7553258 Eh     change       -0.2254353E-06 Eh
 * total energy  :  -108.7553261 Eh     change       -0.2644214E-06 Eh
 * total energy  :  -108.7553263 Eh     change       -0.2734484E-06 Eh
 * total energy  :  -108.7553266 Eh     change       -0.2119471E-06 Eh
 * total energy  :  -108.7553267 Eh     change       -0.1595331E-06 Eh
 * total energy  :  -108.7553269 Eh     change       -0.1688481E-06 Eh
 * total energy  :  -108.7553271 Eh     change       -0.1929249E-06 Eh
 * total energy  :  -108.7553272 Eh     change       -0.1456947E-06 Eh
 * total energy  :  -108.7553273 Eh     change       -0.7999795E-07 Eh
   *** GEOMETRY OPTIMIZATION CONVERGED AFTER 42 ITERATIONS ***

 final structure:
================
68
 xtb: 6.7.1 (edcfbbe)
C            4.98605398716167        5.30515613338980       -0.07913678997954
O            3.63921712126745        5.21583274073880       -0.48553845309429
C            2.93445188491343        4.08632607745803       -0.15970484454216
C            1.60258247616788        4.07454552998839       -0.60274259706822
C            0.76436068156527        3.01055221740604       -0.35111654053158
C            1.27156726957805        1.93537605162990        0.36555001101988
C            2.61148950397380        1.92976570328418        0.80350695741044
C            3.44889360369653        3.00983230959842        0.54350235224895
C            2.81677539691500        0.67947350888064        1.47872078465438
C            3.90347535048873        0.10615643931399        2.12672645450970
C            3.74552346660083       -1.13195600976553        2.71694231361846
C            2.51492785460285       -1.78507027054294        2.69429290541263
C            1.42019828603861       -1.23508451931010        2.05662276695764
C            1.58706164709960       -0.01513262624281        1.41771695956789
N            0.66358342616634        0.74644974656568        0.73167978556744
C           -0.61384846934273        0.32945398396453        0.33315352579185
C           -1.71703872861830        1.11807693419238        0.62558990890784
C           -2.99708034889971        0.72488575284536        0.25192129309983
C           -3.19513088826577       -0.47971897709269       -0.42065922064024
C           -2.08775554994706       -1.25649639104235       -0.72075027936794
C           -0.79983193195127       -0.87401884760819       -0.36773562222017
N            0.29005093675067       -1.68781995495646       -0.71483406109431
C            1.43062239039145       -1.27177523297668       -1.37209517043831
C            1.68756822027755       -0.06690072419501       -2.00885684981392
C            2.92002316523445        0.09334062647566       -2.61200248203356
C            3.87074291807696       -0.92491469866910       -2.60209360879193
C            3.60149221065475       -2.14331336515154       -2.01021827826247
C            2.36947587837811       -2.32760481229978       -1.39667190330840
C            1.75083270312707       -3.43842145911293       -0.72833104656092
C            2.16509456066578       -4.73159605026782       -0.43651535192573
C            1.30249519262537       -5.56597191526899        0.24684275655594
C            0.04347261919167       -5.12309436635222        0.64669744757767
C           -0.39073449702769       -3.84074112849193        0.36895632235624
C            0.46696199480784       -3.00266267619645       -0.32889101040386
C           -4.57257693129696       -0.92255497959417       -0.82756743009697
C           -5.63425493323427        0.04767637861467       -0.38550661687829
C           -6.97497060307829       -0.20843056892475       -0.64167413783279
C           -7.96259639706049        0.67495143572126       -0.24618617304370
C           -7.61687282228814        1.84000448835182        0.41975897425649
C           -6.28957456282278        2.11335982728275        0.68601956539187
C           -5.30060164260627        1.22046144000515        0.28465219615072
O           -4.00957478813929        1.57235651850761        0.59141716693392
H            5.59163591214728        4.50961332526177       -0.52483838480120
H            5.33605503867981        6.27136639795109       -0.43933968585737
H            5.07795442875500        5.26819128107200        1.01101750564847
H            1.25116994645275        4.93281960337799       -1.15407434064334
H           -0.25307513905119        3.01865853127987       -0.71148840743003
H            4.47005771390579        2.98533348093223        0.88686131709324
H            4.85009382991439        0.62368968837625        2.17087159760137
H            4.58026013034764       -1.59734721310869        3.22021432616603
H            2.41226138064500       -2.74058042053439        3.18750264687566
H            0.46519551485906       -1.73750496659694        2.06676125462036
H           -1.59382095145455        2.04161517914092        1.16914214182189
H           -2.22422614339698       -2.17868928871644       -1.26622193972401
H            0.94977338184751        0.72008312205477       -2.04226141148917
H            3.14754255256270        1.02802058650848       -3.10366004007443
H            4.82550666830126       -0.76013390199045       -3.07977547343474
H            4.32954336308719       -2.94057077445755       -2.02691387482025
H            3.14442589522016       -5.07276783766535       -0.73718086570704
H            1.60588080157761       -6.57572848184892        0.48181190218790
H           -0.60634317320516       -5.79567274582908        1.18770138220102
H           -1.36289612294757       -3.50158607639624        0.69507253369351
H           -4.78055835625855       -1.91152152254162       -0.40338600990628
H           -4.61155003497868       -1.03530391594953       -1.91752784804948
H           -7.23959768036882       -1.11793925017434       -1.16149233540489
H           -8.99840124925266        0.45625304827853       -0.45664098884691
H           -8.37998501713111        2.53627189181635        0.73283484237843
H           -5.99209923339654        3.01208982031128        1.20382103134145

          :  Hamiltonian                  GFN2-xTB          :
         :: gradient norm              0.000036634031 Eh/a0 ::
         :: HOMO-LUMO gap              2.917932841114 eV    ::
         :: SCC energy              -110.653117841000 Eh    ::
         :: -> dispersion             -0.102556979651 Eh    ::
         :: -> Gsolv                  -0.041471042492 Eh    ::
         :: repulsion energy           1.897790534625 Eh    ::

    * Orbital Energies and Occupations

         #    Occupation            Energy/Eh            Energy/eV
      -------------------------------------------------------------
         1        2.0000           -0.7347828             -19.9945
       ...           ...                  ...                  ...
        88        2.0000           -0.4210237             -11.4566
        89        2.0000           -0.4196923             -11.4204
        90        2.0000           -0.4186617             -11.3924
        91        2.0000           -0.4175318             -11.3616
        92        2.0000           -0.4153192             -11.3014
        93        2.0000           -0.4050897             -11.0231
        94        2.0000           -0.4045943             -11.0096
        95        2.0000           -0.3967688             -10.7966
        96        2.0000           -0.3808120             -10.3624
        97        2.0000           -0.3794316             -10.3249
        98        2.0000           -0.3763835             -10.2419
        99        2.0000           -0.3629899              -9.8775
       100        2.0000           -0.3578603              -9.7379 (HOMO)
       101                         -0.2506283              -6.8199 (LUMO)
       102                         -0.2470022              -6.7213
       103                         -0.2419854              -6.5848
       104                         -0.2411822              -6.5629
       105                         -0.2299627              -6.2576
       106                         -0.2241871              -6.1004
       107                         -0.2175749              -5.9205
       108                         -0.2141556              -5.8275
       109                         -0.1933504              -5.2613
       110                         -0.1890635              -5.1447
       111                         -0.1866129              -5.0780
       ...                                ...                  ...
       194                          0.7457252              20.2922
      -------------------------------------------------------------
                  HL-Gap            0.1072320 Eh            2.9179 eV

     #   Z          covCN         q      C6AA      α(0)
     1   6 C        3.642     0.038    20.287     6.476
     2   8 O        1.705    -0.296    18.923     5.873
     3   6 C        2.864     0.131    25.138     8.218
     4   6 C        2.925    -0.058    29.441     8.898
     5   6 C        2.909    -0.050    29.247     8.868
     6   6 C        3.077     0.040    27.016     8.522
     7   6 C        3.069    -0.018    28.381     8.735
     8   6 C        2.911    -0.072    29.800     8.951
     9   6 C        3.069    -0.019    28.402     8.738
    10   6 C        2.913    -0.035    28.867     8.810
    11   6 C        2.920    -0.042    29.049     8.838
    12   6 C        2.924    -0.034    28.853     8.809
    13   6 C        2.910    -0.050    29.234     8.866
    14   6 C        3.078     0.051    26.784     8.485
    15   7 N        2.801    -0.044    22.094     6.981
    16   6 C        2.912     0.051    26.855     8.498
    17   6 C        2.922    -0.071    29.774     8.948
    18   6 C        2.878     0.134    25.062     8.207
    19   6 C        2.967    -0.015    28.378     8.738
    20   6 C        2.929    -0.057    29.410     8.894
    21   6 C        2.910     0.042    27.049     8.528
    22   7 N        2.801    -0.046    22.123     6.986
    23   6 C        3.078     0.050    26.791     8.486
    24   6 C        2.910    -0.050    29.247     8.868
    25   6 C        2.924    -0.035    28.862     8.810
    26   6 C        2.920    -0.042    29.049     8.838
    27   6 C        2.913    -0.035    28.872     8.811
    28   6 C        3.068    -0.019    28.410     8.740
    29   6 C        3.068    -0.018    28.377     8.735
    30   6 C        2.913    -0.034    28.847     8.807
    31   6 C        2.920    -0.042    29.052     8.839
    32   6 C        2.924    -0.035    28.868     8.811
    33   6 C        2.910    -0.052    29.298     8.876
    34   6 C        3.076     0.049    26.818     8.490
    35   6 C        3.813    -0.058    21.605     6.616
    36   6 C        2.968    -0.013    28.343     8.733
    37   6 C        2.927    -0.042    29.033     8.836
    38   6 C        2.918    -0.039    28.969     8.826
    39   6 C        2.920    -0.033    28.812     8.802
    40   6 C        2.919    -0.054    29.345     8.883
    41   6 C        2.880     0.132    25.120     8.217
    42   8 O        1.710    -0.255    18.228     5.764
    43   1 H        0.924     0.044     2.398     2.422
    44   1 H        0.925     0.064     2.149     2.293
    45   1 H        0.924     0.044     2.397     2.421
    46   1 H        0.926     0.045     2.381     2.413
    47   1 H        0.926     0.037     2.486     2.466
    48   1 H        0.926     0.041     2.439     2.442
    49   1 H        0.926     0.032     2.554     2.499
    50   1 H        0.926     0.030     2.581     2.512
    51   1 H        0.926     0.030     2.584     2.514
    52   1 H        0.926     0.025     2.653     2.547
    53   1 H        0.926     0.062     2.180     2.309
    54   1 H        0.926     0.057     2.229     2.335
    55   1 H        0.926     0.024     2.676     2.558
    56   1 H        0.926     0.028     2.616     2.529
    57   1 H        0.926     0.029     2.600     2.522
    58   1 H        0.926     0.032     2.561     2.503
    59   1 H        0.926     0.031     2.571     2.508
    60   1 H        0.926     0.029     2.596     2.520
    61   1 H        0.926     0.032     2.564     2.504
    62   1 H        0.926     0.029     2.607     2.525
    63   1 H        0.924     0.061     2.185     2.311
    64   1 H        0.924     0.062     2.178     2.308
    65   1 H        0.926     0.044     2.402     2.424
    66   1 H        0.926     0.042     2.425     2.435
    67   1 H        0.926     0.043     2.407     2.426
    68   1 H        0.926     0.048     2.349     2.397

molecular dipole:
                 x           y           z       tot (Debye)
 q only:       -0.919      -0.418      -0.099
   full:       -0.863      -0.445      -0.071       2.474

 projected vibrational frequencies (cm⁻¹)
eigval :       -0.00    -0.00    -0.00     0.00     0.00     0.00
eigval :       15.07    20.40    29.03    37.67    41.73    44.45
eigval :       55.57    69.68    88.05   104.92   109.51   121.55
eigval :      133.03   149.99   155.12   161.80   171.19   179.30
eigval :      190.16   193.49   212.56   239.93   255.85   261.64
eigval :      275.47   278.66   281.90   291.41   329.12   365.87
eigval :      381.62   396.50   398.40   402.79   406.84   418.76
eigval :      424.21   427.45   437.17   441.75   461.40   480.97
eigval :      484.27   498.48   506.54   518.23   527.90   528.84
eigval :      542.94   545.54   550.79   561.97   586.22   587.42
eigval :      593.41   601.42   615.67   628.69   638.54   662.77
eigval :      670.69   673.72   680.02   697.87   704.33   708.60
eigval :      717.26   729.85   755.84   758.28   770.69   776.74
eigval :      778.19   782.79   800.76   840.75   842.89   844.27
eigval :      856.51   864.17   869.47   872.18   874.57   875.05
eigval :      877.75   887.47   897.90   902.16   902.81   903.59
eigval :      905.25   910.05   923.09   923.53   924.56   925.10
eigval :      925.79   946.05   962.14  1011.85  1021.73  1054.69
eigval :     1069.06  1069.99  1071.97  1074.92  1086.50  1114.09
eigval :     1117.65  1118.97  1141.44  1144.20  1150.73  1152.95
eigval :     1166.25  1167.67  1170.87  1173.94  1179.79  1180.04
eigval :     1180.79  1181.32  1195.22  1215.49  1220.49  1232.87
eigval :     1235.46  1239.56  1242.82  1245.16  1260.71  1280.74
eigval :     1297.75  1298.75  1303.56  1315.18  1318.09  1326.95
eigval :     1346.73  1353.86  1357.98  1362.05  1362.67  1388.14
eigval :     1395.12  1412.68  1422.30  1428.27  1433.86  1434.85
eigval :     1440.70  1447.93  1464.54  1473.92  1474.48  1479.28
eigval :     1480.07  1487.57  1489.88  1494.66  1555.77  1571.04
eigval :     1574.39  1585.67  1586.76  1589.75  1590.37  1598.74
eigval :     1602.25  1603.58  1614.47  1617.17  2904.90  2928.62
eigval :     2936.46  2942.38  3022.38  3071.26  3072.24  3073.22
eigval :     3075.81  3077.52  3078.27  3079.19  3082.61  3084.53
eigval :     3085.65  3086.90  3087.34  3090.92  3091.37  3094.40
eigval :     3094.79  3095.74  3102.11  3103.02  3109.83  3111.42

   temp. (K)  partition function   enthalpy   heat capacity  entropy
                                   cal/mol     cal/K/mol   cal/K/mol   J/K/mol
 298.15  VIB  0.155E+14            18637.654    122.328    112.893
         ROT  0.454E+08              888.752      2.981     38.019
         INT  0.704E+21            19526.406    125.309    150.911
         TR   0.122E+29             1481.254      4.968     44.739
         TOT                       21007.6599   130.2769   195.6503   818.6006

       T/K    H(0)-H(T)+PV         H(T)/Eh          T*S/Eh         G(T)/Eh
   ------------------------------------------------------------------------
    298.15    0.334778E-01    0.554538E+00    0.929597E-01    0.461578E+00
   ------------------------------------------------------------------------

         :::::::::::::::::::::::::::::::::::::::::::::::::::::
         ::                  THERMODYNAMIC                  ::
         :::::::::::::::::::::::::::::::::::::::::::::::::::::
         :: total free energy        -108.293749163679 Eh   ::
         ::.................................................::
         :: total energy             -108.755327306875 Eh   ::
         :: zero point energy           0.521060053416 Eh   ::
         :: G(RRHO) w/o ZPVE           -0.059481910220 Eh   ::
         :: G(RRHO) contrib.            0.461578143196 Eh   ::
         :::::::::::::::::::::::::::::::::::::::::::::::::::::

           -------------------------------------------------
          | TOTAL ENERGY             -108.755327306875 Eh   |
          | TOTAL ENTHALPY           -108.200789416407 Eh   |
          | TOTAL FREE ENERGY        -108.293749163679 Eh   |
          | GRADIENT NORM               0.000036586774 Eh/α |
          | HOMO-LUMO GAP               2.917932433608 eV   |
           -------------------------------------------------

 * finished run on 2025/09/11 at 03:42:06.622
