   * xtb version 6.7.1 (edcfbbe) compiled by 'albert@albert-system' on 2024-07-22

   ID    Z sym.   atoms
    1    6 C      1, 3-14, 16-21, 23-41
    2    8 O      2, 42
    3    7 N      15, 22
    4    1 H      43-68

          program call               : xtb data2507/toluene/C-O/C-O_toluene_S0_finalOpt.xtbopt.xyz --gfn 2 --uhf 2 --gbsa toluene --ohess vtight --parallel 40 --molden --ceasefiles --namespace data2507/toluene/C-O/C-O_toluene_T1_preOpt
      * Solvation model:               GBSA
        Solvent                        toluene
        Solvent mass                       9.2140E+01 g/mol
          :  Hamiltonian                  GFN2-xTB          :
 * total energy  :  -108.6454410 Eh     change        0.5632472E-09 Eh
 * total energy  :  -108.6476859 Eh     change       -0.2244858E-02 Eh
 * total energy  :  -108.6485684 Eh     change       -0.8824767E-03 Eh
 * total energy  :  -108.6487182 Eh     change       -0.1497967E-03 Eh
 * total energy  :  -108.6488641 Eh     change       -0.1459625E-03 Eh
 * total energy  :  -108.6489261 Eh     change       -0.6197153E-04 Eh
 * total energy  :  -108.6489893 Eh     change       -0.6314997E-04 Eh
 * total energy  :  -108.6490317 Eh     change       -0.4244435E-04 Eh
 * total energy  :  -108.6490586 Eh     change       -0.2691693E-04 Eh
 * total energy  :  -108.6490781 Eh     change       -0.1949518E-04 Eh
 * total energy  :  -108.6491463 Eh     change       -0.1268075E-05 Eh
 * total energy  :  -108.6491474 Eh     change       -0.1052675E-05 Eh
 * total energy  :  -108.6491482 Eh     change       -0.8580395E-06 Eh
 * total energy  :  -108.6491488 Eh     change       -0.5249996E-06 Eh
 * total energy  :  -108.6491489 Eh     change       -0.1600783E-06 Eh
 * total energy  :  -108.6491491 Eh     change       -0.1965509E-06 Eh
 * total energy  :  -108.6491490 Eh     change        0.9932339E-07 Eh
 * total energy  :  -108.6491492 Eh     change       -0.1647228E-06 Eh
 * total energy  :  -108.6491492 Eh     change       -0.4821202E-07 Eh
   *** GEOMETRY OPTIMIZATION CONVERGED AFTER 26 ITERATIONS ***

 final structure:
================
68
 xtb: 6.7.1 (edcfbbe)
C            5.00990957199428        5.33882267985872       -0.02571856118687
O            3.66494390843598        5.24159837230023       -0.44237285445432
C            2.95969657985042        4.12081017902364       -0.14095660420277
C            1.62334789453983        4.12905130338083       -0.60204221325929
C            0.77573464481397        3.06404516222554       -0.36099764513662
C            1.26814136384548        1.97515425349956        0.34331715084187
C            2.62731113467171        1.94013835398980        0.78581077512605
C            3.46905387118134        3.02912885282161        0.54798480073154
C            2.82580222372380        0.67893440991904        1.40988252149323
C            3.91239314556507        0.07033765262965        2.04307977709770
C            3.73111430165753       -1.16874968350870        2.62850336188826
C            2.48944255126930       -1.79818830260237        2.62362441311454
C            1.39535260286527       -1.21639483804655        1.98551696579997
C            1.58559676819045       -0.01214194599097        1.34221191285541
N            0.66072110363844        0.78153775145233        0.66339913357401
C           -0.60401948674757        0.37865771543913        0.26894856834064
C           -1.70997080060769        1.19867996581615        0.47909571561768
C           -2.98765995299355        0.77417709133727        0.17045814936993
C           -3.20454221706066       -0.51832783560495       -0.39035981385039
C           -2.10851326411626       -1.32232888818475       -0.61996962053688
C           -0.80816371128645       -0.91420083174948       -0.33409684623545
N            0.27300225881476       -1.70951625259893       -0.68570902066782
C            1.43183908082864       -1.27304919366730       -1.31204924776066
C            1.68397645233804       -0.07036454418429       -1.95009246368234
C            2.92818358732909        0.10733046307831       -2.53427393072369
C            3.89029894261990       -0.90075075255039       -2.50255490451137
C            3.62167209353003       -2.12650523165422       -1.92486891708513
C            2.37618763719803       -2.33027412700277       -1.33866028449563
C            1.74815475393193       -3.45632452842866       -0.72009145022072
C            2.16402259600520       -4.75620173407336       -0.44647082308184
C            1.29605474053068       -5.60739656899680        0.20909660299717
C            0.02944985306031       -5.17998074590737        0.60723225440168
C           -0.40981856477837       -3.89284032028998        0.34018360001644
C            0.44586816443367       -3.03941344819989       -0.33768346450023
C           -4.58702943532099       -0.96211067080955       -0.75772690668466
C           -5.64371631091510        0.02242290480533       -0.34688176979607
C           -6.98892217221131       -0.25911792764210       -0.53788864599020
C           -7.97130504348135        0.64381460945518       -0.17318701600285
C           -7.61312586435846        1.86036867487692        0.39631039951475
C           -6.28404647469192        2.16243818834022        0.59728235453313
C           -5.29520192900312        1.24854585441630        0.22701010707711
O           -4.00515780593403        1.63066132386230        0.45304799423272
H            5.62331341282255        4.55378393343260       -0.47772085960079
H            5.35307578944727        6.31272563136544       -0.37111193213074
H            5.09349282706310        5.28692894017580        1.06378915623445
H            1.28568070850513        4.99345993599140       -1.14963966552835
H           -0.23748596330514        3.08620938682867       -0.73063994266324
H            4.49005199493320        2.99393828533396        0.88938802259153
H            4.87155378890419        0.56422060801326        2.07746033988954
H            4.56337591532156       -1.65337984890765        3.11868592503323
H            2.36601554751361       -2.74844874624650        3.11993966059549
H            0.43012407760496       -1.69884928035142        2.01132135789416
H           -1.58474609042885        2.16269502449442        0.94666155003100
H           -2.25585725472682       -2.28362688650604       -1.09005383907276
H            0.93556188112164        0.70524163429425       -2.00920949329730
H            3.14987693061765        1.04228150628774       -3.02674486333274
H            4.85383180013867       -0.72366203202053       -2.95802635162531
H            4.35746380640081       -2.91649966869177       -1.93284494579111
H            3.15061167994297       -5.08514614801470       -0.73607928243576
H            1.60277529529537       -6.61982832543985        0.42871414134509
H           -0.61974381757130       -5.86202605540664        1.13573150638704
H           -1.38595374426757       -3.56858289035287        0.66782908503761
H           -4.79629295517953       -1.93613461009593       -0.30033410939833
H           -4.64433306443991       -1.11602769737746       -1.84317830449715
H           -7.26374056079186       -1.20542248400991       -0.98154808196608
H           -9.01165630039946        0.40386450883808       -0.33027985505996
H           -8.37395433493339        2.57034894782541        0.68321882822677
H           -5.97777818141991        3.09884127806320        1.03756463484439

          :  Hamiltonian                  GFN2-xTB          :
         :: gradient norm              0.000044302016 Eh/a0 ::
         :: HOMO-LUMO gap              0.151334080081 eV    ::
         :: SCC energy              -110.525168152799 Eh    ::
         :: -> dispersion             -0.103299940812 Eh    ::
         :: -> Gsolv                  -0.041061334736 Eh    ::
         :: repulsion energy           1.876018922329 Eh    ::

    * Orbital Energies and Occupations

         #    Occupation            Energy/Eh            Energy/eV
      -------------------------------------------------------------
         1        2.0000           -0.7354062             -20.0114
       ...           ...                  ...                  ...
        89        2.0000           -0.4182749             -11.3818
        90        2.0000           -0.4179360             -11.3726
        91        2.0000           -0.4165017             -11.3336
        92        2.0000           -0.4098402             -11.1523
        93        2.0000           -0.4048962             -11.0178
        94        2.0000           -0.4029804             -10.9657
        95        2.0000           -0.3961407             -10.7795
        96        2.0000           -0.3789946             -10.3130
        97        2.0000           -0.3775850             -10.2746
        98        2.0000           -0.3731926             -10.1551
        99        1.9796           -0.3638007              -9.8995
       100        1.0204           -0.3564442              -9.6993
       101        0.9491           -0.2526232              -6.8742 (HOMO)
       102        0.0508           -0.2470616              -6.7229 (LUMO)
       103        0.0001           -0.2406545              -6.5485
       104        0.0000           -0.2347138              -6.3869
       105                         -0.2276853              -6.1956
       106                         -0.2246459              -6.1129
       107                         -0.2171100              -5.9079
       108                         -0.2138317              -5.8187
       109                         -0.1930957              -5.2544
       110                         -0.1881630              -5.1202
       111                         -0.1860384              -5.0624
       112                         -0.1851646              -5.0386
       ...                                ...                  ...
       194                          0.7446402              20.2627
      -------------------------------------------------------------
                  HL-Gap            0.0055616 Eh            0.1513 eV

     #   Z          covCN         q      C6AA      α(0)
     1   6 C        3.642     0.032    20.387     6.492
     2   8 O        1.705    -0.268    18.448     5.799
     3   6 C        2.862     0.144    24.867     8.174
     4   6 C        2.920    -0.072    29.798     8.952
     5   6 C        2.906    -0.047    29.178     8.857
     6   6 C        3.061     0.039    27.069     8.532
     7   6 C        3.063    -0.018    28.400     8.739
     8   6 C        2.906    -0.079    29.969     8.976
     9   6 C        3.057    -0.025    28.577     8.767
    10   6 C        2.911    -0.040    28.997     8.830
    11   6 C        2.917    -0.036    28.894     8.815
    12   6 C        2.921    -0.048    29.201     8.862
    13   6 C        2.909    -0.043    29.058     8.839
    14   6 C        3.069     0.040    27.024     8.524
    15   7 N        2.795    -0.008    21.411     6.872
    16   6 C        2.908     0.031    27.313     8.570
    17   6 C        2.913    -0.073    29.824     8.955
    18   6 C        2.872     0.123    25.287     8.243
    19   6 C        2.963    -0.022    28.554     8.765
    20   6 C        2.920    -0.058    29.437     8.897
    21   6 C        2.905     0.033    27.274     8.563
    22   7 N        2.796    -0.021    21.661     6.912
    23   6 C        3.070     0.045    26.930     8.509
    24   6 C        2.909    -0.045    29.125     8.849
    25   6 C        2.922    -0.042    29.031     8.836
    26   6 C        2.919    -0.038    28.943     8.822
    27   6 C        2.912    -0.037    28.910     8.817
    28   6 C        3.061    -0.021    28.460     8.748
    29   6 C        3.063    -0.017    28.371     8.734
    30   6 C        2.911    -0.037    28.914     8.817
    31   6 C        2.918    -0.036    28.903     8.816
    32   6 C        2.922    -0.042    29.045     8.838
    33   6 C        2.909    -0.048    29.193     8.860
    34   6 C        3.067     0.045    26.928     8.509
    35   6 C        3.813    -0.057    21.593     6.614
    36   6 C        2.967    -0.014    28.365     8.736
    37   6 C        2.925    -0.042    29.051     8.839
    38   6 C        2.917    -0.042    29.040     8.837
    39   6 C        2.919    -0.034    28.840     8.807
    40   6 C        2.917    -0.055    29.370     8.887
    41   6 C        2.879     0.129    25.180     8.226
    42   8 O        1.710    -0.240    17.972     5.724
    43   1 H        0.924     0.053     2.284     2.363
    44   1 H        0.925     0.071     2.076     2.253
    45   1 H        0.924     0.053     2.285     2.364
    46   1 H        0.926     0.043     2.407     2.426
    47   1 H        0.926     0.040     2.452     2.449
    48   1 H        0.926     0.041     2.435     2.440
    49   1 H        0.926     0.029     2.607     2.525
    50   1 H        0.926     0.028     2.615     2.529
    51   1 H        0.926     0.024     2.667     2.554
    52   1 H        0.926     0.025     2.664     2.552
    53   1 H        0.926     0.055     2.253     2.347
    54   1 H        0.926     0.052     2.290     2.366
    55   1 H        0.926     0.025     2.660     2.550
    56   1 H        0.926     0.027     2.633     2.538
    57   1 H        0.926     0.029     2.595     2.519
    58   1 H        0.926     0.031     2.575     2.509
    59   1 H        0.926     0.031     2.578     2.511
    60   1 H        0.926     0.030     2.582     2.513
    61   1 H        0.926     0.030     2.581     2.513
    62   1 H        0.926     0.032     2.560     2.502
    63   1 H        0.924     0.065     2.144     2.290
    64   1 H        0.924     0.066     2.127     2.280
    65   1 H        0.926     0.041     2.432     2.439
    66   1 H        0.926     0.039     2.461     2.453
    67   1 H        0.926     0.041     2.438     2.442
    68   1 H        0.926     0.046     2.377     2.411

molecular dipole:
                 x           y           z       tot (Debye)
 q only:       -0.472       0.013      -0.178
   full:       -0.460      -0.018      -0.154       1.234

 projected vibrational frequencies (cm⁻¹)
eigval :       -0.00    -0.00     0.00     0.00     0.00     0.00
eigval :       16.82    19.94    30.12    41.35    44.32    47.16
eigval :       55.73    74.21    88.80   104.67   109.07   123.30
eigval :      135.57   152.32   154.65   157.78   169.41   180.28
eigval :      189.77   197.35   200.38   225.68   244.75   257.15
eigval :      268.42   270.55   282.13   295.23   322.43   354.46
eigval :      372.74   374.56   384.25   390.69   397.89   407.56
eigval :      409.48   416.55   422.11   437.67   461.35   469.58
eigval :      473.92   488.49   490.55   513.18   519.72   522.46
eigval :      528.39   542.09   546.69   555.26   575.07   578.31
eigval :      580.96   587.29   597.42   617.28   628.82   644.46
eigval :      648.07   652.71   661.60   678.54   681.97   695.75
eigval :      700.58   716.96   732.88   751.93   755.01   760.19
eigval :      769.23   770.47   775.06   789.69   817.42   830.77
eigval :      839.26   848.07   855.14   857.43   859.95   862.97
eigval :      869.20   877.36   887.76   889.43   890.97   898.18
eigval :      898.90   901.94   904.72   909.37   912.34   914.39
eigval :      915.75   924.70   932.73  1005.56  1011.07  1026.04
eigval :     1049.57  1064.93  1065.74  1070.31  1076.43  1083.24
eigval :     1102.44  1111.96  1118.10  1134.95  1139.13  1146.55
eigval :     1148.09  1148.71  1156.82  1165.54  1171.77  1173.69
eigval :     1175.03  1179.20  1184.86  1196.63  1198.49  1216.38
eigval :     1222.23  1224.20  1228.38  1231.59  1253.22  1254.84
eigval :     1258.26  1273.34  1287.99  1289.01  1310.78  1324.24
eigval :     1333.76  1336.89  1341.66  1345.90  1351.28  1366.98
eigval :     1372.46  1390.72  1392.25  1401.41  1411.48  1417.47
eigval :     1425.67  1432.92  1437.06  1442.45  1443.43  1454.70
eigval :     1456.72  1461.32  1469.79  1470.13  1474.94  1477.53
eigval :     1494.18  1503.18  1526.25  1530.73  1537.16  1558.15
eigval :     1561.57  1565.61  1568.02  1581.63  2889.48  2928.65
eigval :     2939.69  2951.48  3025.33  3070.37  3071.43  3072.14
eigval :     3074.72  3079.47  3079.98  3082.02  3083.79  3085.14
eigval :     3085.59  3086.49  3088.80  3093.02  3093.72  3093.96
eigval :     3094.37  3096.73  3101.62  3106.93  3113.01  3115.10

   temp. (K)  partition function   enthalpy   heat capacity  entropy
                                   cal/mol     cal/K/mol   cal/K/mol   J/K/mol
 298.15  VIB  0.155E+14            18977.512    125.082    114.645
         ROT  0.455E+08              888.752      2.981     38.022
         INT  0.705E+21            19866.264    128.063    152.668
         TR   0.122E+29             1481.254      4.968     44.739
         TOT                       21347.5180   133.0312   197.4065   825.9489

       T/K    H(0)-H(T)+PV         H(T)/Eh          T*S/Eh         G(T)/Eh
   ------------------------------------------------------------------------
    298.15    0.340194E-01    0.548898E+00    0.937942E-01    0.455104E+00
   ------------------------------------------------------------------------

         :::::::::::::::::::::::::::::::::::::::::::::::::::::
         ::                  THERMODYNAMIC                  ::
         :::::::::::::::::::::::::::::::::::::::::::::::::::::
         :: total free energy        -108.194045067936 Eh   ::
         ::.................................................::
         :: total energy             -108.649149228623 Eh   ::
         :: zero point energy           0.514878939080 Eh   ::
         :: G(RRHO) w/o ZPVE           -0.059774778393 Eh   ::
         :: G(RRHO) contrib.            0.455104160687 Eh   ::
         :::::::::::::::::::::::::::::::::::::::::::::::::::::

           -------------------------------------------------
          | TOTAL ENERGY             -108.649149228623 Eh   |
          | TOTAL ENTHALPY           -108.100250854130 Eh   |
          | TOTAL FREE ENERGY        -108.194045067936 Eh   |
          | GRADIENT NORM               0.000042981507 Eh/α |
          | HOMO-LUMO GAP               0.151338847318 eV   |
           -------------------------------------------------

 * finished run on 2025/09/11 at 03:42:11.738
