   * xtb version 6.7.1 (edcfbbe) compiled by 'albert@albert-system' on 2024-07-22

   ID    Z sym.   atoms
    1    6 C      1-8, 10, 12-17, 19-32, 34-45, 47, 48
    2    7 N      9, 18
    3    8 O      11, 33, 46
    4    1 H      49-82

          program call               : xtb data2507/gas/BFDMAc-NAI/BFDMAc-NAI.xyz --gfn 2 --ohess vtight --parallel 40 --molden --ceasefiles --namespace data2507/gas/BFDMAc-NAI/BFDMAc-NAI_gas_S0_preOpt
          :  Hamiltonian                  GFN2-xTB          :
 * total energy  :  -127.5631999 Eh     change       -0.5050225E-08 Eh
 * total energy  :  -127.5824016 Eh     change       -0.1920175E-01 Eh
 * total energy  :  -127.5885772 Eh     change       -0.6175589E-02 Eh
 * total energy  :  -127.5905146 Eh     change       -0.1937388E-02 Eh
 * total energy  :  -127.5921789 Eh     change       -0.1664262E-02 Eh
 * total energy  :  -127.5932278 Eh     change       -0.1048903E-02 Eh
 * total energy  :  -127.5939598 Eh     change       -0.7320361E-03 Eh
 * total energy  :  -127.5944054 Eh     change       -0.4455652E-03 Eh
 * total energy  :  -127.5946257 Eh     change       -0.2203814E-03 Eh
 * total energy  :  -127.5947792 Eh     change       -0.1534093E-03 Eh
 * total energy  :  -127.5969215 Eh     change       -0.2536976E-05 Eh
 * total energy  :  -127.5969240 Eh     change       -0.2435158E-05 Eh
 * total energy  :  -127.5969259 Eh     change       -0.1960434E-05 Eh
 * total energy  :  -127.5969270 Eh     change       -0.1058785E-05 Eh
 * total energy  :  -127.5969276 Eh     change       -0.6593621E-06 Eh
 * total energy  :  -127.5969279 Eh     change       -0.2864879E-06 Eh
 * total energy  :  -127.5969286 Eh     change       -0.6232144E-06 Eh
 * total energy  :  -127.5969287 Eh     change       -0.1554717E-06 Eh
 * total energy  :  -127.5969287 Eh     change       -0.2418979E-07 Eh
   *** GEOMETRY OPTIMIZATION CONVERGED AFTER 155 ITERATIONS ***

 final structure:
================
82
 xtb: 6.7.1 (edcfbbe)
C            9.15819483820897        1.21494353984298       -0.05245374511224
C            8.58028266325487       -0.17059598273497        0.24819325823424
C            9.20577513394131       -1.17232759093953       -0.73272624978791
C            8.95785164567862       -0.54466691608765        1.68840951365219
C            7.06718330735338       -0.21890024368932        0.10484254470767
C            6.30722655837734        0.88499595513892       -0.26139350308998
C            4.93096480721211        0.80358132980427       -0.38017168458236
C            4.28849359632704       -0.39710986778676       -0.14035686691702
N            2.86286934315799       -0.48784425462694       -0.26912126568995
C            2.34073405810912       -0.31819982191262       -1.54390048834158
O            3.06728861126188       -0.11733291172255       -2.49412535171057
C            0.87452752263758       -0.40783537790959       -1.65955246081608
C            0.27927187854834       -0.24444451721246       -2.89279433424954
C           -1.10805713479620       -0.33702554218220       -3.02384451246961
C           -1.89651617300712       -0.57094537840474       -1.92681119032621
C           -1.32416755536380       -0.72464314006374       -0.64837409323693
C           -2.09878547585027       -0.93096665613330        0.52498466929021
N           -3.50935047712631       -0.90603010768196        0.43570858210479
C           -4.23439142586256       -2.08388132148471        0.56637793523023
C           -3.55997803599426       -3.29231957146132        0.75884865493902
C           -4.25306386254924       -4.47601795664562        0.89799763898538
C           -5.63482668986933       -4.47540999526069        0.83531352726710
C           -6.30099028923502       -3.28535508414374        0.61129360894694
C           -5.62838020318377       -2.07882138522205        0.46664029282280
C           -6.41948869166599       -0.81618654309380        0.17998434879468
C           -7.18387365249055       -1.01259956279488       -1.14233531783131
C           -7.40597200591115       -0.57870675570191        1.33814556480254
C           -5.52472432814940        0.40344681256899        0.05322662412524
C           -6.11469131106701        1.64473119373695       -0.19715622815650
C           -5.39426907711104        2.81422002800918       -0.29369726294619
C           -4.02027172579906        2.74281404909550       -0.10826561273416
C           -3.41168558341670        1.50448223595278        0.14600167264448
O           -2.06037406857270        1.64615912635010        0.32432429757510
C           -1.78832733606708        2.96892620577204        0.17623849803108
C           -0.54297138675610        3.56397822839868        0.26502053787801
C           -0.48448122908749        4.93310161226545        0.07696559995124
C           -1.62966201262839        5.68000056879479       -0.18974052832580
C           -2.87154363668931        5.08247482277036       -0.27879653860988
C           -2.95397765454457        3.70850496026028       -0.09514338781552
C           -4.13868398166616        0.30915955444774        0.20483096877755
C           -1.48549073262581       -1.12610693864861        1.74262707430291
C           -0.09749575845593       -1.08057689372044        1.85377277702232
C            0.68590265093764       -0.83545559659729        0.74422734567844
C            0.08534094271201       -0.65920572641712       -0.51871876083375
C            2.14692774465182       -0.74479860653982        0.89327420031565
O            2.71324539051055       -0.87123839918672        1.95862681387673
C            5.02391156560993       -1.51278017914741        0.22313453691956
C            6.39533511494251       -1.41512978428516        0.34616018987442
H            8.76559524497864        1.96027683880245        0.63524969144528
H           10.23993316400172        1.18869339555651        0.06326106615150
H            8.93745183898924        1.51794536076125       -1.07321595368735
H           10.29099649339250       -1.13633530803499       -0.66356117217911
H            8.91578619238213       -0.92944401495081       -1.75275660551304
H            8.88507578908512       -2.18830161459833       -0.52076527221212
H            8.49502142385181        0.14670429292355        2.38932696958805
H            8.62973783097514       -1.54995301408938        1.93660011655086
H           10.03721960866248       -0.49690860211739        1.81686188897037
H            6.77575471051152        1.83482401829523       -0.45919271655985
H            4.35779136301883        1.67260031448374       -0.66650856351807
H            0.90711600886902       -0.04923356906888       -3.74914009937910
H           -1.55824812406280       -0.21997531176326       -3.99806601992947
H           -2.96912465154296       -0.63987885020580       -2.03523049071756
H           -2.48157021128144       -3.30235533952623        0.79241478015501
H           -3.71110904362198       -5.39704156477444        1.05071514798898
H           -6.18977219258170       -5.39407305787094        0.94707312849866
H           -7.37805602841632       -3.30365301243627        0.54437041901024
H           -7.77410293151530       -0.13373125317994       -1.38535727920184
H           -6.48095983464386       -1.18920231962369       -1.95439968788760
H           -7.85395581026118       -1.86515367276105       -1.07941696888111
H           -8.06941571411227       -1.42969025283216        1.46248122581192
H           -6.85693476991020       -0.43279894925378        2.26634817413795
H           -8.01477108539215        0.30255002688674        1.15822028777614
H           -7.18498043289504        1.69445118507092       -0.32146424272623
H           -5.87827918656756        3.75615710268307       -0.49446452795394
H            0.33703677622545        2.97649292249526        0.47368817394684
H            0.46985740259888        5.43376676057180        0.13859978548393
H           -1.54019583107658        6.74691933446675       -0.32912740437257
H           -3.75734902940711        5.66289739997400       -0.48605793977079
H           -2.09319727582565       -1.29107501074841        2.62020048921935
H            0.38431790470879       -1.21018631099027        2.81113036577683
H            4.52239456928923       -2.44960782998234        0.41336577915343
H            6.94609995374585       -2.29774070798903        0.63312156162966

          :  Hamiltonian                  GFN2-xTB          :
         :: gradient norm              0.000105448577 Eh/a0 ::
         :: HOMO-LUMO gap              1.219353482682 eV    ::
         :: SCC energy              -129.734078438215 Eh    ::
         :: -> dispersion             -0.117275549027 Eh    ::
         :: repulsion energy           2.137149707167 Eh    ::

    * Orbital Energies and Occupations

         #    Occupation            Energy/Eh            Energy/eV
      -------------------------------------------------------------
         1        2.0000           -0.7399639             -20.1354
       ...           ...                  ...                  ...
       105        2.0000           -0.4195761             -11.4172
       106        2.0000           -0.4182801             -11.3820
       107        2.0000           -0.4163636             -11.3298
       108        2.0000           -0.4084739             -11.1151
       109        2.0000           -0.4055611             -11.0359
       110        2.0000           -0.4042592             -11.0005
       111        2.0000           -0.4039952             -10.9933
       112        2.0000           -0.4024382             -10.9509
       113        2.0000           -0.3991452             -10.8613
       114        2.0000           -0.3966080             -10.7923
       115        2.0000           -0.3890084             -10.5855
       116        2.0000           -0.3887745             -10.5791
       117        2.0000           -0.3552325              -9.6664 (HOMO)
       118                         -0.3104220              -8.4470 (LUMO)
       119                         -0.2553238              -6.9477
       120                         -0.2519570              -6.8561
       121                         -0.2499610              -6.8018
       122                         -0.2347575              -6.3881
       123                         -0.2283706              -6.2143
       124                         -0.2260141              -6.1502
       125                         -0.2192489              -5.9661
       126                         -0.2181212              -5.9354
       127                         -0.2165124              -5.8916
       128                         -0.2084896              -5.6733
       ...                                ...                  ...
       226                          0.7379942              20.0818
      -------------------------------------------------------------
                  HL-Gap            0.0448105 Eh            1.2194 eV

     #   Z          covCN         q      C6AA      α(0)
     1   6 C        3.761    -0.109    22.634     6.782
     2   6 C        3.903     0.026    20.078     6.369
     3   6 C        3.762    -0.107    22.589     6.775
     4   6 C        3.762    -0.107    22.590     6.775
     5   6 C        2.973     0.012    27.734     8.638
     6   6 C        2.927    -0.036    28.890     8.815
     7   6 C        2.920    -0.029    28.728     8.789
     8   6 C        2.938     0.082    26.182     8.392
     9   7 N        2.746    -0.103    23.256     7.162
    10   6 C        2.775     0.274    22.367     7.746
    11   8 O        0.859    -0.404    21.758     6.254
    12   6 C        2.977    -0.023    28.580     8.769
    13   6 C        2.922    -0.011    28.300     8.724
    14   6 C        2.915    -0.025    28.639     8.776
    15   6 C        2.918    -0.019    28.478     8.751
    16   6 C        2.985     0.014    27.683     8.631
    17   6 C        2.926     0.079    26.242     8.401
    18   7 N        2.752    -0.060    22.399     7.029
    19   6 C        2.928     0.057    26.723     8.478
    20   6 C        2.924    -0.057    29.419     8.895
    21   6 C        2.920    -0.031    28.784     8.798
    22   6 C        2.917    -0.042    29.053     8.839
    23   6 C        2.928    -0.035    28.878     8.813
    24   6 C        2.979    -0.013    28.323     8.730
    25   6 C        3.909     0.023    20.130     6.377
    26   6 C        3.761    -0.105    22.547     6.769
    27   6 C        3.761    -0.106    22.564     6.772
    28   6 C        2.983    -0.018    28.451     8.750
    29   6 C        2.928    -0.045    29.123     8.850
    30   6 C        2.910    -0.049    29.205     8.861
    31   6 C        3.059    -0.022    28.490     8.753
    32   6 C        3.088     0.104    25.614     8.296
    33   8 O        1.715    -0.239    17.961     5.722
    34   6 C        3.094     0.129    25.075     8.207
    35   6 C        2.908    -0.052    29.281     8.873
    36   6 C        2.927    -0.031    28.783     8.798
    37   6 C        2.921    -0.038    28.953     8.824
    38   6 C        2.913    -0.033    28.829     8.804
    39   6 C        3.056    -0.019    28.431     8.744
    40   6 C        2.920     0.039    27.118     8.540
    41   6 C        2.917    -0.035    28.874     8.812
    42   6 C        2.922    -0.012    28.322     8.727
    43   6 C        2.976    -0.027    28.675     8.784
    44   6 C        2.995     0.013    27.721     8.637
    45   6 C        2.775     0.274    22.363     7.745
    46   8 O        0.859    -0.405    21.772     6.256
    47   6 C        2.920    -0.029    28.723     8.789
    48   6 C        2.930    -0.031    28.783     8.798
    49   1 H        0.925     0.037     2.490     2.468
    50   1 H        0.925     0.038     2.480     2.463
    51   1 H        0.925     0.038     2.479     2.462
    52   1 H        0.925     0.039     2.467     2.456
    53   1 H        0.925     0.036     2.497     2.471
    54   1 H        0.925     0.037     2.483     2.464
    55   1 H        0.925     0.036     2.499     2.472
    56   1 H        0.925     0.038     2.472     2.459
    57   1 H        0.925     0.038     2.469     2.457
    58   1 H        0.926     0.046     2.366     2.406
    59   1 H        0.926     0.041     2.437     2.441
    60   1 H        0.926     0.069     2.092     2.262
    61   1 H        0.926     0.047     2.362     2.404
    62   1 H        0.926     0.045     2.385     2.415
    63   1 H        0.926     0.026     2.642     2.542
    64   1 H        0.926     0.032     2.562     2.503
    65   1 H        0.926     0.030     2.582     2.513
    66   1 H        0.926     0.033     2.540     2.492
    67   1 H        0.925     0.042     2.426     2.436
    68   1 H        0.925     0.031     2.568     2.506
    69   1 H        0.925     0.043     2.416     2.430
    70   1 H        0.925     0.043     2.415     2.430
    71   1 H        0.925     0.034     2.536     2.490
    72   1 H        0.925     0.042     2.426     2.436
    73   1 H        0.926     0.039     2.456     2.451
    74   1 H        0.926     0.037     2.484     2.465
    75   1 H        0.926     0.040     2.446     2.446
    76   1 H        0.926     0.041     2.435     2.440
    77   1 H        0.926     0.038     2.474     2.460
    78   1 H        0.926     0.039     2.460     2.453
    79   1 H        0.926     0.053     2.284     2.363
    80   1 H        0.926     0.072     2.060     2.245
    81   1 H        0.926     0.041     2.429     2.437
    82   1 H        0.926     0.040     2.453     2.449

molecular dipole:
                 x           y           z       tot (Debye)
 q only:       -1.426       0.116      -0.166
   full:       -1.626       0.095      -0.170       4.164

 projected vibrational frequencies (cm⁻¹)
eigval :       -0.00    -0.00    -0.00    -0.00     0.00     0.00
eigval :        9.03    14.02    14.44    23.89    25.93    33.74
eigval :       39.62    46.92    53.79    63.98    85.08    95.63
eigval :       98.22   101.08   113.74   120.93   125.20   129.94
eigval :      139.61   172.05   176.09   178.83   185.23   186.89
eigval :      196.31   216.52   227.98   233.50   242.63   251.62
eigval :      256.37   272.47   290.89   302.99   311.31   311.92
eigval :      316.57   324.29   329.95   344.14   349.17   362.54
eigval :      368.60   381.77   386.75   391.73   394.56   401.49
eigval :      420.87   421.56   433.86   437.00   449.92   466.23
eigval :      467.10   481.32   492.43   497.62   513.79   521.20
eigval :      522.62   531.10   539.60   546.63   550.75   554.85
eigval :      567.91   573.20   585.05   602.51   609.64   623.29
eigval :      628.72   638.39   656.03   680.52   686.76   689.67
eigval :      690.52   704.19   708.39   709.68   710.07   721.62
eigval :      748.45   774.21   777.71   778.46   790.93   803.29
eigval :      809.59   813.52   823.34   841.99   851.12   853.98
eigval :      858.01   866.05   869.82   872.10   890.18   903.08
eigval :      906.92   909.04   910.40   911.03   914.78   921.77
eigval :      923.64   923.95   924.10   928.78   936.38   944.23
eigval :      957.12   961.14   963.12   963.56   986.48  1008.67
eigval :     1014.31  1032.17  1035.96  1036.14  1061.78  1070.79
eigval :     1097.36  1104.53  1112.67  1128.90  1131.68  1139.53
eigval :     1142.76  1149.07  1152.27  1160.04  1168.32  1176.54
eigval :     1181.64  1186.64  1188.87  1190.67  1203.32  1207.37
eigval :     1221.96  1228.21  1228.98  1234.34  1241.04  1244.41
eigval :     1250.04  1253.00  1256.65  1279.41  1284.79  1289.60
eigval :     1293.28  1306.20  1314.44  1324.21  1327.89  1335.26
eigval :     1344.99  1349.40  1360.84  1363.93  1392.95  1399.50
eigval :     1399.86  1403.56  1405.98  1410.89  1414.94  1421.87
eigval :     1427.81  1429.29  1438.50  1450.54  1472.23  1483.36
eigval :     1486.67  1488.84  1489.92  1490.98  1493.96  1499.29
eigval :     1499.76  1502.13  1503.65  1505.50  1506.93  1514.28
eigval :     1519.35  1549.73  1570.16  1574.52  1581.76  1582.63
eigval :     1589.21  1592.82  1596.94  1598.43  1603.67  1614.23
eigval :     1690.21  1702.64  3023.24  3025.00  3027.22  3030.10
eigval :     3031.12  3031.86  3034.26  3038.44  3039.98  3043.46
eigval :     3046.16  3049.45  3052.20  3052.86  3056.26  3082.45
eigval :     3082.90  3083.59  3085.40  3086.84  3088.85  3088.98
eigval :     3090.86  3093.41  3095.03  3097.09  3097.12  3098.32
eigval :     3101.02  3101.75  3103.25  3104.96  3108.72  3118.09

   temp. (K)  partition function   enthalpy   heat capacity  entropy
                                   cal/mol     cal/K/mol   cal/K/mol   J/K/mol
 298.15  VIB  0.102E+19            23674.794    149.195    145.896
         ROT  0.762E+08              888.752      2.981     39.046
         INT  0.776E+26            24563.546    152.176    184.942
         TR   0.152E+29             1481.254      4.968     45.168
         TOT                       26044.8000   157.1444   230.1106   962.7829

       T/K    H(0)-H(T)+PV         H(T)/Eh          T*S/Eh         G(T)/Eh
   ------------------------------------------------------------------------
    298.15    0.415050E-01    0.684521E+00    0.109333E+00    0.575188E+00
   ------------------------------------------------------------------------

         :::::::::::::::::::::::::::::::::::::::::::::::::::::
         ::                  THERMODYNAMIC                  ::
         :::::::::::::::::::::::::::::::::::::::::::::::::::::
         :: total free energy        -127.021740536692 Eh   ::
         ::.................................................::
         :: total energy             -127.596928731052 Eh   ::
         :: zero point energy           0.643016148879 Eh   ::
         :: G(RRHO) w/o ZPVE           -0.067827954519 Eh   ::
         :: G(RRHO) contrib.            0.575188194360 Eh   ::
         :::::::::::::::::::::::::::::::::::::::::::::::::::::

           -------------------------------------------------
          | TOTAL ENERGY             -127.596928731052 Eh   |
          | TOTAL ENTHALPY           -126.912407551448 Eh   |
          | TOTAL FREE ENERGY        -127.021740536692 Eh   |
          | GRADIENT NORM               0.000105397434 Eh/α |
          | HOMO-LUMO GAP               1.219355143350 eV   |
           -------------------------------------------------

 * finished run on 2025/09/08 at 00:15:00.295
