   * xtb version 6.7.1 (edcfbbe) compiled by 'albert@albert-system' on 2024-07-22

   ID    Z sym.   atoms
    1    6 C      1-8, 10, 12-17, 19-32, 34-45, 47, 48
    2    7 N      9, 18
    3    8 O      11, 33, 46
    4    1 H      49-82

          program call               : xtb data2507/gas/BFDMAc-NAI/BFDMAc-NAI_gas_T1_crest.xyz --gfn 2 --spinpol --tblite --uhf 2 --ohess vtight --parallel 40 --molden --ceasefiles --namespace data2507/gas/BFDMAc-NAI/BFDMAc-NAI_gas_T1_finalOpt
 * total energy  :  -127.5297871 Eh     change       -0.4156249E-08 Eh
 * total energy  :  -127.5298035 Eh     change       -0.1647108E-04 Eh
 * total energy  :  -127.5298113 Eh     change       -0.7729769E-05 Eh
 * total energy  :  -127.5298132 Eh     change       -0.1944753E-05 Eh
 * total energy  :  -127.5298156 Eh     change       -0.2344684E-05 Eh
 * total energy  :  -127.5298180 Eh     change       -0.2429743E-05 Eh
 * total energy  :  -127.5298203 Eh     change       -0.2271779E-05 Eh
 * total energy  :  -127.5298218 Eh     change       -0.1525234E-05 Eh
 * total energy  :  -127.5298230 Eh     change       -0.1239850E-05 Eh
 * total energy  :  -127.5298242 Eh     change       -0.1134355E-05 Eh
 * total energy  :  -127.5298263 Eh     change       -0.3851856E-06 Eh
 * total energy  :  -127.5298268 Eh     change       -0.5376320E-06 Eh
 * total energy  :  -127.5298272 Eh     change       -0.3834193E-06 Eh
 * total energy  :  -127.5298278 Eh     change       -0.5665455E-06 Eh
 * total energy  :  -127.5298285 Eh     change       -0.7441130E-06 Eh
 * total energy  :  -127.5298292 Eh     change       -0.6714354E-06 Eh
 * total energy  :  -127.5298296 Eh     change       -0.4291492E-06 Eh
 * total energy  :  -127.5298308 Eh     change       -0.1137426E-05 Eh
 * total energy  :  -127.5298308 Eh     change       -0.2423893E-07 Eh
   *** GEOMETRY OPTIMIZATION CONVERGED AFTER 22 ITERATIONS ***

 final structure:
================
82
 xtb: 6.7.1 (edcfbbe)
C            9.35840083561840       -1.81180281425858        0.61197092599269
C            8.87565694077873       -0.37802491692224        0.35004674184271
C            9.36823190116354        0.50774069415608        1.49766540766967
C            9.48745437659382        0.14750310822575       -0.95636792235798
C            7.36073199752373       -0.38257833822818        0.22015333390075
C            6.52625614231940        0.34023063412427        1.06462204092087
C            5.15169622640293        0.31552362061283        0.91228298168486
C            4.57899629006728       -0.44704568365442       -0.09148618529233
N            3.16205003595370       -0.47805048953091       -0.25356666138041
C            2.65906504438755       -0.05177646254067       -1.47871313477379
O            3.41062258319661        0.37616571309488       -2.34621025238353
C            1.21654743116456       -0.11258769054801       -1.63782423211841
C            0.63939168389391        0.28777656870561       -2.86366835400686
C           -0.71820224094067        0.22164282705042       -3.03502239917653
C           -1.55029944774100       -0.21184140689318       -1.99762715838327
C           -1.01471903689841       -0.58532038544316       -0.75903128130154
C           -1.80433615413879       -1.02693424523044        0.33503910358361
N           -3.21097383191476       -0.97849766735477        0.25603984313729
C           -3.93471601881890       -2.15673010209337        0.27863209429100
C           -3.25419710316286       -3.38155232473446        0.33777667820609
C           -3.94502800212623       -4.57069358692790        0.39052229752185
C           -5.33071323916743       -4.56471926080260        0.35785457881069
C           -6.00371221640815       -3.36256290562475        0.24138333887384
C           -5.33432141116181       -2.14697988879036        0.19412558001558
C           -6.12107121137401       -0.86833933313394        0.00273282090306
C           -6.85290648756260       -0.95445741477563       -1.35076776514245
C           -7.13765173463461       -0.73132678216967        1.15247799106639
C           -5.23035879082972        0.35673419850531        0.00261618932086
C           -5.81963888926016        1.61414870276876       -0.12514072528153
C           -5.09958239406011        2.78946184715197       -0.07543024839943
C           -3.73129105283027        2.70479660120816        0.14459131717691
C           -3.11563425108986        1.44790005891993        0.26942490775605
O           -1.78560972575312        1.57614570131787        0.51049237047819
C           -1.51529362755094        2.90643778465481        0.53199864120447
C           -0.27664022172277        3.48992540241625        0.73189919745295
C           -0.22382826162037        4.87128944296212        0.70838971160391
C           -1.36632678402906        5.64102988901778        0.49456236757223
C           -2.60057446603766        5.05579655137129        0.29302569235946
C           -2.67729850736627        3.66892665236906        0.30967301472705
C           -3.83914343966703        0.24663560801900        0.16220569115033
C           -1.20416308846300       -1.47214823524202        1.53358126773771
C            0.15016846938105       -1.44139188326834        1.68587064650232
C            0.97514311000285       -0.97096943798075        0.63167078311722
C            0.39821588555258       -0.55247509809777       -0.58367780735414
C            2.41036370917805       -0.94095786442958        0.82398764539639
O            2.95825505027498       -1.31651575567943        1.85470954771672
C            5.39212201026129       -1.18153774309349       -0.94150852507448
C            6.76226941756040       -1.14049444275099       -0.78457879536457
H            9.09404572086680       -2.47463216107775       -0.20703636991269
H           10.44026520911298       -1.82787254857654        0.72823205570212
H            8.90636173698992       -2.19884163905698        1.52270125491862
H           10.45516308850200        0.47222854406580        1.54202702178533
H            8.98176349648707        0.16067967923792        2.45297917613757
H            9.07220429479866        1.54324717737632        1.34692630550949
H            9.22539763148091       -0.48500119822998       -1.79959275051105
H            9.12673412200203        1.15316851912484       -1.16137111916224
H           10.57234579759337        0.17796164406956       -0.87674869267043
H            6.93562343790024        0.94365143275569        1.85813863353865
H            4.52202891986869        0.88513969805916        1.57855555281649
H            1.29912303944899        0.63647375766681       -3.64205016265865
H           -1.16342175793594        0.51926357638581       -3.97312029860710
H           -2.61849684788343       -0.24677788555958       -2.15783680914299
H           -2.17632025167979       -3.38990353671818        0.32994754231842
H           -3.40332950777320       -5.50219090506708        0.44456285766857
H           -5.88287510161399       -5.49070428785082        0.39880478567936
H           -7.08081940541743       -3.37937245302780        0.18030227710559
H           -6.13041488327504       -1.06272162864712       -2.15726859410229
H           -7.52222509929087       -1.80944786129316       -1.37359582505799
H           -7.43778610879914       -0.05750680319090       -1.53197796662459
H           -6.61341072745638       -0.65928555621957        2.10324726639596
H           -7.74839562139786        0.15777600463806        1.02939751290278
H           -7.79813861147739       -1.59236624686334        1.18896514980967
H           -6.88665412225619        1.67696166589797       -0.26810417248986
H           -5.58382811201060        3.74592074221221       -0.18731397430270
H            0.59982006831830        2.88372973241067        0.89297500260215
H            0.72398485128988        5.36525913970241        0.85733553217167
H           -1.27965188636709        6.71703292484787        0.48470149209041
H           -3.48259827611370        5.65409072908846        0.12452586116171
H           -1.84755853233977       -1.78114821574193        2.34513099422736
H            0.63018856614651       -1.74417001146635        2.60252956257827
H            4.94947225065997       -1.77662818644266       -1.72555564932010
H            7.37137737378026       -1.71969919066290       -1.46193159255861

 projected vibrational frequencies (cm⁻¹)
eigval :       -0.00    -0.00    -0.00    -0.00     0.00     0.00
eigval :        8.81    13.98    17.66    25.63    27.85    32.04
eigval :       42.45    49.98    55.22    68.90    88.41    90.08
eigval :      102.98   105.49   118.86   122.07   127.71   130.31
eigval :      140.34   168.79   172.37   183.23   188.40   189.95
eigval :      197.20   217.47   227.20   231.66   244.40   252.60
eigval :      258.53   273.11   293.56   296.22   309.39   311.79
eigval :      315.32   317.62   328.95   345.95   350.23   361.79
eigval :      368.05   379.99   385.57   387.28   392.82   398.57
eigval :      400.18   421.48   430.21   436.29   454.62   459.92
eigval :      466.01   480.37   488.64   490.28   496.17   514.87
eigval :      520.10   525.77   533.14   541.82   544.40   552.71
eigval :      559.12   569.82   577.76   600.38   606.47   610.90
eigval :      627.80   632.66   652.68   659.17   668.80   686.94
eigval :      689.15   697.74   703.98   706.97   712.47   716.98
eigval :      719.82   757.46   771.56   777.66   778.58   788.43
eigval :      804.50   808.79   811.96   825.65   834.75   841.64
eigval :      847.09   854.35   859.11   872.81   873.76   888.55
eigval :      895.47   904.13   905.40   907.04   908.35   911.16
eigval :      917.07   922.32   924.88   925.61   933.24   941.51
eigval :      958.06   960.72   962.78   963.08   989.61  1005.13
eigval :     1013.43  1025.11  1035.17  1035.46  1059.64  1068.57
eigval :     1096.02  1098.78  1108.11  1115.78  1126.93  1130.78
eigval :     1141.28  1144.76  1149.17  1150.90  1151.37  1167.33
eigval :     1175.88  1180.07  1183.30  1187.49  1194.54  1196.30
eigval :     1202.47  1210.70  1217.51  1227.12  1233.35  1238.77
eigval :     1244.19  1250.10  1254.68  1266.30  1279.82  1283.24
eigval :     1292.21  1294.80  1304.08  1319.11  1323.84  1327.16
eigval :     1333.06  1349.30  1360.45  1369.17  1372.72  1387.50
eigval :     1394.61  1399.30  1402.52  1404.79  1408.90  1410.67
eigval :     1416.12  1419.79  1422.39  1427.41  1434.70  1442.47
eigval :     1467.10  1470.43  1480.79  1484.37  1485.64  1486.57
eigval :     1490.65  1494.19  1496.95  1498.98  1500.29  1501.70
eigval :     1504.81  1513.92  1519.43  1548.44  1556.03  1560.86
eigval :     1567.41  1569.37  1584.06  1584.55  1585.74  1592.26
eigval :     1609.42  1623.37  3020.79  3022.20  3029.25  3029.81
eigval :     3032.13  3033.89  3034.20  3037.92  3039.51  3047.92
eigval :     3049.60  3051.33  3052.99  3056.07  3061.63  3069.16
eigval :     3073.81  3082.84  3083.59  3087.09  3089.31  3093.16
eigval :     3094.98  3095.53  3098.16  3099.17  3102.18  3104.21
eigval :     3110.21  3110.74  3111.36  3113.74  3113.93  3114.55

   temp. (K)  partition function   enthalpy   heat capacity  entropy
                                   cal/mol     cal/K/mol   cal/K/mol   J/K/mol
 298.15  VIB  0.645E+18            23783.095    150.659    146.031
         ROT  0.763E+08              888.752      2.981     39.051
         INT  0.492E+26            24671.848    153.640    185.082
         TR   0.152E+29             1481.254      4.968     45.168
         TOT                       26153.1015   158.6085   230.2505   963.3680

       T/K    H(0)-H(T)+PV         H(T)/Eh          T*S/Eh         G(T)/Eh
   ------------------------------------------------------------------------
    298.15    0.416776E-01    0.681368E+00    0.109399E+00    0.571968E+00
   ------------------------------------------------------------------------

         :::::::::::::::::::::::::::::::::::::::::::::::::::::
         ::                  THERMODYNAMIC                  ::
         :::::::::::::::::::::::::::::::::::::::::::::::::::::
         :: total free energy        -126.957862661430 Eh   ::
         ::.................................................::
         :: total energy             -127.529830779120 Eh   ::
         :: zero point energy           0.639689926704 Eh   ::
         :: G(RRHO) w/o ZPVE           -0.067721809013 Eh   ::
         :: G(RRHO) contrib.            0.571968117691 Eh   ::
         :::::::::::::::::::::::::::::::::::::::::::::::::::::

           -------------------------------------------------
          | TOTAL ENERGY             -127.529830779120 Eh   |
          | TOTAL ENTHALPY           -126.848463232355 Eh   |
          | TOTAL FREE ENERGY        -126.957862661430 Eh   |
          | GRADIENT NORM               0.000082632503 Eh/α |
           -------------------------------------------------

 * finished run on 2025/09/08 at 00:27:59.667
