   * xtb version 6.7.1 (edcfbbe) compiled by 'albert@albert-system' on 2024-07-22

   ID    Z sym.   atoms
    1    6 C      1-8, 10, 12-17, 19-32, 34-45, 47, 48
    2    7 N      9, 18
    3    8 O      11, 33, 46
    4    1 H      49-82

          program call               : xtb data2507/gas/BFDMAc-NAI/BFDMAc-NAI_gas_S0_crest.xyz --gfn 2 --ohess vtight --parallel 40 --molden --ceasefiles --namespace data2507/gas/BFDMAc-NAI/BFDMAc-NAI_gas_S0_finalOpt
          :  Hamiltonian                  GFN2-xTB          :
 * total energy  :  -127.5969206 Eh     change       -0.3657163E-08 Eh
 * total energy  :  -127.5969213 Eh     change       -0.6870320E-06 Eh
 * total energy  :  -127.5969220 Eh     change       -0.7801459E-06 Eh
 * total energy  :  -127.5969231 Eh     change       -0.1037386E-05 Eh
 * total energy  :  -127.5969234 Eh     change       -0.3317721E-06 Eh
 * total energy  :  -127.5969239 Eh     change       -0.4625318E-06 Eh
 * total energy  :  -127.5969244 Eh     change       -0.5290710E-06 Eh
 * total energy  :  -127.5969248 Eh     change       -0.3714418E-06 Eh
 * total energy  :  -127.5969251 Eh     change       -0.2828443E-06 Eh
 * total energy  :  -127.5969253 Eh     change       -0.2486620E-06 Eh
 * total energy  :  -127.5969265 Eh     change       -0.3386041E-06 Eh
 * total energy  :  -127.5969269 Eh     change       -0.3898976E-06 Eh
 * total energy  :  -127.5969273 Eh     change       -0.4083032E-06 Eh
 * total energy  :  -127.5969277 Eh     change       -0.4004509E-06 Eh
 * total energy  :  -127.5969281 Eh     change       -0.3952836E-06 Eh
 * total energy  :  -127.5969285 Eh     change       -0.4188089E-06 Eh
 * total energy  :  -127.5969289 Eh     change       -0.3924275E-06 Eh
 * total energy  :  -127.5969291 Eh     change       -0.2571155E-06 Eh
 * total energy  :  -127.5969291 Eh     change       -0.7647685E-08 Eh
   *** GEOMETRY OPTIMIZATION CONVERGED AFTER 22 ITERATIONS ***

 final structure:
================
82
 xtb: 6.7.1 (edcfbbe)
C            9.45323035525327        1.06763312194950        0.25476368103909
C            8.86253681823323       -0.34097779420704        0.35994630459033
C            9.50149430709264       -1.21008435125877       -0.73242415585812
C            9.21054511556981       -0.90375788542491        1.74523046833591
C            7.35209640855893       -0.35833738629809        0.18465316151920
C            6.60505593804271        0.78999265327472       -0.04677575366377
C            5.23046898613154        0.73600138171360       -0.19655463846317
C            4.57663544013135       -0.48027468107159       -0.12478800275350
N            3.15218243894906       -0.54059944157215       -0.28242337789050
C            2.64866605700869       -0.20583588678234       -1.53170495168033
O            3.38981401983579        0.10465844478255       -2.44026353547833
C            1.18319457094864       -0.26268033988852       -1.67490737579501
C            0.60585060196532        0.06149772742370       -2.88466823001000
C           -0.78065968648549        0.00429667789863       -3.04197179316986
C           -1.58600777579390       -0.35319951361965       -1.99149222364519
C           -1.03216023396620       -0.67226656439283       -0.73570899937172
C           -1.82449803921658       -1.00941328049026        0.39485604846945
N           -3.23314546320920       -0.94721732131628        0.29519149329826
C           -3.98162737242200       -2.11757219660600        0.27850463780007
C           -3.33231910202180       -3.35355935000066        0.33251436592747
C           -4.04902965071640       -4.53134276500551        0.32400871385272
C           -5.42972147022486       -4.49571277441885        0.24898938437326
C           -6.07075638704647       -3.27445867060743        0.16098672513886
C           -5.37403130166568       -2.07294836226697        0.16671479028960
C           -6.13795318507838       -0.76994429556794        0.02249146742815
C           -6.88445694039480       -0.79251824657644       -1.32424346474312
C           -7.13859047484428       -0.65277984194335        1.18691901615244
C           -5.21961507136951        0.43824153610694        0.05432063774336
C           -5.78374903412786        1.71196660355634       -0.05028243380121
C           -5.04120013684792        2.87027971274502        0.00377937204077
C           -3.67135535248844        2.75015059910358        0.19460323473759
C           -3.08856117482945        1.47851228032257        0.30334794104382
O           -1.73746494815367        1.57135785780312        0.51251751856479
C           -1.43962185993047        2.89672194346436        0.52839023738986
C           -0.18483277617209        3.45219747878211        0.70111522648400
C           -0.09907605482721        4.83259303461297        0.68004007972624
C           -1.22706685051595        5.62845364887670        0.49374366145089
C           -2.47843067812407        5.07046058596347        0.32062157748736
C           -2.58811373414898        3.68625377017323        0.33615011938491
C           -3.83755453825373        0.29916747163079        0.20799855955684
C           -1.22919514930338       -1.36425382970622        1.58511388001631
C            0.15780406352669       -1.35496878963782        1.71569402017364
C            0.95849148777503       -0.98503771829418        0.65408978662824
C            0.37636116204088       -0.64400433792425       -0.58348962063246
C            2.41845024146159       -0.93356072268366        0.82978723246944
O            2.96960410012098       -1.20110237664049        1.87686795272336
C            5.29929631722218       -1.63989488088496        0.10021704065967
C            6.66917150014086       -1.57039755443483        0.25592656177092
H            9.05057251935439        1.71948265351974        1.02648214565235
H           10.53227711483368        1.01827382564923        0.38696773502517
H            9.25467604376632        1.50325432364152       -0.72160524784626
H           10.58537796837208       -1.19119483689854       -0.63949273670505
H            9.23203548821793       -0.83352908445001       -1.71687148068301
H            9.17211280270283       -2.24277146615234       -0.66134172588333
H            8.73650245720234       -0.30799354156291        2.52230295813337
H            8.87416415839230       -1.93098260095250        1.85245731606749
H           10.28735600091906       -0.87987458642613        1.89927643925295
H            7.08254439480875        1.75362623624680       -0.11185420631777
H            4.66742587526295        1.63964019704362       -0.37593732383649
H            1.24685877818244        0.35403827837891       -3.70269171262205
H           -1.21683190200596        0.24739191347300       -3.99912343946313
H           -2.65789865227449       -0.39338307276116       -2.11972595392427
H           -2.25474389918047       -3.38900165547490        0.37439125797375
H           -3.52628718869185       -5.47464337236924        0.37140202282869
H           -6.00312450601279       -5.40983052781240        0.24589581079721
H           -7.14707354484084       -3.26325688715770        0.08165092671937
H           -6.17197859365975       -0.88478077669989       -2.14192085329909
H           -7.57033854071829       -1.63340451662872       -1.37265376687830
H           -7.45506607190259        0.12041862091822       -1.46856763929782
H           -6.60223992709776       -0.63054903978128        2.13355475485038
H           -7.72778604836003        0.25598088741798        1.10574606635593
H           -7.82003044671845       -1.49851258667794        1.19878128123054
H           -6.85116629604881        1.79722696869364       -0.17993248367767
H           -5.50539855794738        3.83885636950854       -0.08673596710832
H            0.68166801798237        2.82674342706877        0.84641810649163
H            0.86338773084290        5.30345751020246        0.81110526624771
H           -1.11644896899718        6.70243608601730        0.48483511689261
H           -3.35089743277171        5.68882524100187        0.17587808982946
H           -1.84995768025470       -1.62645107010614        2.42925864102626
H            0.62566692418151       -1.61001138413863        2.65459761999103
H            4.78906070117652       -2.58943269770761        0.15874985388095
H            7.20980548185419       -2.48743564988542        0.43338287798483

          :  Hamiltonian                  GFN2-xTB          :
         :: gradient norm              0.000060657987 Eh/a0 ::
         :: HOMO-LUMO gap              1.222486649411 eV    ::
         :: SCC energy              -129.733946132836 Eh    ::
         :: -> dispersion             -0.117317613645 Eh    ::
         :: repulsion energy           2.137016989703 Eh    ::

    * Orbital Energies and Occupations

         #    Occupation            Energy/Eh            Energy/eV
      -------------------------------------------------------------
         1        2.0000           -0.7399998             -20.1364
       ...           ...                  ...                  ...
       105        2.0000           -0.4195630             -11.4169
       106        2.0000           -0.4182888             -11.3822
       107        2.0000           -0.4163887             -11.3305
       108        2.0000           -0.4084195             -11.1137
       109        2.0000           -0.4055263             -11.0349
       110        2.0000           -0.4042298             -10.9997
       111        2.0000           -0.4039858             -10.9930
       112        2.0000           -0.4024209             -10.9504
       113        2.0000           -0.3991706             -10.8620
       114        2.0000           -0.3966118             -10.7924
       115        2.0000           -0.3890629             -10.5869
       116        2.0000           -0.3888005             -10.5798
       117        2.0000           -0.3552822              -9.6677 (HOMO)
       118                         -0.3103565              -8.4452 (LUMO)
       119                         -0.2553557              -6.9486
       120                         -0.2518983              -6.8545
       121                         -0.2498719              -6.7994
       122                         -0.2347922              -6.3890
       123                         -0.2283430              -6.2135
       124                         -0.2260255              -6.1505
       125                         -0.2192885              -5.9671
       126                         -0.2181422              -5.9360
       127                         -0.2165271              -5.8920
       128                         -0.2085179              -5.6741
       ...                                ...                  ...
       226                          0.7379601              20.0809
      -------------------------------------------------------------
                  HL-Gap            0.0449257 Eh            1.2225 eV

     #   Z          covCN         q      C6AA      α(0)
     1   6 C        3.761    -0.109    22.634     6.782
     2   6 C        3.903     0.026    20.078     6.369
     3   6 C        3.762    -0.107    22.589     6.775
     4   6 C        3.762    -0.107    22.590     6.775
     5   6 C        2.973     0.012    27.733     8.638
     6   6 C        2.927    -0.036    28.890     8.815
     7   6 C        2.920    -0.029    28.729     8.790
     8   6 C        2.938     0.082    26.180     8.392
     9   7 N        2.746    -0.103    23.257     7.163
    10   6 C        2.775     0.274    22.367     7.746
    11   8 O        0.859    -0.404    21.760     6.254
    12   6 C        2.977    -0.023    28.580     8.769
    13   6 C        2.922    -0.011    28.300     8.724
    14   6 C        2.915    -0.026    28.640     8.776
    15   6 C        2.918    -0.019    28.479     8.751
    16   6 C        2.985     0.014    27.683     8.631
    17   6 C        2.926     0.079    26.243     8.401
    18   7 N        2.752    -0.060    22.397     7.029
    19   6 C        2.927     0.057    26.723     8.478
    20   6 C        2.924    -0.057    29.419     8.895
    21   6 C        2.920    -0.031    28.784     8.798
    22   6 C        2.917    -0.042    29.052     8.839
    23   6 C        2.928    -0.035    28.878     8.813
    24   6 C        2.979    -0.013    28.323     8.730
    25   6 C        3.909     0.023    20.130     6.377
    26   6 C        3.761    -0.105    22.546     6.769
    27   6 C        3.761    -0.106    22.565     6.772
    28   6 C        2.983    -0.018    28.450     8.749
    29   6 C        2.928    -0.045    29.124     8.850
    30   6 C        2.910    -0.048    29.204     8.861
    31   6 C        3.059    -0.022    28.490     8.753
    32   6 C        3.088     0.104    25.614     8.296
    33   8 O        1.715    -0.239    17.960     5.722
    34   6 C        3.094     0.129    25.075     8.207
    35   6 C        2.908    -0.052    29.281     8.873
    36   6 C        2.927    -0.031    28.783     8.798
    37   6 C        2.921    -0.038    28.953     8.824
    38   6 C        2.913    -0.033    28.828     8.804
    39   6 C        3.056    -0.019    28.431     8.744
    40   6 C        2.920     0.039    27.118     8.540
    41   6 C        2.917    -0.035    28.875     8.812
    42   6 C        2.922    -0.012    28.323     8.727
    43   6 C        2.976    -0.027    28.676     8.784
    44   6 C        2.995     0.013    27.720     8.637
    45   6 C        2.775     0.274    22.363     7.745
    46   8 O        0.859    -0.405    21.774     6.256
    47   6 C        2.920    -0.029    28.721     8.788
    48   6 C        2.930    -0.031    28.782     8.798
    49   1 H        0.925     0.037     2.490     2.468
    50   1 H        0.925     0.038     2.481     2.463
    51   1 H        0.925     0.038     2.479     2.462
    52   1 H        0.925     0.039     2.467     2.456
    53   1 H        0.925     0.036     2.498     2.471
    54   1 H        0.925     0.037     2.483     2.464
    55   1 H        0.925     0.036     2.499     2.472
    56   1 H        0.925     0.038     2.472     2.458
    57   1 H        0.925     0.038     2.469     2.457
    58   1 H        0.926     0.046     2.367     2.406
    59   1 H        0.926     0.041     2.439     2.442
    60   1 H        0.926     0.069     2.092     2.262
    61   1 H        0.926     0.047     2.363     2.404
    62   1 H        0.926     0.045     2.386     2.415
    63   1 H        0.926     0.026     2.640     2.541
    64   1 H        0.926     0.032     2.562     2.503
    65   1 H        0.926     0.030     2.582     2.513
    66   1 H        0.926     0.033     2.540     2.492
    67   1 H        0.925     0.031     2.569     2.506
    68   1 H        0.925     0.043     2.416     2.430
    69   1 H        0.925     0.042     2.426     2.436
    70   1 H        0.925     0.034     2.535     2.490
    71   1 H        0.925     0.042     2.426     2.436
    72   1 H        0.925     0.043     2.415     2.430
    73   1 H        0.926     0.039     2.456     2.450
    74   1 H        0.926     0.037     2.484     2.465
    75   1 H        0.926     0.040     2.447     2.446
    76   1 H        0.926     0.041     2.435     2.440
    77   1 H        0.926     0.038     2.474     2.460
    78   1 H        0.926     0.039     2.460     2.453
    79   1 H        0.926     0.053     2.284     2.364
    80   1 H        0.926     0.072     2.061     2.245
    81   1 H        0.926     0.041     2.429     2.437
    82   1 H        0.926     0.040     2.452     2.449

molecular dipole:
                 x           y           z       tot (Debye)
 q only:       -1.425       0.162      -0.163
   full:       -1.626       0.144      -0.172       4.172

 projected vibrational frequencies (cm⁻¹)
eigval :       -0.00    -0.00    -0.00     0.00     0.00     0.00
eigval :        9.10    14.07    14.49    23.88    25.98    33.82
eigval :       39.63    46.99    53.65    63.69    85.13    95.64
eigval :       98.25   101.12   113.50   120.94   125.27   129.93
eigval :      139.77   172.05   176.21   178.80   185.35   187.10
eigval :      196.17   216.52   227.94   233.55   242.72   251.57
eigval :      256.34   272.42   290.86   303.11   311.23   311.91
eigval :      316.63   324.17   330.05   344.13   349.20   362.55
eigval :      368.49   381.73   386.71   391.76   394.55   401.55
eigval :      420.88   421.64   433.89   437.03   449.90   466.25
eigval :      467.23   481.33   492.44   497.57   513.77   521.30
eigval :      522.64   531.12   539.61   546.59   550.79   554.87
eigval :      567.97   573.20   585.04   602.53   609.67   623.32
eigval :      628.70   638.42   656.00   680.56   686.77   689.72
eigval :      690.49   704.24   708.42   709.66   710.07   721.58
eigval :      748.43   774.19   777.72   778.53   790.94   803.31
eigval :      809.58   813.49   823.38   841.98   851.18   854.02
eigval :      858.02   866.08   869.98   872.13   890.14   903.09
eigval :      906.95   909.02   910.40   911.04   914.79   921.77
eigval :      923.64   924.03   924.15   928.74   936.37   944.18
eigval :      957.11   961.13   963.09   963.53   986.48  1008.67
eigval :     1014.32  1032.16  1035.95  1036.11  1061.77  1070.78
eigval :     1097.38  1104.51  1112.70  1128.88  1131.66  1139.50
eigval :     1142.75  1148.99  1152.27  1159.96  1168.32  1176.55
eigval :     1181.66  1186.65  1188.87  1190.66  1203.33  1207.34
eigval :     1221.98  1228.20  1228.99  1234.28  1241.05  1244.36
eigval :     1249.97  1253.03  1256.61  1279.36  1284.75  1289.57
eigval :     1293.22  1306.18  1314.42  1324.05  1327.83  1335.18
eigval :     1344.90  1349.35  1360.78  1363.87  1392.93  1399.46
eigval :     1399.83  1403.57  1405.98  1410.81  1414.84  1421.88
eigval :     1427.80  1429.27  1438.44  1450.47  1472.20  1483.25
eigval :     1486.64  1488.80  1489.94  1491.01  1493.93  1499.18
eigval :     1499.78  1502.13  1503.64  1505.49  1506.88  1514.32
eigval :     1519.33  1549.63  1570.14  1574.40  1581.70  1582.58
eigval :     1589.15  1592.76  1596.93  1598.40  1603.62  1614.23
eigval :     1690.15  1702.55  3023.17  3024.97  3027.17  3030.13
eigval :     3031.16  3031.82  3034.28  3038.46  3039.98  3043.40
eigval :     3046.15  3049.45  3052.14  3052.90  3056.30  3082.44
eigval :     3082.83  3083.56  3085.22  3086.87  3088.69  3088.76
eigval :     3090.79  3093.37  3094.97  3096.93  3097.09  3098.20
eigval :     3100.97  3101.72  3103.26  3104.84  3108.72  3118.02

   temp. (K)  partition function   enthalpy   heat capacity  entropy
                                   cal/mol     cal/K/mol   cal/K/mol   J/K/mol
 298.15  VIB  0.100E+19            23674.242    149.192    145.880
         ROT  0.760E+08              888.752      2.981     39.042
         INT  0.763E+26            24562.995    152.173    184.922
         TR   0.152E+29             1481.254      4.968     45.168
         TOT                       26044.2486   157.1415   230.0906   962.6992

       T/K    H(0)-H(T)+PV         H(T)/Eh          T*S/Eh         G(T)/Eh
   ------------------------------------------------------------------------
    298.15    0.415042E-01    0.684513E+00    0.109323E+00    0.575190E+00
   ------------------------------------------------------------------------

         :::::::::::::::::::::::::::::::::::::::::::::::::::::
         ::                  THERMODYNAMIC                  ::
         :::::::::::::::::::::::::::::::::::::::::::::::::::::
         :: total free energy        -127.021739210980 Eh   ::
         ::.................................................::
         :: total energy             -127.596929143122 Eh   ::
         :: zero point energy           0.643009268335 Eh   ::
         :: G(RRHO) w/o ZPVE           -0.067819336193 Eh   ::
         :: G(RRHO) contrib.            0.575189932142 Eh   ::
         :::::::::::::::::::::::::::::::::::::::::::::::::::::

           -------------------------------------------------
          | TOTAL ENERGY             -127.596929143122 Eh   |
          | TOTAL ENTHALPY           -126.912415722820 Eh   |
          | TOTAL FREE ENERGY        -127.021739210980 Eh   |
          | GRADIENT NORM               0.000060694369 Eh/α |
          | HOMO-LUMO GAP               1.222489496250 eV   |
           -------------------------------------------------

 * finished run on 2025/09/08 at 00:21:05.730
