   * xtb version 6.7.1 (edcfbbe) compiled by 'albert@albert-system' on 2024-07-22

   ID    Z sym.   atoms
    1    6 C      1-8, 10, 12-17, 19-32, 34-45, 47, 48
    2    7 N      9, 18
    3    8 O      11, 33, 46
    4    1 H      49-82

          program call               : xtb data2507/gas/BFDMAc-NAI/BFDMAc-NAI_gas_S0_finalOpt.xtbopt.xyz --gfn 2 --spinpol --tblite --uhf 2 --ohess vtight --parallel 40 --molden --ceasefiles --namespace data2507/gas/BFDMAc-NAI/BFDMAc-NAI_gas_T1_preOpt
 * total energy  :  -127.5241651 Eh     change       -0.3782120E-08 Eh
 * total energy  :  -127.5283776 Eh     change       -0.4212552E-02 Eh
 * total energy  :  -127.5293911 Eh     change       -0.1013484E-02 Eh
 * total energy  :  -127.5294779 Eh     change       -0.8682114E-04 Eh
 * total energy  :  -127.5295290 Eh     change       -0.5101901E-04 Eh
 * total energy  :  -127.5295485 Eh     change       -0.1949296E-04 Eh
 * total energy  :  -127.5295725 Eh     change       -0.2407117E-04 Eh
 * total energy  :  -127.5296037 Eh     change       -0.3117193E-04 Eh
 * total energy  :  -127.5296259 Eh     change       -0.2216458E-04 Eh
 * total energy  :  -127.5296618 Eh     change       -0.3594770E-04 Eh
 * total energy  :  -127.5297350 Eh     change       -0.1220838E-06 Eh
 * total energy  :  -127.5297350 Eh     change        0.2004981E-07 Eh
 * total energy  :  -127.5297351 Eh     change       -0.1022848E-06 Eh
 * total energy  :  -127.5297351 Eh     change        0.6847216E-09 Eh
 * total energy  :  -127.5297352 Eh     change       -0.1379433E-06 Eh
 * total energy  :  -127.5297353 Eh     change       -0.1037402E-06 Eh
 * total energy  :  -127.5297355 Eh     change       -0.1187905E-06 Eh
 * total energy  :  -127.5297354 Eh     change        0.1176751E-07 Eh
 * total energy  :  -127.5297355 Eh     change       -0.3831424E-07 Eh
   *** GEOMETRY OPTIMIZATION CONVERGED AFTER 41 ITERATIONS ***

 final structure:
================
82
 xtb: 6.7.1 (edcfbbe)
C            9.45927082365065        1.04029068749340        0.24630347931920
C            8.85114704263934       -0.35882086800112        0.37666834584175
C            9.48500249061158       -1.25652702872954       -0.69560094050260
C            9.18767174568205       -0.89867633966722        1.77395065645912
C            7.34154443673268       -0.36240004830534        0.19491993371746
C            6.60754739240157        0.78963701875273       -0.06136248724570
C            5.23401795500365        0.74742433676533       -0.21825516641256
C            4.56273733284779       -0.46035656542570       -0.13052207144079
N            3.14620405252579       -0.50833795211373       -0.29786736529554
C            2.64087251681065       -0.09554939683884       -1.52687754777799
O            3.39382749051198        0.28067643511352       -2.41618751704611
C            1.19630597658114       -0.14459834696142       -1.67463925878961
C            0.61372100444224        0.25836737889744       -2.89745019971543
C           -0.74511953040186        0.20083036429345       -3.06027129300445
C           -1.57350867285159       -0.23223672749404       -2.01916094038455
C           -1.03234865609768       -0.61027904017727       -0.78457748970191
C           -1.81872097933402       -1.04559343875503        0.31411969651101
N           -3.22498903818719       -0.96580014158324        0.25306709874776
C           -3.97547946915819       -2.12675177625049        0.28559911989855
C           -3.32247132844760       -3.36703231513218        0.33124755831496
C           -4.03963570705759       -4.54007531445150        0.39166912320639
C           -5.42520533152040       -4.50201806462799        0.38090551806538
C           -6.07208339417551       -3.28436919597283        0.27815786581083
C           -5.37563641873015       -2.08441591722004        0.22294595924945
C           -6.13538497654432       -0.78742187617269        0.04657575369234
C           -6.89370039586498       -0.85448729781403       -1.29329671916865
C           -7.12732283692217       -0.62821972097325        1.21492300301876
C           -5.21633489089904        0.41650528704612        0.03211788785950
C           -5.77782793207508        1.68737827537610       -0.08752363785169
C           -5.02986436144085        2.84558233533314       -0.04880525077899
C           -3.66118633360011        2.72912220821377        0.15362874791534
C           -3.07366281716502        1.45812905727926        0.27154173759953
O           -1.73864162273073        1.55548100467368        0.49874707583582
C           -1.43694878507758        2.87887848625148        0.51680653885222
C           -0.18272151214097        3.43265489299336        0.70380104798204
C           -0.09734206952495        4.81232534301711        0.67767621217250
C           -1.22334605824390        5.60876071308421        0.47415848610200
C           -2.47333930853253        5.05298795593368        0.28669878443431
C           -2.58297034883805        3.66834873411088        0.30599685110208
C           -3.82594149901705        0.27400595583452        0.17185906537734
C           -1.21424095134259       -1.50061528409146        1.50724975320602
C            0.14107033627852       -1.47627788734758        1.65165827902148
C            0.96313061502401       -1.01105414802750        0.59277080963223
C            0.38172672546366       -0.58524951433487       -0.61812059924841
C            2.39867402615883       -0.97007636441981        0.78254740708893
O            2.94853426110887       -1.29901984889118        1.82807533887481
C            5.27513046218360       -1.62294010187370        0.12072034474779
C            6.64395566101481       -1.56558204868921        0.28462770701862
H            9.06171723606911        1.71163649206564        1.00385061161329
H           10.53748072946544        0.98099393458471        0.38271354730436
H            9.26801440556649        1.45920768447787       -0.73877021181128
H           10.56874747024964       -1.25018438959547       -0.59720264105364
H            9.22518335779469       -0.89500101749388       -1.68823766508185
H            9.14117560783066       -2.28311714508002       -0.60693843318616
H            8.71936426328721       -0.28106027419117        2.53734793655793
H            8.83589545880936       -1.91855398868286        1.90018244585479
H           10.26443574539755       -0.88696422877877        1.93116651950814
H            7.09579521406579        1.74714486296947       -0.13981645747374
H            4.68246413445003        1.65376429782444       -0.41710631526026
H            1.27107624912468        0.60311342705131       -3.67963831474415
H           -1.19464940772763        0.50352483480549       -3.99468307300014
H           -2.64253914341593       -0.26654380508944       -2.17405066655662
H           -2.24527855269531       -3.39960368516686        0.30673970999302
H           -3.51897070866690       -5.48405685891390        0.43476367535861
H           -5.99787808681351       -5.41513994304820        0.42826990435841
H           -7.15013418258715       -3.27612630883305        0.23451091106130
H           -6.18877633760476       -0.97758264313541       -2.11309052262985
H           -7.58259448791835       -1.69399754897239       -1.30506648892562
H           -7.46144020167914        0.05569669926173       -1.46249844121086
H           -6.58445908880411       -0.57306356142932        2.15633353475788
H           -7.71676436108906        0.27691653980582        1.10553416471170
H           -7.80908758473869       -1.47209055341728        1.26059824751055
H           -6.84504526960473        1.77511354474895       -0.21505421668035
H           -5.49316172708786        3.81301069735984       -0.15489832756153
H            0.68005264703257        2.80552897642426        0.85897377965506
H            0.86323614619713        5.28396593530552        0.81698086739594
H           -1.11115436752335        6.68237704675039        0.46175174705260
H           -3.34254715376531        5.67206893677590        0.12694695236442
H           -1.85438336820517       -1.80742594504367        2.32219267920376
H            0.62393470401849       -1.78080260049078        2.56622995911348
H            4.75480345020478       -2.56575205415173        0.19244588589416
H            7.17373902393255       -2.48537670874233        0.48129899829096

 projected vibrational frequencies (cm⁻¹)
eigval :       -0.00    -0.00    -0.00     0.00     0.00     0.00
eigval :        8.45    14.02    16.62    25.96    27.77    33.59
eigval :       41.47    49.30    55.70    68.02    86.75    95.77
eigval :       97.99   103.56   120.51   124.52   125.06   130.53
eigval :      139.34   168.46   174.90   179.77   188.26   191.32
eigval :      196.54   217.48   226.93   235.45   244.19   253.02
eigval :      255.62   273.56   293.03   296.10   309.49   311.55
eigval :      315.48   317.37   328.37   345.58   350.03   361.80
eigval :      368.02   379.81   382.49   388.13   393.44   398.51
eigval :      402.58   417.88   432.76   436.19   453.13   458.61
eigval :      466.48   480.25   488.11   489.35   496.52   514.34
eigval :      519.01   525.72   533.22   540.78   545.47   552.16
eigval :      558.72   569.34   577.76   600.59   605.82   612.13
eigval :      627.35   631.63   651.74   659.04   669.73   686.43
eigval :      689.03   697.79   703.91   707.00   712.48   717.67
eigval :      719.48   756.43   771.60   777.45   778.58   788.22
eigval :      803.78   808.80   811.80   825.43   834.77   841.43
eigval :      847.37   854.60   858.73   872.70   873.89   888.41
eigval :      895.48   903.90   905.28   906.86   909.02   910.97
eigval :      916.86   922.64   924.60   925.42   933.40   941.33
eigval :      957.96   960.65   962.72   963.04   989.44  1005.11
eigval :     1013.39  1024.98  1035.27  1035.46  1059.80  1068.33
eigval :     1095.76  1098.85  1108.23  1114.54  1126.81  1130.61
eigval :     1141.06  1145.01  1149.42  1150.77  1151.04  1167.19
eigval :     1175.95  1181.04  1183.49  1187.61  1194.22  1196.06
eigval :     1201.82  1209.22  1217.79  1227.18  1233.28  1238.92
eigval :     1244.14  1250.51  1255.49  1266.35  1279.77  1283.46
eigval :     1292.58  1296.01  1304.61  1318.34  1323.83  1328.13
eigval :     1333.86  1349.28  1360.51  1369.75  1372.09  1386.48
eigval :     1394.54  1399.18  1402.31  1404.68  1408.98  1410.67
eigval :     1416.13  1419.69  1422.48  1427.27  1434.52  1442.50
eigval :     1466.76  1469.78  1480.74  1484.83  1485.27  1486.55
eigval :     1490.54  1494.03  1496.90  1498.58  1499.65  1501.70
eigval :     1504.83  1513.72  1519.41  1548.96  1556.04  1560.90
eigval :     1568.45  1569.30  1584.21  1586.02  1589.28  1592.24
eigval :     1609.35  1623.98  3020.59  3021.98  3029.08  3029.70
eigval :     3032.18  3033.81  3034.02  3037.74  3039.36  3048.04
eigval :     3049.53  3051.27  3052.79  3056.08  3061.28  3068.91
eigval :     3073.94  3082.74  3083.54  3087.26  3089.53  3091.64
eigval :     3095.14  3095.58  3098.42  3099.24  3102.28  3104.42
eigval :     3110.01  3110.77  3111.46  3113.37  3113.94  3114.61

   temp. (K)  partition function   enthalpy   heat capacity  entropy
                                   cal/mol     cal/K/mol   cal/K/mol   J/K/mol
 298.15  VIB  0.712E+18            23793.242    150.675    146.183
         ROT  0.758E+08              888.752      2.981     39.036
         INT  0.540E+26            24681.995    153.656    185.219
         TR   0.152E+29             1481.254      4.968     45.168
         TOT                       26163.2487   158.6243   230.3876   963.9418

       T/K    H(0)-H(T)+PV         H(T)/Eh          T*S/Eh         G(T)/Eh
   ------------------------------------------------------------------------
    298.15    0.416938E-01    0.681349E+00    0.109465E+00    0.571884E+00
   ------------------------------------------------------------------------

         :::::::::::::::::::::::::::::::::::::::::::::::::::::
         ::                  THERMODYNAMIC                  ::
         :::::::::::::::::::::::::::::::::::::::::::::::::::::
         :: total free energy        -126.957851420508 Eh   ::
         ::.................................................::
         :: total energy             -127.529735514239 Eh   ::
         :: zero point energy           0.639654890598 Eh   ::
         :: G(RRHO) w/o ZPVE           -0.067770796867 Eh   ::
         :: G(RRHO) contrib.            0.571884093731 Eh   ::
         :::::::::::::::::::::::::::::::::::::::::::::::::::::

           -------------------------------------------------
          | TOTAL ENERGY             -127.529735514239 Eh   |
          | TOTAL ENTHALPY           -126.848386832842 Eh   |
          | TOTAL FREE ENERGY        -126.957851420508 Eh   |
          | GRADIENT NORM               0.000112945597 Eh/α |
           -------------------------------------------------

 * finished run on 2025/09/08 at 00:21:15.885
