   * xtb version 6.7.1 (edcfbbe) compiled by 'albert@albert-system' on 2024-07-22

   ID    Z sym.   atoms
    1    8 O      1, 14, 30, 42
    2    6 C      2-6, 8-13, 15-29, 31-34, 36-41, 43-50
    3    7 N      7, 35
    4    1 H      51-78

          program call               : xtb data2507/toluene/o-Px2BBP/o-Px2BBP_toluene_S0_finalOpt.xtbopt.xyz --gfn 2 --uhf 2 --gbsa toluene --ohess vtight --parallel 40 --molden --ceasefiles --namespace data2507/toluene/o-Px2BBP/o-Px2BBP_toluene_T1_preOpt
      * Solvation model:               GBSA
        Solvent                        toluene
        Solvent mass                       9.2140E+01 g/mol
          :  Hamiltonian                  GFN2-xTB          :
 * total energy  :  -130.6241845 Eh     change       -0.1493224E-06 Eh
 * total energy  :  -130.6278709 Eh     change       -0.3686389E-02 Eh
 * total energy  :  -130.6290125 Eh     change       -0.1141559E-02 Eh
 * total energy  :  -130.6292325 Eh     change       -0.2199920E-03 Eh
 * total energy  :  -130.6294596 Eh     change       -0.2271497E-03 Eh
 * total energy  :  -130.6295655 Eh     change       -0.1059347E-03 Eh
 * total energy  :  -130.6296336 Eh     change       -0.6804403E-04 Eh
 * total energy  :  -130.6296750 Eh     change       -0.4137746E-04 Eh
 * total energy  :  -130.6297071 Eh     change       -0.3209106E-04 Eh
 * total energy  :  -130.6297315 Eh     change       -0.2448762E-04 Eh
 * total energy  :  -130.6306028 Eh     change       -0.3766966E-06 Eh
 * total energy  :  -130.6306032 Eh     change       -0.4424209E-06 Eh
 * total energy  :  -130.6306037 Eh     change       -0.5124416E-06 Eh
 * total energy  :  -130.6306042 Eh     change       -0.4756214E-06 Eh
 * total energy  :  -130.6306045 Eh     change       -0.3454284E-06 Eh
 * total energy  :  -130.6306047 Eh     change       -0.2141770E-06 Eh
 * total energy  :  -130.6306049 Eh     change       -0.1649764E-06 Eh
 * total energy  :  -130.6306051 Eh     change       -0.1789082E-06 Eh
 * total energy  :  -130.6306051 Eh     change       -0.1188539E-08 Eh
   *** GEOMETRY OPTIMIZATION CONVERGED AFTER 152 ITERATIONS ***

 final structure:
================
78
 xtb: 6.7.1 (edcfbbe)
O            1.06367706943467       -2.10468945346137       -2.88415123279870
C            0.30128819323553       -2.56420545567248       -2.01432790079300
C           -0.84622037022947       -1.79476319119587       -1.51366566256820
C           -2.03091369690906       -2.40841594038663       -1.07684006252551
C           -3.07458214752089       -1.65542179234815       -0.59884483683424
C           -2.97203259749202       -0.26223558747035       -0.55890942561094
N           -4.01702062656005        0.50565519400042        0.01667165332112
C           -4.25691644902853        0.43111550742502        1.37974002143831
C           -3.50710088209615       -0.38550183668490        2.22796182487958
C           -3.77694307213164       -0.41949469876910        3.58281197923485
C           -4.79075752199657        0.35891786952351        4.12322203360913
C           -5.53700547599778        1.18486396835960        3.30106697887648
C           -5.27480101336315        1.22762057936197        1.94034225935666
O           -6.03204576682508        2.07383086640806        1.18310969553851
C           -5.79698847962962        2.11981636177860       -0.15956016526877
C           -6.59053978421469        2.96542118788565       -0.91967861146469
C           -6.40822382878726        3.03942799029316       -2.28955673633198
C           -5.43861819777469        2.25740632109749       -2.90118502658677
C           -4.64123749421823        1.41325379021008       -2.15246011483478
C           -4.79580940097153        1.33797621281548       -0.76757653215476
C           -1.83981965555466        0.36754762922879       -1.07044470138193
C           -0.80176556518376       -0.39167005547961       -1.55770071783144
C            0.47138844153863       -3.90555461018307       -1.43884083895777
C            0.80516785771099       -5.00802113026995       -2.22437658861527
C            0.82173036612703       -6.27305568813812       -1.67504610056289
C            0.50404836887018       -6.45690677918553       -0.33021870257994
C            0.22165658999023       -5.36962632837838        0.47115626948856
C            0.25053909660288       -4.08110034551814       -0.05779993366902
C            0.09129837360609       -2.89009085686795        0.79219626511509
O           -0.80170512550701       -2.80683411577159        1.65841742338751
C            1.06599013850541       -1.81075959496441        0.60132293302027
C            0.74655613707649       -0.52311892735709        1.06678406003332
C            1.64283817634601        0.51477140405447        0.96423296683873
C            2.89882353221079        0.29100300716368        0.40625039097624
N            3.82775757269396        1.35999587703130        0.29125747951145
C            3.60942920457521        2.37804484733461       -0.62121960051639
C            2.50771336108954        2.38366009762307       -1.47620655651750
C            2.31760725617267        3.42048243700246       -2.36943816246346
C            3.22285940904151        4.47005413547570       -2.43293500303188
C            4.33352959098660        4.47378032214568       -1.60690696154733
C            4.53393102257555        3.43617195145189       -0.70964795405797
O            5.65626203326303        3.48162417989954        0.06566204851609
C            5.86399204713623        2.46591297928788        0.95347938017421
C            7.00488707302398        2.52811520518942        1.73842991197265
C            7.25850424235538        1.53733144480006        2.67107343322681
C            6.36295546576182        0.48926452489799        2.82629447267992
C            5.22315453630656        0.41783396092396        2.04810799050302
C            4.95875590922630        1.39573966593680        1.08903069274842
C            3.24878159477387       -0.99001927028262       -0.02908049733123
C            2.34845562459551       -2.02334174106619        0.07229514263968
H           -2.11714348347946       -3.48471460876421       -1.10551101711214
H           -3.97700903049082       -2.13376650152507       -0.24770159162660
H           -2.71634163940614       -1.00006209202372        1.82633994139695
H           -3.18398929024592       -1.06163003149970        4.21500280477020
H           -4.99751441555023        0.32724499213368        5.18101888153450
H           -6.32600101016591        1.80809014490063        3.69045705433774
H           -7.34407923319470        3.55003772990363       -0.41688174510859
H           -7.02722279406180        3.69842765836269       -2.87695219996829
H           -5.30269254118638        2.30120566854823       -3.97035464519499
H           -3.89561459546893        0.79907452953655       -2.63142716157500
H           -1.77585574791051        1.44598712563325       -1.06126987295300
H            0.08693666031658        0.06992232724906       -1.96069864210687
H            1.01514550426891       -4.85071054368267       -3.27336204123081
H            1.06338387810826       -7.12644909505289       -2.29179789006617
H            0.49749620682601       -7.45248718118078        0.08898383417927
H            0.00786196440858       -5.49350008779649        1.52387291378068
H           -0.22519365587116       -0.37154161183089        1.51147573997530
H            1.38188976639070        1.50201043153021        1.31712110787148
H            1.81303860814259        1.56055541701521       -1.43595428154889
H            1.45901701441089        3.40389911926773       -3.02227327694127
H            3.07110824248119        5.27925779164398       -3.12913930872818
H            5.06179742990978        5.26799185635639       -1.64264551744462
H            7.67532654143016        3.36140057022345        1.60219903322714
H            8.14781367011367        1.58905902349589        3.27848282801929
H            6.54941328347800       -0.27889171830656        3.56027414590140
H            4.52481909056664       -0.39339023209703        2.17733485498244
H            4.22902412545383       -1.16099496713219       -0.44939526954344
H            2.63402432318940       -3.01105231041879       -0.25836006545950

          :  Hamiltonian                  GFN2-xTB          :
         :: gradient norm              0.000029270814 Eh/a0 ::
         :: HOMO-LUMO gap              0.665348808647 eV    ::
         :: SCC energy              -132.826072172342 Eh    ::
         :: -> dispersion             -0.118238130478 Eh    ::
         :: -> Gsolv                  -0.068728073075 Eh    ::
         :: repulsion energy           2.195467077466 Eh    ::

    * Orbital Energies and Occupations

         #    Occupation            Energy/Eh            Energy/eV
      -------------------------------------------------------------
         1        2.0000           -0.7568613             -20.5952
       ...           ...                  ...                  ...
       108        2.0000           -0.4168966             -11.3443
       109        2.0000           -0.4127237             -11.2308
       110        2.0000           -0.4113767             -11.1941
       111        2.0000           -0.4096560             -11.1473
       112        2.0000           -0.4068988             -11.0723
       113        2.0000           -0.4025889             -10.9550
       114        2.0000           -0.4004210             -10.8960
       115        2.0000           -0.3956021             -10.7649
       116        2.0000           -0.3751749             -10.2090
       117        1.9989           -0.3682572             -10.0208
       118        1.5521           -0.3619575              -9.8494
       119        1.4490           -0.3615641              -9.8387
       120        1.0000           -0.2868655              -7.8060 (HOMO)
       121        0.0000           -0.2624144              -7.1407 (LUMO)
       122        0.0000           -0.2600903              -7.0774
       123        0.0000           -0.2599450              -7.0735
       124                         -0.2473945              -6.7319
       125                         -0.2469382              -6.7195
       126                         -0.2372978              -6.4572
       127                         -0.2340917              -6.3700
       128                         -0.2318984              -6.3103
       129                         -0.2294485              -6.2436
       130                         -0.2272734              -6.1844
       131                         -0.2231801              -6.0730
       ...                                ...                  ...
       228                          0.6793252              18.4854
      -------------------------------------------------------------
                  HL-Gap            0.0244511 Eh            0.6653 eV

     #   Z          covCN         q      C6AA      α(0)
     1   8 O        0.857    -0.506    23.915     6.557
     2   6 C        2.830     0.194    23.858     8.004
     3   6 C        2.971    -0.021    28.523     8.760
     4   6 C        2.920    -0.027    28.666     8.780
     5   6 C        2.917    -0.036    28.904     8.816
     6   6 C        2.926     0.043    27.033     8.527
     7   7 N        2.752    -0.017    21.581     6.900
     8   6 C        2.926     0.048    26.931     8.510
     9   6 C        2.919    -0.046    29.149     8.854
    10   6 C        2.918    -0.026    28.650     8.777
    11   6 C        2.918    -0.027    28.682     8.782
    12   6 C        2.916    -0.051    29.269     8.872
    13   6 C        2.885     0.131    25.129     8.218
    14   8 O        1.709    -0.220    17.649     5.672
    15   6 C        2.885     0.132    25.111     8.215
    16   6 C        2.916    -0.050    29.252     8.869
    17   6 C        2.919    -0.028    28.690     8.784
    18   6 C        2.918    -0.028    28.696     8.784
    19   6 C        2.920    -0.049    29.205     8.862
    20   6 C        2.925     0.047    26.947     8.513
    21   6 C        2.916    -0.040    29.004     8.831
    22   6 C        2.924    -0.029    28.720     8.789
    23   6 C        2.978    -0.026    28.656     8.781
    24   6 C        2.918    -0.027    28.670     8.780
    25   6 C        2.917    -0.036    28.899     8.815
    26   6 C        2.918    -0.036    28.894     8.815
    27   6 C        2.918    -0.027    28.678     8.782
    28   6 C        2.977    -0.025    28.621     8.776
    29   6 C        2.830     0.193    23.894     8.010
    30   8 O        0.857    -0.513    24.068     6.578
    31   6 C        2.969    -0.022    28.554     8.765
    32   6 C        2.925    -0.029    28.727     8.790
    33   6 C        2.915    -0.040    29.002     8.831
    34   6 C        2.924     0.043    27.029     8.526
    35   7 N        2.752    -0.020    21.639     6.909
    36   6 C        2.926     0.047    26.936     8.511
    37   6 C        2.921    -0.047    29.173     8.857
    38   6 C        2.918    -0.028    28.697     8.785
    39   6 C        2.919    -0.028    28.702     8.785
    40   6 C        2.916    -0.051    29.264     8.871
    41   6 C        2.885     0.131    25.127     8.218
    42   8 O        1.709    -0.222    17.688     5.678
    43   6 C        2.885     0.131    25.123     8.217
    44   6 C        2.916    -0.051    29.260     8.870
    45   6 C        2.919    -0.028    28.702     8.785
    46   6 C        2.918    -0.028    28.705     8.786
    47   6 C        2.920    -0.049    29.212     8.863
    48   6 C        2.925     0.047    26.942     8.512
    49   6 C        2.917    -0.038    28.955     8.824
    50   6 C        2.920    -0.029    28.730     8.790
    51   1 H        0.926     0.028     2.612     2.527
    52   1 H        0.926     0.041     2.433     2.439
    53   1 H        0.926     0.063     2.170     2.303
    54   1 H        0.926     0.057     2.236     2.339
    55   1 H        0.926     0.062     2.175     2.306
    56   1 H        0.926     0.069     2.094     2.263
    57   1 H        0.926     0.069     2.099     2.266
    58   1 H        0.926     0.063     2.165     2.301
    59   1 H        0.926     0.060     2.201     2.320
    60   1 H        0.926     0.056     2.249     2.345
    61   1 H        0.926     0.047     2.363     2.404
    62   1 H        0.926     0.036     2.497     2.471
    63   1 H        0.925     0.030     2.592     2.517
    64   1 H        0.926     0.034     2.534     2.489
    65   1 H        0.926     0.034     2.528     2.487
    66   1 H        0.925     0.030     2.592     2.518
    67   1 H        0.926     0.039     2.456     2.451
    68   1 H        0.926     0.045     2.384     2.415
    69   1 H        0.926     0.052     2.291     2.367
    70   1 H        0.926     0.058     2.220     2.330
    71   1 H        0.926     0.062     2.170     2.304
    72   1 H        0.926     0.068     2.104     2.268
    73   1 H        0.926     0.068     2.105     2.269
    74   1 H        0.926     0.062     2.175     2.306
    75   1 H        0.926     0.058     2.219     2.329
    76   1 H        0.926     0.054     2.274     2.358
    77   1 H        0.926     0.040     2.443     2.444
    78   1 H        0.926     0.028     2.615     2.529

molecular dipole:
                 x           y           z       tot (Debye)
 q only:       -0.538       5.042       1.181
   full:       -0.462       4.608       1.121      12.112

 projected vibrational frequencies (cm⁻¹)
eigval :       -0.00    -0.00     0.00     0.00     0.00     0.00
eigval :       10.21    14.62    17.04    21.59    28.40    32.55
eigval :       39.83    48.64    53.49    58.90    68.08    68.61
eigval :       81.48    91.47   103.70   110.97   117.75   127.32
eigval :      132.78   152.99   162.66   170.89   180.25   209.01
eigval :      216.32   229.43   244.32   244.81   251.19   258.24
eigval :      276.37   278.66   287.49   301.77   323.87   335.87
eigval :      371.80   374.45   379.17   381.74   387.79   394.47
eigval :      396.04   399.52   417.10   420.09   432.18   435.87
eigval :      446.86   451.54   459.21   465.47   471.45   476.93
eigval :      495.12   496.69   525.28   528.99   530.04   537.78
eigval :      546.69   551.47   580.92   581.83   589.20   589.79
eigval :      604.09   606.33   615.14   624.79   629.22   647.10
eigval :      666.28   669.17   670.18   673.34   673.88   678.63
eigval :      679.52   685.81   718.34   724.87   748.24   776.87
eigval :      777.76   778.18   779.64   785.39   797.78   798.12
eigval :      802.41   806.74   851.25   853.05   855.51   856.35
eigval :      864.59   868.24   869.33   877.74   881.99   886.21
eigval :      897.41   898.20   901.75   903.25   904.17   904.91
eigval :      910.83   912.18   913.64   914.15   916.81   917.29
eigval :      919.02   920.67   921.02   921.71   930.19   933.96
eigval :      949.90  1006.86  1010.87  1076.50  1080.05  1080.27
eigval :     1081.72  1083.42  1095.46  1113.43  1114.43  1118.97
eigval :     1120.53  1126.74  1131.92  1158.63  1163.65  1166.59
eigval :     1168.66  1169.41  1169.97  1172.68  1179.85  1183.85
eigval :     1190.78  1201.52  1207.64  1208.49  1212.50  1224.08
eigval :     1231.42  1235.13  1235.16  1248.42  1249.78  1253.40
eigval :     1255.21  1260.45  1262.66  1301.70  1304.76  1307.12
eigval :     1308.77  1315.77  1316.43  1328.00  1329.83  1334.37
eigval :     1339.94  1345.59  1407.75  1409.04  1415.71  1415.85
eigval :     1420.65  1427.95  1429.41  1432.48  1436.75  1437.85
eigval :     1448.01  1453.23  1458.31  1478.62  1484.55  1508.04
eigval :     1510.95  1537.47  1549.39  1550.58  1551.40  1555.04
eigval :     1559.07  1560.00  1562.96  1569.23  1571.97  1578.96
eigval :     1581.74  1592.36  3065.24  3066.60  3074.53  3075.69
eigval :     3076.76  3077.09  3078.42  3085.69  3088.61  3089.77
eigval :     3092.62  3094.95  3097.55  3097.92  3098.10  3098.32
eigval :     3104.51  3105.55  3105.57  3105.85  3111.14  3113.37
eigval :     3113.59  3114.97  3115.67  3116.70  3116.90  3118.53

   temp. (K)  partition function   enthalpy   heat capacity  entropy
                                   cal/mol     cal/K/mol   cal/K/mol   J/K/mol
 298.15  VIB  0.864E+18            23197.665    147.001    143.805
         ROT  0.853E+08              888.752      2.981     39.272
         INT  0.737E+26            24086.418    149.982    183.077
         TR   0.160E+29             1481.254      4.968     45.271
         TOT                       25567.6715   154.9500   228.3482   955.4087

       T/K    H(0)-H(T)+PV         H(T)/Eh          T*S/Eh         G(T)/Eh
   ------------------------------------------------------------------------
    298.15    0.407447E-01    0.620126E+00    0.108496E+00    0.511631E+00
   ------------------------------------------------------------------------

         :::::::::::::::::::::::::::::::::::::::::::::::::::::
         ::                  THERMODYNAMIC                  ::
         :::::::::::::::::::::::::::::::::::::::::::::::::::::
         :: total free energy        -130.118974295627 Eh   ::
         ::.................................................::
         :: total energy             -130.630605090535 Eh   ::
         :: zero point energy           0.579381699275 Eh   ::
         :: G(RRHO) w/o ZPVE           -0.067750904367 Eh   ::
         :: G(RRHO) contrib.            0.511630794908 Eh   ::
         :::::::::::::::::::::::::::::::::::::::::::::::::::::

           -------------------------------------------------
          | TOTAL ENERGY             -130.630605090535 Eh   |
          | TOTAL ENTHALPY           -130.010478713165 Eh   |
          | TOTAL FREE ENERGY        -130.118974295627 Eh   |
          | GRADIENT NORM               0.000038315397 Eh/α |
          | HOMO-LUMO GAP               0.665348028148 eV   |
           -------------------------------------------------

 * finished run on 2025/08/23 at 06:04:14.515
