   * xtb version 6.7.1 (edcfbbe) compiled by 'albert@albert-system' on 2024-07-22

   ID    Z sym.   atoms
    1    8 O      1, 14, 30, 42
    2    6 C      2-6, 8-13, 15-29, 31-34, 36-41, 43-50
    3    7 N      7, 35
    4    1 H      51-78

          program call               : xtb data2507/toluene/o-Px2BBP/o-Px2BBP_toluene_T1_crest.xyz --gfn 2 --uhf 2 --gbsa toluene --ohess vtight --parallel 40 --molden --ceasefiles --namespace data2507/toluene/o-Px2BBP/o-Px2BBP_toluene_T1_finalOpt
      * Solvation model:               GBSA
        Solvent                        toluene
        Solvent mass                       9.2140E+01 g/mol
          :  Hamiltonian                  GFN2-xTB          :
 * total energy  :  -130.6307813 Eh     change       -0.5701850E-08 Eh
 * total energy  :  -130.6310882 Eh     change       -0.3068954E-03 Eh
 * total energy  :  -130.6312549 Eh     change       -0.1667215E-03 Eh
 * total energy  :  -130.6312940 Eh     change       -0.3907836E-04 Eh
 * total energy  :  -130.6313554 Eh     change       -0.6136626E-04 Eh
 * total energy  :  -130.6313746 Eh     change       -0.1927626E-04 Eh
 * total energy  :  -130.6313903 Eh     change       -0.1562872E-04 Eh
 * total energy  :  -130.6313981 Eh     change       -0.7860699E-05 Eh
 * total energy  :  -130.6314114 Eh     change       -0.1328560E-04 Eh
 * total energy  :  -130.6314157 Eh     change       -0.4305910E-05 Eh
 * total energy  :  -130.6314891 Eh     change       -0.4782763E-06 Eh
 * total energy  :  -130.6314898 Eh     change       -0.6984032E-06 Eh
 * total energy  :  -130.6314905 Eh     change       -0.7619412E-06 Eh
 * total energy  :  -130.6314916 Eh     change       -0.1092960E-05 Eh
 * total energy  :  -130.6314931 Eh     change       -0.1421801E-05 Eh
 * total energy  :  -130.6314944 Eh     change       -0.1330969E-05 Eh
 * total energy  :  -130.6314954 Eh     change       -0.1026852E-05 Eh
 * total energy  :  -130.6314962 Eh     change       -0.7752020E-06 Eh
 * total energy  :  -130.6314962 Eh     change       -0.5173547E-08 Eh
   *** GEOMETRY OPTIMIZATION CONVERGED AFTER 44 ITERATIONS ***

 final structure:
================
78
 xtb: 6.7.1 (edcfbbe)
O            1.17346746466009       -2.44877783954644       -2.16663763540409
C            0.24579326966717       -2.74673768713578       -1.39065441847297
C           -0.86627823748193       -1.82539869775198       -1.13157367602940
C           -2.14476166142248       -2.27102794753430       -0.75974723696819
C           -3.14906466607444       -1.37497334083525       -0.48935737717210
C           -2.91130332842568       -0.00252575525304       -0.60294966886103
N           -3.92383787823441        0.92270384347224       -0.23814020011938
C           -4.27718675296449        1.06662143425333        1.09421466344897
C           -3.68346018920274        0.31622583414914        2.11028549889100
C           -4.06017706778995        0.50213345624273        3.42686876534654
C           -5.02804498739179        1.43850586731290        3.76117421924913
C           -5.62014822296156        2.20085475934555        2.76933972130849
C           -5.25001652297023        2.02290936310135        1.44528302226584
O           -5.85617201491944        2.81543464509956        0.51330997336612
C           -5.50960886045563        2.64853772796296       -0.79562734210375
C           -6.14707943799371        3.44595015544207       -1.73368622795704
C           -5.84706307790501        3.30762112633563       -3.07780967498410
C           -4.91577007605076        2.36293623838203       -3.48482691128218
C           -4.27323374840762        1.56500112716969       -2.55760924555371
C           -4.54766750934915        1.70152101578108       -1.19641758690484
C           -1.67676066527289        0.45414729094967       -1.05672490340537
C           -0.67482449296250       -0.44753472323352       -1.33092735416643
C            0.18212228859662       -4.03883389636922       -0.68772152085357
C            0.43334302749441       -5.24846167053853       -1.33117689225620
C            0.22930864923546       -6.44193898141466       -0.66873818160160
C           -0.23150556131407       -6.44422895712402        0.64634726353081
C           -0.43534934985134       -5.25306892653251        1.31300803054353
C           -0.18387979595195       -4.04121316454446        0.67385770727401
C           -0.24713585481497       -2.75159743863437        1.38138210548968
O           -1.17466809564789       -2.45607683004696        2.15845246006619
C            0.86528332775448       -1.82976931493289        1.12551667978165
C            0.67439596095335       -0.45251639363999        1.32956281674419
C            1.67670513750803        0.44969752027471        1.05841253342504
C            2.91108897193083       -0.00594029230153        0.60316452855779
N            3.92429882202717        0.91985791910942        0.24166095179781
C            4.27848980696068        1.06733325446835       -1.09008549462737
C            3.68327882562018        0.32177295798291       -2.10885261040127
C            4.06068965969161        0.51129677916383       -3.42471326103690
C            5.03087596488061        1.44647821737458       -3.75563140575189
C            5.62462496433943        2.20395709873570       -2.76106106804682
C            5.25372582358926        2.02244005579508       -1.43770099799185
O            5.86162623686577        2.81025702585161       -0.50288210820020
C            5.51318513113965        2.64085193488367        0.80523571106134
C            6.15143467351361        3.43447184538629        1.74598302002169
C            5.84955251680690        3.29360782802870        3.08941790757412
C            4.91555177824312        2.35014258138489        3.49303423448444
C            4.27235558535326        1.55585413496334        2.56315263257290
C            4.54868424655725        1.69496980747088        1.20259877618692
C            3.14826065571432       -1.37811187653247        0.48490289080507
C            2.14358965426785       -2.27466414248399        0.75219467558292
H           -2.33769839823235       -3.33011833948246       -0.67271074029558
H           -4.12448251644597       -1.72367975162040       -0.18360341286437
H           -2.93016302965307       -0.41751450538168        1.86860870878917
H           -3.58727878725408       -0.09309638318985        4.19222240346933
H           -5.31830237514766        1.57905539317744        4.79009189059801
H           -6.36933959708650        2.94223681615812        2.99657023494685
H           -6.87446331359745        4.16251746811199       -1.38742176287538
H           -6.34465179501725        3.93022333484215       -3.80394400828681
H           -4.68863101926702        2.24229954097827       -4.53236811999477
H           -3.55707216211344        0.82455198675668       -2.87631652810622
H           -1.50561592671559        1.51495148493751       -1.16893175152252
H            0.29144941964380       -0.11294013046928       -1.67668853321831
H            0.75510755730092       -5.23093091547963       -2.36332596420826
H            0.40861725189200       -7.37841208991523       -1.17648711296817
H           -0.41097328017544       -7.38246808754096        1.15076929962526
H           -0.75712218977967       -5.23916130441927        2.34520939101673
H           -0.29177909077164       -0.11870170525820        1.67636090929775
H            1.50590843338166        1.51018750488321        1.17406190173773
H            2.92827709263276       -0.41108077560274       -1.86983070779608
H            3.58653134416305       -0.08017966160813       -4.19219027726233
H            5.32166335039673        1.58986204043790       -4.78401156752175
H            6.37576362191123        2.94420154335950       -2.98554825082580
H            6.88090829893086        4.15013984407390        1.40226542540457
H            6.34775749349253        3.91327316005234        3.81763990820015
H            4.68682695358141        2.22754764544637        4.54000321508030
H            3.55416783072073        0.81628182221640        2.87930606313124
H            4.12354709380441       -1.72617393114185        0.17799258039973
H            2.33612232566130       -3.33353362538694        0.66163822442761

          :  Hamiltonian                  GFN2-xTB          :
         :: gradient norm              0.000053877936 Eh/a0 ::
         :: HOMO-LUMO gap              0.689323701442 eV    ::
         :: SCC energy              -132.826577821889 Eh    ::
         :: -> dispersion             -0.118863374133 Eh    ::
         :: -> Gsolv                  -0.067031304901 Eh    ::
         :: repulsion energy           2.195081626268 Eh    ::

    * Orbital Energies and Occupations

         #    Occupation            Energy/Eh            Energy/eV
      -------------------------------------------------------------
         1        2.0000           -0.7562011             -20.5773
       ...           ...                  ...                  ...
       108        2.0000           -0.4167843             -11.3413
       109        2.0000           -0.4120042             -11.2112
       110        2.0000           -0.4107427             -11.1769
       111        2.0000           -0.4082947             -11.1103
       112        2.0000           -0.4067072             -11.0671
       113        2.0000           -0.4028749             -10.9628
       114        2.0000           -0.3995567             -10.8725
       115        2.0000           -0.3956104             -10.7651
       116        2.0000           -0.3755157             -10.2183
       117        1.9995           -0.3685158             -10.0278
       118        1.5898           -0.3616372              -9.8406
       119        1.4107           -0.3609490              -9.8219
       120        1.0000           -0.2871734              -7.8144 (HOMO)
       121        0.0000           -0.2618412              -7.1251 (LUMO)
       122        0.0000           -0.2594453              -7.0599
       123        0.0000           -0.2594390              -7.0597
       124                         -0.2466036              -6.7104
       125                         -0.2465391              -6.7087
       126                         -0.2369963              -6.4490
       127                         -0.2337631              -6.3610
       128                         -0.2316209              -6.3027
       129                         -0.2291724              -6.2361
       130                         -0.2266532              -6.1675
       131                         -0.2226203              -6.0578
       ...                                ...                  ...
       228                          0.6806496              18.5214
      -------------------------------------------------------------
                  HL-Gap            0.0253322 Eh            0.6893 eV

     #   Z          covCN         q      C6AA      α(0)
     1   8 O        0.857    -0.510    24.009     6.569
     2   6 C        2.830     0.194    23.873     8.007
     3   6 C        2.971    -0.022    28.548     8.764
     4   6 C        2.920    -0.028    28.697     8.785
     5   6 C        2.917    -0.037    28.926     8.819
     6   6 C        2.926     0.043    27.027     8.526
     7   7 N        2.752    -0.019    21.618     6.906
     8   6 C        2.926     0.048    26.929     8.510
     9   6 C        2.919    -0.046    29.149     8.854
    10   6 C        2.918    -0.026    28.656     8.778
    11   6 C        2.918    -0.028    28.691     8.784
    12   6 C        2.916    -0.051    29.273     8.872
    13   6 C        2.885     0.131    25.135     8.219
    14   8 O        1.709    -0.221    17.671     5.676
    15   6 C        2.885     0.132    25.118     8.217
    16   6 C        2.916    -0.051    29.258     8.870
    17   6 C        2.919    -0.028    28.700     8.785
    18   6 C        2.918    -0.028    28.703     8.786
    19   6 C        2.920    -0.049    29.210     8.863
    20   6 C        2.925     0.047    26.945     8.513
    21   6 C        2.916    -0.040    29.000     8.831
    22   6 C        2.924    -0.029    28.730     8.790
    23   6 C        2.978    -0.025    28.633     8.777
    24   6 C        2.918    -0.027    28.678     8.782
    25   6 C        2.918    -0.036    28.894     8.815
    26   6 C        2.918    -0.036    28.894     8.815
    27   6 C        2.918    -0.027    28.678     8.782
    28   6 C        2.978    -0.025    28.633     8.777
    29   6 C        2.830     0.194    23.873     8.007
    30   8 O        0.857    -0.510    24.009     6.569
    31   6 C        2.971    -0.022    28.548     8.764
    32   6 C        2.924    -0.029    28.731     8.790
    33   6 C        2.916    -0.040    29.000     8.831
    34   6 C        2.926     0.043    27.027     8.526
    35   7 N        2.752    -0.019    21.618     6.905
    36   6 C        2.926     0.048    26.929     8.510
    37   6 C        2.919    -0.046    29.149     8.854
    38   6 C        2.918    -0.026    28.656     8.778
    39   6 C        2.918    -0.028    28.691     8.784
    40   6 C        2.916    -0.051    29.273     8.872
    41   6 C        2.885     0.131    25.135     8.219
    42   8 O        1.709    -0.221    17.671     5.676
    43   6 C        2.885     0.132    25.118     8.217
    44   6 C        2.916    -0.051    29.258     8.870
    45   6 C        2.919    -0.028    28.700     8.785
    46   6 C        2.918    -0.028    28.703     8.786
    47   6 C        2.920    -0.049    29.211     8.863
    48   6 C        2.925     0.047    26.945     8.513
    49   6 C        2.917    -0.037    28.925     8.819
    50   6 C        2.920    -0.028    28.697     8.785
    51   1 H        0.926     0.028     2.614     2.528
    52   1 H        0.926     0.041     2.440     2.443
    53   1 H        0.926     0.060     2.194     2.316
    54   1 H        0.926     0.057     2.239     2.340
    55   1 H        0.926     0.062     2.178     2.308
    56   1 H        0.926     0.069     2.098     2.265
    57   1 H        0.926     0.068     2.104     2.268
    58   1 H        0.926     0.062     2.170     2.304
    59   1 H        0.926     0.059     2.207     2.323
    60   1 H        0.926     0.055     2.259     2.350
    61   1 H        0.926     0.045     2.389     2.417
    62   1 H        0.926     0.038     2.475     2.460
    63   1 H        0.925     0.030     2.590     2.517
    64   1 H        0.926     0.034     2.529     2.487
    65   1 H        0.926     0.034     2.529     2.487
    66   1 H        0.925     0.030     2.590     2.517
    67   1 H        0.926     0.038     2.475     2.460
    68   1 H        0.926     0.045     2.389     2.417
    69   1 H        0.926     0.060     2.194     2.317
    70   1 H        0.926     0.057     2.239     2.340
    71   1 H        0.926     0.062     2.178     2.308
    72   1 H        0.926     0.069     2.098     2.265
    73   1 H        0.926     0.068     2.104     2.269
    74   1 H        0.926     0.062     2.170     2.304
    75   1 H        0.926     0.059     2.207     2.323
    76   1 H        0.926     0.055     2.259     2.350
    77   1 H        0.926     0.041     2.441     2.443
    78   1 H        0.926     0.028     2.614     2.528

molecular dipole:
                 x           y           z       tot (Debye)
 q only:        0.001       5.018       0.009
   full:        0.001       4.566       0.008      11.605

 projected vibrational frequencies (cm⁻¹)
eigval :       -0.00    -0.00    -0.00    -0.00     0.00     0.00
eigval :        8.04    11.44    12.06    15.85    23.82    34.94
eigval :       44.72    48.46    57.72    58.27    64.69    66.16
eigval :       81.55    92.89   108.67   115.87   121.33   129.60
eigval :      133.54   155.29   165.26   167.56   180.38   210.30
eigval :      215.16   230.32   241.90   242.44   250.79   257.67
eigval :      275.43   277.16   286.05   299.19   325.49   333.88
eigval :      371.33   374.43   377.88   379.20   388.69   394.73
eigval :      395.77   399.11   417.23   419.86   432.48   432.87
eigval :      449.51   451.09   461.10   463.29   470.71   475.96
eigval :      496.24   496.53   525.59   528.65   531.64   539.42
eigval :      545.42   548.27   581.29   582.02   588.87   590.05
eigval :      604.33   606.06   615.01   625.74   629.45   646.90
eigval :      666.45   668.79   670.33   673.64   673.66   678.58
eigval :      679.29   685.34   718.77   725.27   747.95   778.12
eigval :      778.56   778.79   781.85   782.09   796.56   797.28
eigval :      801.74   803.94   847.00   848.78   855.43   855.50
eigval :      871.08   871.21   876.49   876.82   882.61   886.10
eigval :      897.22   900.18   901.03   904.63   905.17   905.70
eigval :      907.31   912.41   912.85   914.03   914.53   916.12
eigval :      919.74   920.10   922.30   929.68   930.24   930.74
eigval :      949.93  1006.17  1010.27  1075.50  1080.32  1080.73
eigval :     1081.49  1082.27  1093.91  1113.62  1113.79  1119.25
eigval :     1120.58  1131.84  1132.81  1159.76  1163.32  1166.31
eigval :     1168.68  1169.01  1169.43  1174.08  1179.34  1183.62
eigval :     1190.50  1201.84  1206.90  1207.35  1212.38  1224.29
eigval :     1230.90  1234.47  1234.51  1248.44  1248.71  1252.62
eigval :     1254.77  1261.47  1261.86  1302.54  1302.65  1308.82
eigval :     1309.83  1315.56  1315.58  1327.18  1330.81  1333.72
eigval :     1339.84  1345.00  1408.04  1409.65  1415.45  1415.56
eigval :     1422.15  1426.14  1430.20  1430.23  1436.49  1437.06
eigval :     1448.68  1453.71  1457.92  1478.79  1486.23  1508.38
eigval :     1511.81  1538.85  1549.86  1549.95  1553.12  1555.88
eigval :     1559.25  1559.30  1562.15  1568.58  1572.30  1578.87
eigval :     1581.43  1593.90  3065.65  3066.78  3074.85  3076.03
eigval :     3076.14  3077.49  3078.12  3086.02  3087.86  3088.62
eigval :     3093.63  3094.94  3098.00  3098.02  3098.59  3098.60
eigval :     3103.87  3103.99  3105.47  3105.90  3110.45  3110.51
eigval :     3112.95  3113.27  3115.27  3115.40  3116.64  3117.09

   temp. (K)  partition function   enthalpy   heat capacity  entropy
                                   cal/mol     cal/K/mol   cal/K/mol   J/K/mol
 298.15  VIB  0.238E+19            23209.422    147.091    144.775
         ROT  0.424E+08              888.752      2.981     37.881
         INT  0.101E+27            24098.174    150.072    182.655
         TR   0.160E+29             1481.254      4.968     45.271
         TOT                       25579.4282   155.0404   227.9263   953.6436

       T/K    H(0)-H(T)+PV         H(T)/Eh          T*S/Eh         G(T)/Eh
   ------------------------------------------------------------------------
    298.15    0.407634E-01    0.620104E+00    0.108295E+00    0.511809E+00
   ------------------------------------------------------------------------

         :::::::::::::::::::::::::::::::::::::::::::::::::::::
         ::                  THERMODYNAMIC                  ::
         :::::::::::::::::::::::::::::::::::::::::::::::::::::
         :: total free energy        -130.119687188896 Eh   ::
         ::.................................................::
         :: total energy             -130.631496193266 Eh   ::
         :: zero point energy           0.579340731371 Eh   ::
         :: G(RRHO) w/o ZPVE           -0.067531727001 Eh   ::
         :: G(RRHO) contrib.            0.511809004370 Eh   ::
         :::::::::::::::::::::::::::::::::::::::::::::::::::::

           -------------------------------------------------
          | TOTAL ENERGY             -130.631496193266 Eh   |
          | TOTAL ENTHALPY           -130.011392048302 Eh   |
          | TOTAL FREE ENERGY        -130.119687188896 Eh   |
          | GRADIENT NORM               0.000061799871 Eh/α |
          | HOMO-LUMO GAP               0.689323690637 eV   |
           -------------------------------------------------

 * finished run on 2025/08/23 at 06:11:11.224
