   * xtb version 6.7.1 (edcfbbe) compiled by 'albert@albert-system' on 2024-07-22

   ID    Z sym.   atoms
    1    8 O      1, 14, 30, 42
    2    6 C      2-6, 8-13, 15-29, 31-34, 36-41, 43-50
    3    7 N      7, 35
    4    1 H      51-78

          program call               : xtb data2507/toluene/o-Px2BBP/o-Px2BBP_toluene_S0_crest.xyz --gfn 2 --gbsa toluene --ohess vtight --parallel 40 --molden --ceasefiles --namespace data2507/toluene/o-Px2BBP/o-Px2BBP_toluene_S0_finalOpt
      * Solvation model:               GBSA
        Solvent                        toluene
        Solvent mass                       9.2140E+01 g/mol
          :  Hamiltonian                  GFN2-xTB          :
 * total energy  :  -130.6869101 Eh     change       -0.1084743E-08 Eh
 * total energy  :  -130.6870326 Eh     change       -0.1225144E-03 Eh
 * total energy  :  -130.6870904 Eh     change       -0.5781827E-04 Eh
 * total energy  :  -130.6871160 Eh     change       -0.2559789E-04 Eh
 * total energy  :  -130.6871377 Eh     change       -0.2171556E-04 Eh
 * total energy  :  -130.6871658 Eh     change       -0.2809335E-04 Eh
 * total energy  :  -130.6871789 Eh     change       -0.1307910E-04 Eh
 * total energy  :  -130.6871986 Eh     change       -0.1967149E-04 Eh
 * total energy  :  -130.6872033 Eh     change       -0.4749822E-05 Eh
 * total energy  :  -130.6872035 Eh     change       -0.1261548E-06 Eh
 * total energy  :  -130.6873490 Eh     change       -0.3085513E-06 Eh
 * total energy  :  -130.6873493 Eh     change       -0.3387279E-06 Eh
 * total energy  :  -130.6873496 Eh     change       -0.3092182E-06 Eh
 * total energy  :  -130.6873498 Eh     change       -0.2176211E-06 Eh
 * total energy  :  -130.6873500 Eh     change       -0.1427682E-06 Eh
 * total energy  :  -130.6873501 Eh     change       -0.1647695E-06 Eh
 * total energy  :  -130.6873503 Eh     change       -0.2135996E-06 Eh
 * total energy  :  -130.6873506 Eh     change       -0.2198390E-06 Eh
 * total energy  :  -130.6873506 Eh     change       -0.2193815E-08 Eh
   *** GEOMETRY OPTIMIZATION CONVERGED AFTER 68 ITERATIONS ***

 final structure:
================
78
 xtb: 6.7.1 (edcfbbe)
O            1.04764710767148       -2.50012087077553       -2.92908049527847
C            0.30154096613430       -2.83329919373399       -2.02201281946908
C           -0.80114167150541       -1.97490970897206       -1.54754254390278
C           -1.95795463730147       -2.50583346659551       -0.97378683314551
C           -2.94247765596955       -1.66880032457902       -0.49460259752629
C           -2.78709508222099       -0.28409202670667       -0.56469411177085
N           -3.75993323286316        0.56620654814404       -0.01540187888377
C           -4.08034040908588        0.49675539272530        1.34785827139608
C           -3.46404289839854       -0.39471450332233        2.21870708505522
C           -3.79489605136785       -0.42064041190230        3.56488006401033
C           -4.74067314211829        0.44930753342632        4.06990777537836
C           -5.34421339746245        1.36514179806650        3.22163920696270
C           -5.01386989361653        1.39730944189485        1.87846321231664
O           -5.62966998597155        2.36139282716859        1.11618212052445
C           -5.32816033691029        2.39693983822091       -0.22360099970832
C           -5.98995544242966        3.34173728610160       -0.98749841430376
C           -5.76793797539774        3.41716384943133       -2.35422397706106
C           -4.89780455083859        2.52630658609322       -2.95101818720237
C           -4.23162536505379        1.57891395175237       -2.18890316245337
C           -4.41224006725830        1.51516240350650       -0.81194221578237
C           -1.65451448984964        0.24916193442091       -1.18420706399454
C           -0.68382840695625       -0.58957899332976       -1.68291505930408
C            0.44530248723693       -4.14642353079812       -1.33683311753771
C            0.69845783679476       -5.27619122686658       -2.10861174119753
C            0.78076494504712       -6.52709716883962       -1.52283876496983
C            0.61017304937156       -6.66152973705259       -0.15395343395450
C            0.37798488104821       -5.54290142198684        0.62740358401486
C            0.31150343403077       -4.27759761861503        0.05335747920078
C            0.12084877416480       -3.10532490081807        0.95348511036241
O           -0.73205094572816       -3.11156222329295        1.82781018332789
C            1.04175815999907       -1.96613455415258        0.76959926586279
C            0.67909908878298       -0.72387296975217        1.29670785758823
C            1.49464185475660        0.37403703542043        1.14113074485530
C            2.71159832527461        0.24933165019228        0.46848256895975
N            3.54746652986470        1.36602368589075        0.29716637881638
C            3.10367622643301        2.49400138540430       -0.40479075472597
C            1.83362612627298        2.57372703148915       -0.96397789837138
C            1.43063267282762        3.70287156759618       -1.66037656838857
C            2.29226152085966        4.76978430010873       -1.82051781932787
C            3.57433132530423        4.69395095814942       -1.29802406370813
C            3.98202331767339        3.56705355562961       -0.60670295548123
O            5.28091588239067        3.55481399299959       -0.15814106439053
C            5.69355350869751        2.45423001831803        0.55350660805611
C            6.98711052035735        2.47744406278455        1.04341279602354
C            7.46649711784527        1.42187709874421        1.80416002224437
C            6.63385007051795        0.35803536368825        2.08994880028032
C            5.33734885560863        0.33036580197913        1.59977288344090
C            4.85412299976620        1.36024377354564        0.80080473544904
C            3.09794217629504       -0.99824215203991       -0.02311883042769
C            2.27292294746457       -2.09329042116505        0.12324215577575
H           -2.09875614043203       -3.57505772816844       -0.92374529856704
H           -3.84092120269008       -2.08191916735398       -0.06157230039808
H           -2.71483001636373       -1.07843861790549        1.85193727629056
H           -3.29923367797054       -1.12947540858990        4.21018347965418
H           -5.00579651763891        0.43016575963835        5.11519726612620
H           -6.07283294481587        2.07339131361166        3.58382475112225
H           -6.67999399008188        4.00593010215942       -0.49126049395056
H           -6.28513621085689        4.15958227654208       -2.94118289179195
H           -4.73219262793275        2.55553117376437       -4.01698981551728
H           -3.57136633369525        0.87684529664404       -2.67288484604903
H           -1.54107960019034        1.32060706684530       -1.25103164150347
H            0.20376654915584       -0.19484724652243       -2.15511744919843
H            0.81238050468915       -5.15483908798947       -3.17595689483814
H            0.97176297892506       -7.39539591607744       -2.13480458859621
H            0.66256195829979       -7.63602895756414        0.30715784788026
H            0.25859818446521       -5.63136137338501        1.69736318096750
H           -0.25769743655766       -0.64109396294055        1.82690163215791
H            1.20633869707076        1.32984768800547        1.55198779159200
H            1.15631277905643        1.74140340476721       -0.86246725949220
H            0.43781653442418        3.73811942319542       -2.08174123390101
H            1.98276740601426        5.65292125068198       -2.35662200728217
H            4.28228983962939        5.49809374140969       -1.42321902546938
H            7.60103948420734        3.33599872708851        0.82086766435283
H            8.47782780554915        1.44646720857054        2.17804808065191
H            6.98292995207295       -0.45962508989786        2.70155523027372
H            4.69259023938292       -0.49739003213870        1.84907773679912
H            4.04414690521551       -1.09877053683224       -0.53335813505876
H            2.59350765856499       -3.05100806645426       -0.25732427127482

          :  Hamiltonian                  GFN2-xTB          :
         :: gradient norm              0.000032320675 Eh/a0 ::
         :: HOMO-LUMO gap              1.152055402132 eV    ::
         :: SCC energy              -132.897254069592 Eh    ::
         :: -> dispersion             -0.117881138746 Eh    ::
         :: -> Gsolv                  -0.052499137392 Eh    ::
         :: repulsion energy           2.209903502266 Eh    ::

    * Orbital Energies and Occupations

         #    Occupation            Energy/Eh            Energy/eV
      -------------------------------------------------------------
         1        2.0000           -0.7338053             -19.9679
       ...           ...                  ...                  ...
       107        2.0000           -0.4259435             -11.5905
       108        2.0000           -0.4233172             -11.5190
       109        2.0000           -0.4201572             -11.4331
       110        2.0000           -0.4197113             -11.4209
       111        2.0000           -0.4188543             -11.3976
       112        2.0000           -0.4167529             -11.3404
       113        2.0000           -0.4159429             -11.3184
       114        2.0000           -0.4081441             -11.1062
       115        2.0000           -0.3997881             -10.8788
       116        2.0000           -0.3944950             -10.7348
       117        2.0000           -0.3936010             -10.7104
       118        2.0000           -0.3494607              -9.5093
       119        2.0000           -0.3484417              -9.4816 (HOMO)
       120                         -0.3061044              -8.3295 (LUMO)
       121                         -0.2915147              -7.9325
       122                         -0.2548623              -6.9352
       123                         -0.2482094              -6.7541
       124                         -0.2462519              -6.7009
       125                         -0.2440554              -6.6411
       126                         -0.2424989              -6.5987
       127                         -0.2417093              -6.5772
       128                         -0.2337262              -6.3600
       129                         -0.2328636              -6.3365
       130                         -0.2218926              -6.0380
       ...                                ...                  ...
       228                          0.6716107              18.2755
      -------------------------------------------------------------
                  HL-Gap            0.0423373 Eh            1.1521 eV

     #   Z          covCN         q      C6AA      α(0)
     1   8 O        0.857    -0.412    21.918     6.277
     2   6 C        2.829     0.227    23.234     7.899
     3   6 C        2.973    -0.023    28.566     8.767
     4   6 C        2.920    -0.022    28.564     8.764
     5   6 C        2.920    -0.037    28.913     8.818
     6   6 C        2.921     0.074    26.355     8.419
     7   7 N        2.750    -0.065    22.493     7.044
     8   6 C        2.920     0.041    27.087     8.535
     9   6 C        2.923    -0.058    29.451     8.900
    10   6 C        2.919    -0.037    28.918     8.818
    11   6 C        2.919    -0.039    28.970     8.826
    12   6 C        2.920    -0.057    29.415     8.894
    13   6 C        2.883     0.124    25.287     8.244
    14   8 O        1.709    -0.267    18.421     5.795
    15   6 C        2.883     0.124    25.275     8.242
    16   6 C        2.919    -0.057    29.413     8.894
    17   6 C        2.919    -0.039    28.969     8.826
    18   6 C        2.919    -0.038    28.947     8.823
    19   6 C        2.924    -0.059    29.467     8.902
    20   6 C        2.921     0.041    27.083     8.534
    21   6 C        2.919    -0.040    29.002     8.831
    22   6 C        2.923    -0.018    28.463     8.749
    23   6 C        2.973    -0.011    28.295     8.725
    24   6 C        2.923    -0.017    28.430     8.744
    25   6 C        2.918    -0.021    28.536     8.760
    26   6 C        2.918    -0.020    28.517     8.757
    27   6 C        2.923    -0.017    28.445     8.746
    28   6 C        2.972    -0.010    28.268     8.721
    29   6 C        2.828     0.227    23.230     7.898
    30   8 O        0.858    -0.414    21.954     6.282
    31   6 C        2.971    -0.022    28.562     8.766
    32   6 C        2.924    -0.017    28.446     8.747
    33   6 C        2.919    -0.040    28.988     8.829
    34   6 C        2.921     0.074    26.345     8.417
    35   7 N        2.750    -0.065    22.497     7.045
    36   6 C        2.920     0.041    27.081     8.534
    37   6 C        2.924    -0.061    29.505     8.908
    38   6 C        2.919    -0.038    28.944     8.822
    39   6 C        2.919    -0.039    28.974     8.827
    40   6 C        2.920    -0.057    29.408     8.893
    41   6 C        2.883     0.124    25.278     8.243
    42   8 O        1.709    -0.267    18.424     5.795
    43   6 C        2.883     0.124    25.278     8.243
    44   6 C        2.920    -0.057    29.412     8.893
    45   6 C        2.919    -0.039    28.970     8.826
    46   6 C        2.919    -0.038    28.946     8.823
    47   6 C        2.924    -0.059    29.464     8.902
    48   6 C        2.921     0.041    27.082     8.534
    49   6 C        2.920    -0.037    28.928     8.820
    50   6 C        2.919    -0.024    28.593     8.769
    51   1 H        0.926     0.047     2.359     2.402
    52   1 H        0.926     0.055     2.253     2.347
    53   1 H        0.926     0.045     2.388     2.417
    54   1 H        0.926     0.044     2.401     2.423
    55   1 H        0.926     0.045     2.389     2.417
    56   1 H        0.926     0.051     2.310     2.377
    57   1 H        0.926     0.051     2.311     2.377
    58   1 H        0.926     0.045     2.383     2.414
    59   1 H        0.926     0.044     2.397     2.421
    60   1 H        0.926     0.041     2.430     2.438
    61   1 H        0.926     0.057     2.237     2.339
    62   1 H        0.926     0.054     2.272     2.357
    63   1 H        0.926     0.054     2.271     2.357
    64   1 H        0.926     0.058     2.225     2.333
    65   1 H        0.926     0.058     2.221     2.330
    66   1 H        0.926     0.053     2.286     2.364
    67   1 H        0.926     0.056     2.241     2.341
    68   1 H        0.926     0.057     2.234     2.337
    69   1 H        0.926     0.042     2.417     2.431
    70   1 H        0.926     0.043     2.405     2.425
    71   1 H        0.926     0.045     2.381     2.413
    72   1 H        0.926     0.051     2.311     2.377
    73   1 H        0.926     0.051     2.309     2.376
    74   1 H        0.926     0.045     2.381     2.413
    75   1 H        0.926     0.044     2.398     2.421
    76   1 H        0.926     0.041     2.441     2.443
    77   1 H        0.926     0.054     2.265     2.354
    78   1 H        0.926     0.047     2.356     2.400

molecular dipole:
                 x           y           z       tot (Debye)
 q only:        0.084      -0.542       0.080
   full:        0.120      -0.735       0.059       1.900

 projected vibrational frequencies (cm⁻¹)
eigval :       -0.00    -0.00    -0.00     0.00     0.00     0.00
eigval :       11.40    13.92    16.63    20.15    28.93    33.91
eigval :       40.34    45.25    49.85    52.62    62.26    65.09
eigval :       91.83    93.31   106.66   123.34   126.85   132.50
eigval :      137.55   151.40   166.98   168.66   183.37   207.49
eigval :      212.87   226.14   242.36   247.76   252.47   259.92
eigval :      275.75   277.58   287.14   297.87   324.51   333.12
eigval :      363.40   369.44   377.63   379.20   386.53   391.36
eigval :      392.81   397.52   419.23   420.19   433.74   434.21
eigval :      448.53   449.79   458.71   463.09   473.56   483.10
eigval :      508.94   509.73   522.79   523.57   532.33   543.53
eigval :      552.28   559.40   584.55   585.00   590.78   592.66
eigval :      607.37   609.93   621.90   642.01   643.54   659.61
eigval :      661.21   662.53   664.33   665.42   668.83   686.93
eigval :      697.08   717.50   724.98   744.84   752.13   778.20
eigval :      779.77   780.38   783.25   786.91   799.67   800.39
eigval :      825.33   827.51   854.08   854.17   863.85   867.02
eigval :      868.13   873.48   877.09   880.74   886.68   888.82
eigval :      898.54   900.63   901.43   902.52   905.19   914.52
eigval :      914.90   915.53   915.80   916.29   921.11   921.39
eigval :      929.16   929.81   931.98   935.26   937.40   940.79
eigval :      955.84  1014.23  1019.49  1088.33  1089.61  1089.80
eigval :     1091.15  1092.11  1095.19  1106.37  1107.53  1117.87
eigval :     1119.05  1133.62  1134.62  1167.09  1168.25  1168.45
eigval :     1172.36  1172.64  1173.33  1178.28  1182.00  1185.97
eigval :     1187.87  1197.61  1199.66  1200.78  1219.05  1223.81
eigval :     1236.13  1241.66  1241.84  1250.84  1259.34  1260.13
eigval :     1261.46  1262.89  1265.17  1303.27  1304.04  1305.90
eigval :     1307.90  1312.41  1317.80  1318.79  1332.19  1333.27
eigval :     1349.77  1350.39  1404.97  1406.53  1411.91  1421.86
eigval :     1422.16  1439.89  1440.53  1446.34  1469.60  1470.84
eigval :     1476.31  1477.29  1499.36  1499.92  1548.52  1549.38
eigval :     1560.69  1566.81  1567.06  1571.20  1572.83  1575.08
eigval :     1577.95  1578.26  1587.81  1588.30  1599.68  1600.25
eigval :     1650.39  1654.68  3082.68  3084.61  3086.20  3088.05
eigval :     3088.36  3088.45  3088.98  3089.50  3089.97  3090.25
eigval :     3091.72  3097.07  3097.25  3097.57  3097.59  3098.61
eigval :     3099.19  3100.07  3100.34  3100.61  3105.47  3105.88
eigval :     3106.15  3108.94  3110.26  3110.30  3110.96  3115.47

   temp. (K)  partition function   enthalpy   heat capacity  entropy
                                   cal/mol     cal/K/mol   cal/K/mol   J/K/mol
 298.15  VIB  0.829E+18            23094.795    145.883    142.957
         ROT  0.812E+08              888.752      2.981     39.175
         INT  0.673E+26            23983.547    148.864    182.131
         TR   0.160E+29             1481.254      4.968     45.271
         TOT                       25464.8009   153.8320   227.4023   951.4514

       T/K    H(0)-H(T)+PV         H(T)/Eh          T*S/Eh         G(T)/Eh
   ------------------------------------------------------------------------
    298.15    0.405807E-01    0.622851E+00    0.108046E+00    0.514805E+00
   ------------------------------------------------------------------------

         :::::::::::::::::::::::::::::::::::::::::::::::::::::
         ::                  THERMODYNAMIC                  ::
         :::::::::::::::::::::::::::::::::::::::::::::::::::::
         :: total free energy        -130.172545371930 Eh   ::
         ::.................................................::
         :: total energy             -130.687350567673 Eh   ::
         :: zero point energy           0.582270646759 Eh   ::
         :: G(RRHO) w/o ZPVE           -0.067465451016 Eh   ::
         :: G(RRHO) contrib.            0.514805195743 Eh   ::
         :::::::::::::::::::::::::::::::::::::::::::::::::::::

           -------------------------------------------------
          | TOTAL ENERGY             -130.687350567673 Eh   |
          | TOTAL ENTHALPY           -130.064499177650 Eh   |
          | TOTAL FREE ENERGY        -130.172545371930 Eh   |
          | GRADIENT NORM               0.000032308713 Eh/α |
          | HOMO-LUMO GAP               1.152055865576 eV   |
           -------------------------------------------------

 * finished run on 2025/08/23 at 06:03:59.809
