   * xtb version 6.7.1 (edcfbbe) compiled by 'albert@albert-system' on 2024-07-22

   ID    Z sym.   atoms
    1    8 O      1, 14, 30, 42
    2    6 C      2-6, 8-13, 15-29, 31-34, 36-41, 43-50
    3    7 N      7, 35
    4    1 H      51-78

          program call               : xtb data2507/toluene/o-Px2BBP/o-Px2BBP.xyz --gfn 2 --gbsa toluene --ohess vtight --parallel 40 --molden --ceasefiles --namespace data2507/toluene/o-Px2BBP/o-Px2BBP_toluene_S0_preOpt
      * Solvation model:               GBSA
        Solvent                        toluene
        Solvent mass                       9.2140E+01 g/mol
          :  Hamiltonian                  GFN2-xTB          :
 * total energy  :  -130.6603600 Eh     change       -0.5337000E-08 Eh
 * total energy  :  -130.6718413 Eh     change       -0.1148136E-01 Eh
 * total energy  :  -130.6758160 Eh     change       -0.3974674E-02 Eh
 * total energy  :  -130.6771987 Eh     change       -0.1382657E-02 Eh
 * total energy  :  -130.6783744 Eh     change       -0.1175720E-02 Eh
 * total energy  :  -130.6790080 Eh     change       -0.6336152E-03 Eh
 * total energy  :  -130.6792894 Eh     change       -0.2814150E-03 Eh
 * total energy  :  -130.6794215 Eh     change       -0.1321100E-03 Eh
 * total energy  :  -130.6795003 Eh     change       -0.7875709E-04 Eh
 * total energy  :  -130.6795617 Eh     change       -0.6146852E-04 Eh
 * total energy  :  -130.6849714 Eh     change       -0.1295931E-05 Eh
 * total energy  :  -130.6849731 Eh     change       -0.1675409E-05 Eh
 * total energy  :  -130.6849744 Eh     change       -0.1373827E-05 Eh
 * total energy  :  -130.6849749 Eh     change       -0.4289093E-06 Eh
 * total energy  :  -130.6849757 Eh     change       -0.7731715E-06 Eh
 * total energy  :  -130.6849758 Eh     change       -0.1878190E-06 Eh
 * total energy  :  -130.6849758 Eh     change        0.4118996E-07 Eh
 * total energy  :  -130.6849760 Eh     change       -0.1527839E-06 Eh
 * total energy  :  -130.6849760 Eh     change       -0.4846925E-08 Eh
   *** GEOMETRY OPTIMIZATION CONVERGED AFTER 127 ITERATIONS ***

 final structure:
================
78
 xtb: 6.7.1 (edcfbbe)
O           -0.42971064575103       -0.19806013105445        1.39793673285645
C           -1.14448021226841        0.60241589038321        0.81279356669138
C           -2.57432057902654        0.34957646214754        0.55978786655342
C           -3.28318688338444        1.04269926513083       -0.42312344615430
C           -4.61049585518742        0.75106186511174       -0.65901784721305
C           -5.25982287724237       -0.23235258145517        0.08777992394434
N           -6.61617809730396       -0.52213696549960       -0.15022412132826
C           -7.03574036105290       -0.99746726703573       -1.39811465699568
C           -6.14536563566927       -1.25731619252970       -2.43334129391085
C           -6.59482068109337       -1.73247601617841       -3.65598822552115
C           -7.93909026061924       -1.97005707797356       -3.86233170666615
C           -8.83676681565317       -1.75068058356008       -2.82815310611882
C           -8.39263073828007       -1.27828926733984       -1.60641969148522
O           -9.33929696632132       -1.12262421680159       -0.62170669080309
C           -8.90933277037882       -0.67066097583654        0.60325897790960
C           -9.87322967307021       -0.51397395607870        1.58278491555624
C           -9.52710576515148       -0.02702707657784        2.83446894083880
C           -8.21505183025457        0.31920947899135        3.08876875244396
C           -7.24527907528698        0.16185982210668        2.11027450723169
C           -7.56812609650910       -0.35849632518254        0.86243127552531
C           -4.55383807138845       -0.93043124720949        1.06829808234949
C           -3.22431276971871       -0.64747621691674        1.29153858706668
C           -0.59356301283190        1.90641054376476        0.34994386356486
C           -1.17861849464338        3.11035898140811        0.72819910147025
C           -0.58787074250822        4.31078581017222        0.37394714451600
C            0.58877237072734        4.31881292624451       -0.35963932917599
C            1.18349536603752        3.12630892642632       -0.73363579992348
C            0.60196316037448        1.91450170324917       -0.37607962531793
C            1.15828616839198        0.62070255794299       -0.86146023483824
O            0.45120462135271       -0.16563892239582       -1.47421791598262
C            2.58467978770405        0.36185248446470       -0.59539725885380
C            3.24278603684978       -0.62281742976068       -1.33657055866463
C            4.56891908067151       -0.91181387524558       -1.10113210946994
C            5.26272284178310       -0.23268093371579       -0.09889489088811
N            6.61524241397308       -0.52959542973062        0.15243001735507
C            7.01574827573838       -1.03163240804126        1.39599594287840
C            6.10960262016527       -1.31200708820694        2.41201860040477
C            6.54017039007532       -1.81415753910512        3.63069702196187
C            7.88093187057649       -2.05805026718394        3.85187743550160
C            8.79434932794906       -1.81765211997292        2.83625737412082
C            8.36913056901662       -1.31841755540872        1.61848382390161
O            9.33055623964851       -1.14241655500257        0.65160022531059
C            8.91908407000547       -0.66450496467603       -0.56992676519910
C            9.89735421868776       -0.48813490549656       -1.53166406340537
C            9.56996979921265        0.02520700880325       -2.77787954849016
C            8.26188585645075        0.37717840048264       -3.04449554586833
C            7.27767068273646        0.20002389283526       -2.08396463030921
C            7.58201208900691       -0.34596714911886       -0.84244774003741
C            4.60535461414780        0.73863929074078        0.65657058118736
C            3.28169659438469        1.03671949680579        0.40846837852971
H           -2.78811165402791        1.79921257494246       -1.01226123807536
H           -5.15843666878594        1.28745005499936       -1.41931882345619
H           -5.08956485956350       -1.09719635160250       -2.28241891679035
H           -5.87963793286166       -1.91951531572850       -4.44223058348661
H           -8.29506169917783       -2.33567522907978       -4.81251362844660
H           -9.89084864317410       -1.94699316090683       -2.94635829570127
H          -10.89202465894301       -0.77380448868860        1.34159626586030
H          -10.28509365516494        0.08841267116974        3.59300087708786
H           -7.93258334172122        0.72006273805930        4.05007514042857
H           -6.22814352658523        0.45304150990354        2.31891262859242
H           -5.05202008107221       -1.70192066726518        1.63643663333708
H           -2.66002185520264       -1.19192151975805        2.03440772009315
H           -2.08722101738706        3.09853198750812        1.31159764940251
H           -1.04619537161324        5.24154242433380        0.67188150899961
H            1.04460025238680        5.25583840234102       -0.64131086262795
H            2.09248636274999        3.12694672055289       -1.31656724471088
H            2.68737224146467       -1.15324315917032       -2.09610148042001
H            5.07351072256487       -1.67387311561570       -1.67628267683836
H            5.05640870513340       -1.14680298828548        2.24878766920218
H            5.81310151467463       -2.01688724129550        4.40201993628740
H            8.22222330515497       -2.44487449351060        4.79905097427745
H            9.84631679221417       -2.01792563006149        2.96610860388475
H           10.91238811728084       -0.75376849206102       -1.28106687326508
H           10.33922328944069        0.15601460370501       -3.52244618229911
H            7.99383702050446        0.79790352908747       -4.00144613562723
H            6.26367394676312        0.49569940285001       -2.30149400906449
H            5.14428207861801        1.26029635710274        1.43344475825619
H            2.78018346122616        1.78413730982620        1.00371174798114

          :  Hamiltonian                  GFN2-xTB          :
         :: gradient norm              0.000113883922 Eh/a0 ::
         :: HOMO-LUMO gap              1.330748444062 eV    ::
         :: SCC energy              -132.895032168069 Eh    ::
         :: -> dispersion             -0.107566001653 Eh    ::
         :: -> Gsolv                  -0.060545026932 Eh    ::
         :: repulsion energy           2.210056210754 Eh    ::

    * Orbital Energies and Occupations

         #    Occupation            Energy/Eh            Energy/eV
      -------------------------------------------------------------
         1        2.0000           -0.7325043             -19.9325
       ...           ...                  ...                  ...
       107        2.0000           -0.4239470             -11.5362
       108        2.0000           -0.4229034             -11.5078
       109        2.0000           -0.4225975             -11.4995
       110        2.0000           -0.4184699             -11.3871
       111        2.0000           -0.4184220             -11.3858
       112        2.0000           -0.4155463             -11.3076
       113        2.0000           -0.4154659             -11.3054
       114        2.0000           -0.4046618             -11.0114
       115        2.0000           -0.3983863             -10.8406
       116        2.0000           -0.3932604             -10.7012
       117        2.0000           -0.3932222             -10.7001
       118        2.0000           -0.3476054              -9.4588
       119        2.0000           -0.3475383              -9.4570 (HOMO)
       120                         -0.2986342              -8.1263 (LUMO)
       121                         -0.2946256              -8.0172
       122                         -0.2492404              -6.7822
       123                         -0.2479047              -6.7458
       124                         -0.2441180              -6.6428
       125                         -0.2434275              -6.6240
       126                         -0.2411681              -6.5625
       127                         -0.2411062              -6.5608
       128                         -0.2324607              -6.3256
       129                         -0.2324171              -6.3244
       130                         -0.2205206              -6.0007
       ...                                ...                  ...
       228                          0.6714530              18.2712
      -------------------------------------------------------------
                  HL-Gap            0.0489041 Eh            1.3307 eV

     #   Z          covCN         q      C6AA      α(0)
     1   8 O        0.858    -0.423    22.146     6.309
     2   6 C        2.829     0.236    23.074     7.871
     3   6 C        2.972    -0.015    28.390     8.740
     4   6 C        2.920    -0.022    28.547     8.762
     5   6 C        2.920    -0.038    28.954     8.824
     6   6 C        2.921     0.074    26.340     8.416
     7   7 N        2.750    -0.066    22.522     7.048
     8   6 C        2.921     0.041    27.072     8.532
     9   6 C        2.924    -0.059    29.476     8.903
    10   6 C        2.919    -0.038    28.947     8.823
    11   6 C        2.919    -0.040    28.985     8.829
    12   6 C        2.920    -0.057    29.421     8.895
    13   6 C        2.883     0.123    25.289     8.244
    14   8 O        1.708    -0.268    18.449     5.799
    15   6 C        2.883     0.124    25.287     8.244
    16   6 C        2.920    -0.057    29.419     8.895
    17   6 C        2.919    -0.040    28.987     8.829
    18   6 C        2.919    -0.038    28.953     8.824
    19   6 C        2.924    -0.060    29.486     8.905
    20   6 C        2.921     0.041    27.074     8.533
    21   6 C        2.919    -0.038    28.944     8.822
    22   6 C        2.923    -0.015    28.379     8.736
    23   6 C        2.976    -0.004    28.125     8.699
    24   6 C        2.920    -0.025    28.623     8.773
    25   6 C        2.918    -0.022    28.549     8.762
    26   6 C        2.918    -0.022    28.546     8.761
    27   6 C        2.920    -0.025    28.624     8.773
    28   6 C        2.976    -0.004    28.119     8.698
    29   6 C        2.829     0.236    23.068     7.870
    30   8 O        0.858    -0.423    22.141     6.309
    31   6 C        2.972    -0.015    28.387     8.739
    32   6 C        2.923    -0.015    28.378     8.736
    33   6 C        2.919    -0.038    28.943     8.822
    34   6 C        2.921     0.074    26.339     8.416
    35   7 N        2.751    -0.066    22.524     7.049
    36   6 C        2.921     0.041    27.071     8.532
    37   6 C        2.923    -0.059    29.476     8.903
    38   6 C        2.919    -0.038    28.947     8.823
    39   6 C        2.919    -0.040    28.985     8.829
    40   6 C        2.920    -0.057    29.421     8.895
    41   6 C        2.883     0.123    25.289     8.244
    42   8 O        1.708    -0.268    18.450     5.799
    43   6 C        2.883     0.124    25.287     8.244
    44   6 C        2.920    -0.057    29.419     8.895
    45   6 C        2.919    -0.040    28.988     8.829
    46   6 C        2.919    -0.038    28.953     8.824
    47   6 C        2.924    -0.060    29.486     8.905
    48   6 C        2.921     0.041    27.073     8.533
    49   6 C        2.920    -0.038    28.952     8.824
    50   6 C        2.920    -0.022    28.544     8.761
    51   1 H        0.926     0.054     2.275     2.359
    52   1 H        0.926     0.057     2.238     2.339
    53   1 H        0.926     0.040     2.445     2.445
    54   1 H        0.926     0.042     2.417     2.431
    55   1 H        0.926     0.044     2.396     2.421
    56   1 H        0.926     0.050     2.319     2.381
    57   1 H        0.926     0.050     2.324     2.384
    58   1 H        0.926     0.044     2.396     2.421
    59   1 H        0.926     0.043     2.406     2.426
    60   1 H        0.926     0.041     2.434     2.440
    61   1 H        0.926     0.055     2.261     2.351
    62   1 H        0.926     0.057     2.239     2.340
    63   1 H        0.926     0.051     2.312     2.378
    64   1 H        0.926     0.059     2.215     2.327
    65   1 H        0.926     0.059     2.214     2.327
    66   1 H        0.926     0.050     2.314     2.379
    67   1 H        0.926     0.057     2.238     2.339
    68   1 H        0.926     0.055     2.261     2.351
    69   1 H        0.926     0.040     2.446     2.446
    70   1 H        0.926     0.042     2.418     2.431
    71   1 H        0.926     0.044     2.396     2.421
    72   1 H        0.926     0.050     2.320     2.382
    73   1 H        0.926     0.050     2.324     2.384
    74   1 H        0.926     0.044     2.397     2.421
    75   1 H        0.926     0.043     2.407     2.426
    76   1 H        0.926     0.041     2.435     2.440
    77   1 H        0.926     0.057     2.238     2.339
    78   1 H        0.926     0.054     2.276     2.359

molecular dipole:
                 x           y           z       tot (Debye)
 q only:       -0.014       2.056       0.030
   full:       -0.014       2.080       0.030       5.288

 projected vibrational frequencies (cm⁻¹)
eigval :       -0.00    -0.00    -0.00    -0.00     0.00     0.00
eigval :       -8.57    -2.03     9.23    16.64    19.01    30.00
eigval :       33.82    34.74    38.43    49.26    54.08    68.19
eigval :       74.57    79.83   102.27   118.04   119.04   121.20
eigval :      129.85   149.15   156.70   167.12   177.40   200.89
eigval :      204.72   222.30   243.91   246.76   253.32   266.57
eigval :      274.99   275.17   289.15   304.45   314.59   323.11
eigval :      355.66   364.87   375.48   376.26   377.87   386.99
eigval :      391.64   397.64   418.91   419.95   428.78   429.23
eigval :      445.08   446.14   459.24   467.71   476.80   479.21
eigval :      509.49   509.59   522.71   522.87   538.45   543.39
eigval :      555.58   559.83   584.66   584.87   589.29   590.58
eigval :      609.34   610.12   618.66   639.23   651.79   659.45
eigval :      659.91   661.61   662.07   664.86   668.28   681.17
eigval :      700.83   721.75   730.92   742.83   753.47   776.89
eigval :      779.26   779.74   780.32   784.21   799.34   800.18
eigval :      825.67   826.79   853.71   853.74   864.33   864.96
eigval :      867.64   868.37   875.88   876.66   887.42   891.10
eigval :      897.47   898.35   899.13   899.50   900.02   912.76
eigval :      914.89   915.64   916.03   916.27   917.20   919.79
eigval :      927.12   927.86   929.02   933.18   934.06   935.65
eigval :      950.37  1014.59  1019.51  1087.75  1089.64  1089.71
eigval :     1090.68  1090.72  1103.70  1106.07  1106.26  1117.38
eigval :     1117.61  1131.89  1131.95  1167.96  1168.26  1168.42
eigval :     1172.31  1172.37  1174.24  1176.73  1179.94  1182.20
eigval :     1187.41  1197.43  1198.00  1198.30  1219.22  1223.05
eigval :     1240.72  1241.05  1241.30  1254.55  1259.28  1259.63
eigval :     1259.82  1260.12  1269.34  1303.95  1304.03  1305.72
eigval :     1306.06  1310.38  1318.86  1319.09  1332.91  1333.00
eigval :     1351.00  1351.04  1403.78  1403.98  1416.47  1421.66
eigval :     1421.69  1439.95  1439.99  1446.54  1469.42  1469.57
eigval :     1477.98  1478.15  1500.59  1500.76  1551.31  1551.49
eigval :     1563.32  1566.66  1566.68  1571.65  1573.38  1576.86
eigval :     1578.31  1578.33  1588.19  1588.24  1600.60  1600.61
eigval :     1643.97  1654.91  3082.28  3084.67  3085.31  3085.51
eigval :     3088.07  3088.22  3088.34  3088.45  3088.74  3088.78
eigval :     3091.55  3095.11  3095.33  3096.71  3097.02  3097.19
eigval :     3097.47  3099.23  3099.46  3099.98  3105.21  3105.25
eigval :     3105.53  3105.82  3109.71  3109.74  3110.50  3110.55

   temp. (K)  partition function   enthalpy   heat capacity  entropy
                                   cal/mol     cal/K/mol   cal/K/mol   J/K/mol
 298.15  VIB  0.111E+21            23353.995    145.094    147.996
         ROT  0.129E+09              888.752      2.981     40.092
         INT  0.144E+29            24242.747    148.075    188.088
         TR   0.160E+29             1481.254      4.968     45.271
         TOT                       25724.0011   153.0435   233.3585   976.3720

       T/K    H(0)-H(T)+PV         H(T)/Eh          T*S/Eh         G(T)/Eh
   ------------------------------------------------------------------------
    298.15    0.409938E-01    0.622552E+00    0.110876E+00    0.511676E+00
   ------------------------------------------------------------------------

         :::::::::::::::::::::::::::::::::::::::::::::::::::::
         ::                  THERMODYNAMIC                  ::
         :::::::::::::::::::::::::::::::::::::::::::::::::::::
         :: total free energy        -130.173300086572 Eh   ::
         ::.................................................::
         :: total energy             -130.684975955034 Eh   ::
         :: zero point energy           0.581558217145 Eh   ::
         :: G(RRHO) w/o ZPVE           -0.069882348683 Eh   ::
         :: G(RRHO) contrib.            0.511675868462 Eh   ::
         :::::::::::::::::::::::::::::::::::::::::::::::::::::

           -------------------------------------------------
          | TOTAL ENERGY             -130.684975955034 Eh   |
          | TOTAL ENTHALPY           -130.062423932835 Eh   |
          | TOTAL FREE ENERGY        -130.173300086572 Eh   |
          | GRADIENT NORM               0.000113935513 Eh/α |
          | HOMO-LUMO GAP               1.330747667998 eV   |
           -------------------------------------------------

 * finished run on 2025/08/23 at 05:59:40.945
