   * xtb version 6.7.1 (edcfbbe) compiled by 'albert@albert-system' on 2024-07-22

   ID    Z sym.   atoms
    1    7 N      1, 14, 24
    2    6 C      2-13, 15-23, 25-36
    3    1 H      37-55

          program call               : xtb data2507/toluene/ACRF/ACRF_toluene_T1_crest.xyz --gfn 2 --uhf 2 --gbsa toluene --ohess vtight --parallel 40 --molden --ceasefiles --namespace data2507/toluene/ACRF/ACRF_toluene_T1_finalOpt
      * Solvation model:               GBSA
        Solvent                        toluene
        Solvent mass                       9.2140E+01 g/mol
          :  Hamiltonian                  GFN2-xTB          :
 * total energy  :   -89.0434368 Eh     change       -0.3370971E-08 Eh
 * total energy  :   -89.0435137 Eh     change       -0.7686775E-04 Eh
 * total energy  :   -89.0434950 Eh     change        0.1874215E-04 Eh
 * total energy  :   -89.0435362 Eh     change       -0.4123054E-04 Eh
 * total energy  :   -89.0435373 Eh     change       -0.1160162E-05 Eh
 * total energy  :   -89.0435358 Eh     change        0.1580701E-05 Eh
 * total energy  :   -89.0435399 Eh     change       -0.4144306E-05 Eh
 * total energy  :   -89.0435398 Eh     change        0.9665726E-07 Eh
 * total energy  :   -89.0435413 Eh     change       -0.1511862E-05 Eh
 * total energy  :   -89.0435425 Eh     change       -0.1200265E-05 Eh
 * total energy  :   -89.0435434 Eh     change       -0.8563508E-06 Eh
 * total energy  :   -89.0435438 Eh     change       -0.3917424E-06 Eh
 * total energy  :   -89.0435442 Eh     change       -0.4083216E-06 Eh
 * total energy  :   -89.0435445 Eh     change       -0.2985099E-06 Eh
 * total energy  :   -89.0435446 Eh     change       -0.1674185E-06 Eh
 * total energy  :   -89.0435446 Eh     change        0.8369028E-08 Eh
 * total energy  :   -89.0435447 Eh     change       -0.7535826E-07 Eh
   *** GEOMETRY OPTIMIZATION CONVERGED AFTER 17 ITERATIONS ***

 final structure:
================
55
 xtb: 6.7.1 (edcfbbe)
N           -1.56069098929082       -6.01220828374160        0.05012710418586
C           -1.87588152491690       -4.89818599182237        0.04143116784059
C           -2.24654366943283       -3.55911545464320        0.03110105264292
C           -3.61925754881289       -3.19443978162206        0.03020114412849
C           -4.00535433116652       -1.88638772436815        0.02025951743455
C           -3.01993547324254       -0.86937113257294        0.01047437800001
C           -1.63906091817549       -1.24868507694177        0.01194557139785
C           -1.24732374672971       -2.54708742435220        0.02139763548716
C           -0.75323258079369       -0.00552477613261        0.00114584477622
C           -1.80438724762216        1.09990515928574       -0.00842267012425
C           -1.59904706956251        2.44055710243180       -0.02255882465362
C           -2.73081300644839        3.30178046993231       -0.03116427403958
C           -2.55313803060774        4.67974949093775       -0.04730035865284
N           -2.40023968221235        5.82724241167889       -0.06096115188262
C           -4.03871557489579        2.74816282967564       -0.02431361847898
C           -4.23744070652794        1.39889115872803       -0.00989023473256
C           -3.11874079306641        0.53075609741580       -0.00203220340203
C            0.07205731893422        0.05779876665578        1.25209551422636
C           -0.56608305558963        0.05238956718591        2.48482790815861
C            0.15428051570882        0.10261577254986        3.66303344972154
C            1.54344703653743        0.15947428067858        3.61847303977608
C            2.19882196295818        0.16430742233148        2.40881789458797
C            1.47643589079319        0.11367736445592        1.20568279136451
N            2.13889937915156        0.11958184667445       -0.00070566850659
C            3.56834714212189        0.14499890719860       -0.00115866708596
C            4.27464454329760       -1.05113149378675        0.01055098408437
C            5.65866809452577       -1.02518634973535        0.01059334604589
C            6.33267529756235        0.18528331650972       -0.00102595348126
C            5.62346204701021        1.37554483593212       -0.01284836552046
C            4.23918969270944        1.36142066809017       -0.01292215260019
C            1.47577392224776        0.09311497884039       -1.20642442830679
C            2.19739995852861        0.12300950698439       -2.41069628865791
C            1.54122672297112        0.09885134377309       -3.61967634289790
C            0.15196908095365        0.04249761071517       -3.66240940930597
C           -0.56761750742773        0.01173775092379       -2.48309269545418
C            0.07136536569227        0.03687952041313       -1.25104364558417
H           -4.35577055575773       -3.98595799046339        0.03752963989203
H           -5.05147600720048       -1.61965590930270        0.01937179205229
H           -0.20580699520058       -2.83579333737748        0.02209439709529
H           -0.60850788638983        2.87314140638261       -0.02775987481563
H           -4.87890934884889        3.42860175180325       -0.03096444167873
H           -5.23575609727240        0.98808258461076       -0.00497391663301
H           -1.64450908152979        0.00734853732838        2.51058424588637
H           -0.36043338100578        0.09784339805295        4.61107685796155
H            2.11285304808463        0.19915675015063        4.53412358996580
H            3.27577898275294        0.20768289558013        2.38150082349724
H            3.73902071045944       -1.98865495544541        0.01948896587189
H            6.20874432665483       -1.95367868564089        0.01980173266970
H            7.41179781721485        0.20093390282033       -0.00090017550957
H            6.14652253818118        2.31952587150595       -0.02197187481974
H            3.67678298082335        2.28309965772127       -0.02200014962190
H            3.27439021308584        0.16594659118984       -2.38478075791865
H            2.11004665947879        0.12320390906431       -4.53622592822904
H           -0.36336452232458        0.02289751145162       -4.60992490970667
H           -1.64610020818741       -0.03288751361181       -2.50741344965035

          :  Hamiltonian                  GFN2-xTB          :
         :: gradient norm              0.000102850372 Eh/a0 ::
         :: HOMO-LUMO gap              0.830261094159 eV    ::
         :: SCC energy               -90.774716323404 Eh    ::
         :: -> dispersion             -0.082000375179 Eh    ::
         :: -> Gsolv                  -0.052363148557 Eh    ::
         :: repulsion energy           1.731171614096 Eh    ::

    * Orbital Energies and Occupations

         #    Occupation            Energy/Eh            Energy/eV
      -------------------------------------------------------------
         1        2.0000           -0.7049710             -19.1832
       ...           ...                  ...                  ...
        72        2.0000           -0.4318962             -11.7525
        73        2.0000           -0.4296579             -11.6916
        74        2.0000           -0.4272164             -11.6251
        75        2.0000           -0.4256282             -11.5819
        76        2.0000           -0.4207575             -11.4494
        77        2.0000           -0.4151724             -11.2974
        78        2.0000           -0.4139975             -11.2654
        79        2.0000           -0.4114451             -11.1960
        80        2.0000           -0.4103550             -11.1663
        81        2.0000           -0.4093984             -11.1403
        82        1.6336           -0.3791188             -10.3163
        83        1.3664           -0.3780782             -10.2880
        84        1.0000           -0.2895759              -7.8798 (HOMO)
        85        0.0000           -0.2590653              -7.0495 (LUMO)
        86                         -0.2517197              -6.8496
        87                         -0.2492105              -6.7814
        88                         -0.2484628              -6.7610
        89                         -0.2460260              -6.6947
        90                         -0.2429083              -6.6099
        91                         -0.2301671              -6.2632
        92                         -0.2228736              -6.0647
        93                         -0.2218839              -6.0378
        94                         -0.1970563              -5.3622
        95                         -0.1958798              -5.3302
       ...                                ...                  ...
       163                          1.1617264              31.6122
      -------------------------------------------------------------
                  HL-Gap            0.0305106 Eh            0.8302 eV

     #   Z          covCN         q      C6AA      α(0)
     1   7 N        0.911    -0.334    28.598     7.734
     2   6 C        1.911     0.103    28.537     8.627
     3   6 C        2.971    -0.010    28.274     8.722
     4   6 C        2.920    -0.028    28.700     8.785
     5   6 C        2.907    -0.039    28.958     8.824
     6   6 C        3.025    -0.006    28.138     8.701
     7   6 C        3.049     0.000    27.980     8.675
     8   6 C        2.914    -0.034    28.840     8.806
     9   6 C        3.942     0.016    20.233     6.392
    10   6 C        3.048    -0.000    27.986     8.676
    11   6 C        2.914    -0.034    28.836     8.806
    12   6 C        2.971    -0.010    28.271     8.721
    13   6 C        1.911     0.104    28.535     8.627
    14   7 N        0.911    -0.334    28.595     7.734
    15   6 C        2.920    -0.028    28.698     8.785
    16   6 C        2.907    -0.039    28.960     8.824
    17   6 C        3.025    -0.006    28.137     8.701
    18   6 C        2.982     0.007    27.848     8.656
    19   6 C        2.922    -0.028    28.694     8.784
    20   6 C        2.917    -0.023    28.575     8.766
    21   6 C        2.917    -0.022    28.561     8.764
    22   6 C        2.920    -0.044    29.093     8.845
    23   6 C        2.928     0.062    26.613     8.460
    24   7 N        2.754     0.001    21.244     6.845
    25   6 C        2.931     0.056    26.742     8.481
    26   6 C        2.920    -0.033    28.819     8.803
    27   6 C        2.920    -0.022    28.552     8.762
    28   6 C        2.919    -0.023    28.590     8.768
    29   6 C        2.920    -0.022    28.555     8.763
    30   6 C        2.920    -0.033    28.826     8.804
    31   6 C        2.928     0.062    26.613     8.460
    32   6 C        2.920    -0.044    29.094     8.845
    33   6 C        2.917    -0.022    28.561     8.764
    34   6 C        2.917    -0.023    28.575     8.766
    35   6 C        2.922    -0.028    28.694     8.784
    36   6 C        2.982     0.007    27.847     8.656
    37   1 H        0.926     0.025     2.659     2.550
    38   1 H        0.926     0.032     2.556     2.500
    39   1 H        0.926     0.020     2.730     2.584
    40   1 H        0.926     0.021     2.725     2.581
    41   1 H        0.926     0.025     2.660     2.551
    42   1 H        0.926     0.032     2.558     2.501
    43   1 H        0.926     0.047     2.362     2.403
    44   1 H        0.926     0.054     2.276     2.359
    45   1 H        0.926     0.057     2.232     2.336
    46   1 H        0.926     0.057     2.234     2.337
    47   1 H        0.926     0.050     2.318     2.381
    48   1 H        0.926     0.055     2.258     2.350
    49   1 H        0.926     0.054     2.275     2.358
    50   1 H        0.926     0.055     2.255     2.348
    51   1 H        0.926     0.051     2.304     2.374
    52   1 H        0.926     0.057     2.234     2.337
    53   1 H        0.926     0.057     2.232     2.336
    54   1 H        0.926     0.053     2.277     2.359
    55   1 H        0.926     0.047     2.363     2.404

molecular dipole:
                 x           y           z       tot (Debye)
 q only:        4.425       0.221       0.005
   full:        4.125       0.199       0.007      10.497

 projected vibrational frequencies (cm⁻¹)
eigval :       -0.00    -0.00    -0.00    -0.00     0.00     0.00
eigval :        6.55    16.54    28.61    35.21    41.08    46.58
eigval :       67.60    68.00    76.32    78.18   105.73   123.10
eigval :      137.85   153.29   155.41   177.09   198.63   219.62
eigval :      239.23   242.31   247.41   258.86   288.69   311.94
eigval :      333.07   367.66   381.99   389.11   396.65   402.22
eigval :      406.40   415.84   421.68   431.32   440.85   446.47
eigval :      474.46   483.97   487.02   518.34   528.39   541.52
eigval :      555.51   572.81   589.36   592.30   592.84   597.25
eigval :      597.88   608.89   642.78   652.65   670.16   674.60
eigval :      676.24   699.05   701.17   720.98   744.50   763.86
eigval :      773.62   775.93   785.09   801.60   828.22   840.92
eigval :      853.84   869.13   871.46   873.84   891.55   897.26
eigval :      899.24   904.28   907.02   916.64   917.17   924.64
eigval :      925.55   929.50   933.74   934.63   936.32   948.27
eigval :      977.88   992.52  1066.72  1078.13  1095.42  1095.90
eigval :     1106.80  1115.75  1125.20  1138.00  1150.22  1152.32
eigval :     1176.54  1176.89  1178.01  1184.54  1187.81  1195.49
eigval :     1203.72  1217.67  1228.35  1246.37  1250.86  1252.92
eigval :     1272.15  1273.26  1295.07  1303.81  1305.47  1307.68
eigval :     1314.47  1333.46  1337.59  1343.17  1375.91  1381.54
eigval :     1404.63  1416.14  1426.33  1427.47  1442.74  1455.57
eigval :     1463.32  1476.11  1478.05  1524.18  1535.15  1549.76
eigval :     1556.89  1569.89  1579.32  1580.77  1586.51  1614.47
eigval :     2241.68  2281.54  3069.46  3070.07  3072.12  3073.32
eigval :     3085.31  3086.49  3087.88  3088.02  3092.07  3092.38
eigval :     3093.16  3095.63  3096.07  3098.27  3104.90  3105.41
eigval :     3105.87  3113.12  3114.41

   temp. (K)  partition function   enthalpy   heat capacity  entropy
                                   cal/mol     cal/K/mol   cal/K/mol   J/K/mol
 298.15  VIB  0.434E+13            16275.835    103.059    101.323
         ROT  0.257E+08              888.752      2.981     36.887
         INT  0.111E+21            17164.587    106.040    138.210
         TR   0.947E+28             1481.254      4.968     44.231
         TOT                       18645.8412   111.0080   182.4411   763.3337

       T/K    H(0)-H(T)+PV         H(T)/Eh          T*S/Eh         G(T)/Eh
   ------------------------------------------------------------------------
    298.15    0.297140E-01    0.434716E+00    0.866837E-01    0.348032E+00
   ------------------------------------------------------------------------

         :::::::::::::::::::::::::::::::::::::::::::::::::::::
         ::                  THERMODYNAMIC                  ::
         :::::::::::::::::::::::::::::::::::::::::::::::::::::
         :: total free energy         -88.695512714885 Eh   ::
         ::.................................................::
         :: total energy              -89.043544703806 Eh   ::
         :: zero point energy           0.405001616284 Eh   ::
         :: G(RRHO) w/o ZPVE           -0.056969627364 Eh   ::
         :: G(RRHO) contrib.            0.348031988920 Eh   ::
         :::::::::::::::::::::::::::::::::::::::::::::::::::::

           -------------------------------------------------
          | TOTAL ENERGY              -89.043544703806 Eh   |
          | TOTAL ENTHALPY            -88.608829048222 Eh   |
          | TOTAL FREE ENERGY         -88.695512714885 Eh   |
          | GRADIENT NORM               0.000104403123 Eh/α |
          | HOMO-LUMO GAP               0.830234742068 eV   |
           -------------------------------------------------

 * finished run on 2025/09/11 at 04:36:37.370
