   * xtb version 6.7.1 (edcfbbe) compiled by 'albert@albert-system' on 2024-07-22

   ID    Z sym.   atoms
    1    7 N      1, 14, 24
    2    6 C      2-13, 15-23, 25-36
    3    1 H      37-55

          program call               : xtb data2507/toluene/ACRF/ACRF_toluene_S0_finalOpt.xtbopt.xyz --gfn 2 --uhf 2 --gbsa toluene --ohess vtight --parallel 40 --molden --ceasefiles --namespace data2507/toluene/ACRF/ACRF_toluene_T1_preOpt
      * Solvation model:               GBSA
        Solvent                        toluene
        Solvent mass                       9.2140E+01 g/mol
          :  Hamiltonian                  GFN2-xTB          :
 * total energy  :   -89.0366224 Eh     change       -0.9496134E-08 Eh
 * total energy  :   -89.0422012 Eh     change       -0.5578844E-02 Eh
 * total energy  :   -89.0435261 Eh     change       -0.1324898E-02 Eh
 * total energy  :   -89.0435584 Eh     change       -0.3230773E-04 Eh
 * total energy  :   -89.0435449 Eh     change        0.1353453E-04 Eh
 * total energy  :   -89.0435716 Eh     change       -0.2674270E-04 Eh
 * total energy  :   -89.0435690 Eh     change        0.2604174E-05 Eh
 * total energy  :   -89.0435724 Eh     change       -0.3350474E-05 Eh
 * total energy  :   -89.0435726 Eh     change       -0.2060575E-06 Eh
 * total energy  :   -89.0435730 Eh     change       -0.3875299E-06 Eh
 * total energy  :   -89.0435731 Eh     change       -0.7730080E-07 Eh
   *** GEOMETRY OPTIMIZATION CONVERGED AFTER 11 ITERATIONS ***

 final structure:
================
55
 xtb: 6.7.1 (edcfbbe)
N           -1.37594263294143       -6.05005324768136       -0.03492357308832
C           -1.72532226126731       -4.94631198338941       -0.02878219157474
C           -2.13692736901176       -3.61931499647099       -0.02155414590668
C           -3.52021718232665       -3.29713189080909       -0.02082859847445
C           -3.94587045770228       -2.00146186111524       -0.01358142581362
C           -2.99186176694625       -0.95488844476114       -0.00663181280414
C           -1.59989482566872       -1.29135514722840       -0.00825425806949
C           -1.16895447212502       -2.57733751026722       -0.01487831369623
C           -0.75300467044018       -0.02082304733835       -0.00068566678282
C           -1.83808454346738        1.05124413113628        0.00784856844130
C           -1.67543786954353        2.39780409136217        0.02018711594530
C           -2.83383084223365        3.22287000165019        0.02862280599372
C           -2.69939172937916        4.60573587296177        0.04271475775775
N           -2.58241820706611        5.75747140770568        0.05437993100545
C           -4.12376379681717        2.62862244797279        0.02357764909053
C           -4.27971125319657        1.27373295686048        0.01091476194751
C           -3.13412601579556        0.44142220751098        0.00335855827225
C            0.07123681885010        0.04791046381189        1.25073204537663
C           -0.56604977215579        0.01425819863635        2.48347615316448
C            0.15355900175006        0.06617408433300        3.66204909471163
C            1.54127377579690        0.15215137627985        3.61796829753216
C            2.19576168475196        0.18599283229234        2.40832871573749
C            1.47404160842072        0.13539738508655        1.20480141108401
N            2.13554657906501        0.17301248942574       -0.00151565284651
C            3.56377660312297        0.23416861484133       -0.00216443867285
C            4.30004719788028       -0.94372528200428       -0.00600711079318
C            5.68294653370243       -0.88251804438391       -0.00688112886627
C            6.32588246644228        0.34479992655171       -0.00386208382370
C            5.58675102157133        1.51681305760825        0.00008694359323
C            4.20330329920061        1.46739945786381        0.00089883299002
C            1.47235423616648        0.15025911834251       -1.20731018927690
C            2.19263943923369        0.21426110711078       -2.41107494919389
C            1.53665060156077        0.19456404484092       -3.62022618130272
C            0.14886208624537        0.10976801356229       -3.66353856831687
C           -0.56933979290676        0.04465364165879       -2.48472251858685
C            0.06944063899639        0.06368070837406       -1.25244218047854
H           -4.23205096532417       -4.11093664057126       -0.02601870620408
H           -4.99955210466992       -1.76641132868302       -0.01273212573724
H           -0.11941924329266       -2.83527060034425       -0.01542185574806
H           -0.69936192918091        2.86202640997706        0.02415765707807
H           -4.98506679021995        3.28219266919869        0.03019345220580
H           -5.26443150724149        0.83131821296113        0.00738150974127
H           -1.64326318967577       -0.05411339900919        2.50905075697020
H           -0.36049468024934        0.03960367826456        4.61008938278044
H            2.11013840532869        0.19242421071498        4.53392222855399
H            3.27152388206764        0.25240764784784        2.38123364576678
H            3.78815538206608       -1.89444682687909       -0.00831122009339
H            6.25648037583979       -1.79675028110006       -0.00995851942402
H            7.40424286540762        0.38761653878852       -0.00456512621744
H            6.08568603199838        2.47383508848959        0.00250563785798
H            3.61693620573020        2.37408428371967        0.00395183386909
H            3.26849577421760        0.27966264551970       -2.38454429953177
H            2.10442613544806        0.24475712758452       -4.53636644335937
H           -0.36638798496804        0.09415746825794       -4.61117303086450
H           -1.64657874077509       -0.02328541900731       -2.50980599961172

          :  Hamiltonian                  GFN2-xTB          :
         :: gradient norm              0.000109948325 Eh/a0 ::
         :: HOMO-LUMO gap              0.830334216068 eV    ::
         :: SCC energy               -90.774739161879 Eh    ::
         :: -> dispersion             -0.081995575179 Eh    ::
         :: -> Gsolv                  -0.052388908542 Eh    ::
         :: repulsion energy           1.731166103653 Eh    ::

    * Orbital Energies and Occupations

         #    Occupation            Energy/Eh            Energy/eV
      -------------------------------------------------------------
         1        2.0000           -0.7049640             -19.1830
       ...           ...                  ...                  ...
        72        2.0000           -0.4319087             -11.7528
        73        2.0000           -0.4296604             -11.6917
        74        2.0000           -0.4272054             -11.6249
        75        2.0000           -0.4256280             -11.5819
        76        2.0000           -0.4207582             -11.4494
        77        2.0000           -0.4151706             -11.2974
        78        2.0000           -0.4140100             -11.2658
        79        2.0000           -0.4114576             -11.1963
        80        2.0000           -0.4103538             -11.1663
        81        2.0000           -0.4093963             -11.1402
        82        1.6335           -0.3791097             -10.3161
        83        1.3665           -0.3780698             -10.2878
        84        1.0000           -0.2895781              -7.8798 (HOMO)
        85        0.0000           -0.2590630              -7.0495 (LUMO)
        86                         -0.2517125              -6.8494
        87                         -0.2492087              -6.7813
        88                         -0.2484565              -6.7608
        89                         -0.2460171              -6.6945
        90                         -0.2429003              -6.6097
        91                         -0.2301756              -6.2634
        92                         -0.2228824              -6.0649
        93                         -0.2218801              -6.0377
        94                         -0.1970434              -5.3618
        95                         -0.1958660              -5.3298
       ...                                ...                  ...
       163                          1.1618388              31.6152
      -------------------------------------------------------------
                  HL-Gap            0.0305151 Eh            0.8304 eV

     #   Z          covCN         q      C6AA      α(0)
     1   7 N        0.911    -0.334    28.598     7.734
     2   6 C        1.911     0.103    28.537     8.627
     3   6 C        2.971    -0.010    28.274     8.722
     4   6 C        2.920    -0.028    28.700     8.785
     5   6 C        2.907    -0.039    28.957     8.824
     6   6 C        3.025    -0.006    28.138     8.701
     7   6 C        3.049     0.000    27.979     8.675
     8   6 C        2.914    -0.034    28.840     8.806
     9   6 C        3.942     0.016    20.233     6.392
    10   6 C        3.048    -0.000    27.987     8.677
    11   6 C        2.914    -0.034    28.835     8.805
    12   6 C        2.971    -0.010    28.270     8.721
    13   6 C        1.911     0.104    28.535     8.627
    14   7 N        0.911    -0.334    28.595     7.734
    15   6 C        2.920    -0.028    28.697     8.785
    16   6 C        2.907    -0.039    28.961     8.824
    17   6 C        3.025    -0.006    28.137     8.701
    18   6 C        2.982     0.007    27.848     8.656
    19   6 C        2.922    -0.028    28.694     8.784
    20   6 C        2.917    -0.023    28.575     8.766
    21   6 C        2.917    -0.022    28.561     8.764
    22   6 C        2.920    -0.044    29.094     8.845
    23   6 C        2.928     0.062    26.613     8.460
    24   7 N        2.754     0.001    21.244     6.845
    25   6 C        2.931     0.056    26.742     8.481
    26   6 C        2.920    -0.033    28.820     8.803
    27   6 C        2.920    -0.022    28.552     8.762
    28   6 C        2.919    -0.023    28.590     8.768
    29   6 C        2.920    -0.022    28.554     8.763
    30   6 C        2.920    -0.033    28.826     8.804
    31   6 C        2.928     0.062    26.613     8.460
    32   6 C        2.920    -0.044    29.093     8.845
    33   6 C        2.917    -0.022    28.561     8.764
    34   6 C        2.917    -0.023    28.575     8.766
    35   6 C        2.922    -0.028    28.694     8.784
    36   6 C        2.981     0.007    27.848     8.656
    37   1 H        0.926     0.025     2.659     2.550
    38   1 H        0.926     0.032     2.555     2.500
    39   1 H        0.926     0.020     2.730     2.584
    40   1 H        0.926     0.021     2.724     2.581
    41   1 H        0.925     0.025     2.661     2.551
    42   1 H        0.926     0.032     2.558     2.501
    43   1 H        0.926     0.047     2.363     2.404
    44   1 H        0.926     0.053     2.277     2.360
    45   1 H        0.926     0.057     2.232     2.336
    46   1 H        0.926     0.057     2.234     2.337
    47   1 H        0.926     0.050     2.318     2.381
    48   1 H        0.926     0.055     2.258     2.350
    49   1 H        0.926     0.054     2.275     2.358
    50   1 H        0.926     0.055     2.255     2.348
    51   1 H        0.926     0.051     2.304     2.374
    52   1 H        0.926     0.057     2.234     2.337
    53   1 H        0.926     0.057     2.232     2.336
    54   1 H        0.926     0.054     2.276     2.359
    55   1 H        0.926     0.047     2.362     2.403

molecular dipole:
                 x           y           z       tot (Debye)
 q only:        4.419       0.340      -0.012
   full:        4.120       0.309      -0.013      10.500

 projected vibrational frequencies (cm⁻¹)
eigval :       -0.00    -0.00    -0.00     0.00     0.00     0.00
eigval :        5.12    17.08    28.86    35.58    42.58    50.93
eigval :       67.91    69.36    77.88    78.17   112.76   126.33
eigval :      139.06   154.24   156.90   179.63   198.83   220.37
eigval :      239.86   243.06   247.78   259.40   288.92   312.11
eigval :      334.01   367.78   381.90   390.41   396.54   402.83
eigval :      405.94   415.61   421.57   431.99   443.02   447.70
eigval :      474.35   484.58   490.40   518.16   529.85   542.25
eigval :      555.31   573.58   589.34   592.10   593.06   597.16
eigval :      598.53   608.78   642.93   652.71   671.42   674.71
eigval :      677.80   699.45   702.81   721.18   745.37   763.94
eigval :      772.91   776.36   783.89   800.11   828.29   843.38
eigval :      854.78   867.94   872.19   873.85   891.71   895.99
eigval :      898.08   904.27   906.51   916.07   917.77   924.71
eigval :      926.44   929.40   934.08   934.89   936.58   948.39
eigval :      978.30   992.54  1066.75  1076.20  1095.98  1096.55
eigval :     1107.25  1112.62  1125.19  1137.73  1150.20  1152.52
eigval :     1176.97  1177.13  1178.04  1182.20  1189.46  1195.33
eigval :     1205.59  1217.96  1228.78  1247.16  1251.16  1253.44
eigval :     1269.62  1273.71  1295.42  1303.80  1305.44  1307.97
eigval :     1314.46  1333.65  1337.81  1343.36  1376.57  1382.37
eigval :     1404.71  1416.47  1426.29  1427.44  1442.95  1455.21
eigval :     1462.97  1476.34  1478.38  1524.42  1535.43  1549.99
eigval :     1556.82  1570.07  1579.25  1580.85  1586.48  1614.47
eigval :     2242.18  2282.02  3069.31  3069.75  3071.90  3073.90
eigval :     3085.45  3086.73  3087.87  3088.03  3092.28  3092.41
eigval :     3093.26  3095.93  3096.10  3098.42  3105.39  3105.54
eigval :     3105.96  3112.95  3114.96

   temp. (K)  partition function   enthalpy   heat capacity  entropy
                                   cal/mol     cal/K/mol   cal/K/mol   J/K/mol
 298.15  VIB  0.407E+13            16234.578    103.166    101.154
         ROT  0.257E+08              888.752      2.981     36.887
         INT  0.105E+21            17123.330    106.147    138.041
         TR   0.947E+28             1481.254      4.968     44.231
         TOT                       18604.5844   111.1149   182.2718   762.6252

       T/K    H(0)-H(T)+PV         H(T)/Eh          T*S/Eh         G(T)/Eh
   ------------------------------------------------------------------------
    298.15    0.296483E-01    0.434771E+00    0.866032E-01    0.348168E+00
   ------------------------------------------------------------------------

         :::::::::::::::::::::::::::::::::::::::::::::::::::::
         ::                  THERMODYNAMIC                  ::
         :::::::::::::::::::::::::::::::::::::::::::::::::::::
         :: total free energy         -88.695404944455 Eh   ::
         ::.................................................::
         :: total energy              -89.043573053003 Eh   ::
         :: zero point energy           0.405123029256 Eh   ::
         :: G(RRHO) w/o ZPVE           -0.056954920708 Eh   ::
         :: G(RRHO) contrib.            0.348168108548 Eh   ::
         :::::::::::::::::::::::::::::::::::::::::::::::::::::

           -------------------------------------------------
          | TOTAL ENERGY              -89.043573053003 Eh   |
          | TOTAL ENTHALPY            -88.608801731352 Eh   |
          | TOTAL FREE ENERGY         -88.695404944455 Eh   |
          | GRADIENT NORM               0.000110033313 Eh/α |
          | HOMO-LUMO GAP               0.830357974734 eV   |
           -------------------------------------------------

 * finished run on 2025/09/11 at 04:33:42.470
