   * xtb version 6.7.1 (edcfbbe) compiled by 'albert@albert-system' on 2024-07-22

   ID    Z sym.   atoms
    1    7 N      1, 14, 24
    2    6 C      2-13, 15-23, 25-36
    3    1 H      37-55

          program call               : xtb data2507/toluene/ACRF/ACRF_toluene_S0_crest.xyz --gfn 2 --gbsa toluene --ohess vtight --parallel 40 --molden --ceasefiles --namespace data2507/toluene/ACRF/ACRF_toluene_S0_finalOpt
      * Solvation model:               GBSA
        Solvent                        toluene
        Solvent mass                       9.2140E+01 g/mol
          :  Hamiltonian                  GFN2-xTB          :
 * total energy  :   -89.1243295 Eh     change       -0.1290118E-08 Eh
 * total energy  :   -89.1243516 Eh     change       -0.2210763E-04 Eh
 * total energy  :   -89.1243286 Eh     change        0.2297034E-04 Eh
 * total energy  :   -89.1243532 Eh     change       -0.2461158E-04 Eh
 * total energy  :   -89.1243434 Eh     change        0.9786014E-05 Eh
 * total energy  :   -89.1243598 Eh     change       -0.1634821E-04 Eh
 * total energy  :   -89.1243508 Eh     change        0.8943364E-05 Eh
 * total energy  :   -89.1243619 Eh     change       -0.1110380E-04 Eh
 * total energy  :   -89.1243631 Eh     change       -0.1129211E-05 Eh
 * total energy  :   -89.1243649 Eh     change       -0.1801527E-05 Eh
 * total energy  :   -89.1243888 Eh     change       -0.2683324E-06 Eh
 * total energy  :   -89.1243891 Eh     change       -0.3491828E-06 Eh
 * total energy  :   -89.1243895 Eh     change       -0.3651206E-06 Eh
 * total energy  :   -89.1243898 Eh     change       -0.3225077E-06 Eh
 * total energy  :   -89.1243900 Eh     change       -0.2132551E-06 Eh
 * total energy  :   -89.1243902 Eh     change       -0.1957926E-06 Eh
 * total energy  :   -89.1243904 Eh     change       -0.1651835E-06 Eh
 * total energy  :   -89.1243906 Eh     change       -0.1926028E-06 Eh
 * total energy  :   -89.1243906 Eh     change       -0.5157119E-09 Eh
   *** GEOMETRY OPTIMIZATION CONVERGED AFTER 44 ITERATIONS ***

 final structure:
================
55
 xtb: 6.7.1 (edcfbbe)
N           -1.38606761069077       -6.05412227543037       -0.03424915975473
C           -1.72234359146878       -4.95625907838784       -0.02861287996878
C           -2.13551530299973       -3.60659229730127       -0.02174267872488
C           -3.50139471796134       -3.30427475072460       -0.02025696504413
C           -3.92665726293358       -1.98930732191158       -0.01280835387466
C           -2.97420154212761       -0.97955655571614       -0.00688415257969
C           -1.60300530649593       -1.28711236154742       -0.00901404736046
C           -1.17082869676909       -2.59166207175295       -0.01611852560016
C           -0.76356261559508       -0.02434991596303       -0.00154179526001
C           -1.83965904695337        1.04278308113754        0.00709176879716
C           -1.67909405597895        2.40763740679745        0.01963519736310
C           -2.82859098711300        3.20725066972548        0.02902620515847
C           -2.69656655113873        4.61250679556742        0.04412770533805
N           -2.59025418584443        5.75572861440079        0.05682798612803
C           -4.10566673804563        2.63617360709281        0.02489263693651
C           -4.25753840132876        1.26255261447397        0.01181927017467
C           -3.12117156645209        0.46551567616004        0.00355976452359
C            0.07348486033394        0.04817311126037        1.25632461318461
C           -0.56927231934119        0.01595494565739        2.48537386150614
C            0.14150083415281        0.06989012163463        3.66982475823595
C            1.52317358176376        0.15660575083835        3.62402864743927
C            2.17891980877641        0.18959173300022        2.41081918578761
C            1.46769024119464        0.13654728792422        1.20768912202897
N            2.13850711034269        0.17262773320281       -0.00229539337870
C            3.56459830156783        0.23291202850423       -0.00262371518967
C            4.30417245767752       -0.94284773690713       -0.00627362837391
C            5.68710469144707       -0.88467458159021       -0.00600125864524
C            6.33118847766966        0.34183616437580       -0.00213612967587
C            5.59250009541032        1.51393363909367        0.00140841534972
C            4.20917834947139        1.46349734335216        0.00115718772393
C            1.46610298659699        0.15072588640727       -1.21173800529599
C            2.17602113232850        0.21609712620410       -2.41504135499853
C            1.51883380407415        0.19757401550049       -3.62778046762128
C            0.13700342506823        0.11319030076649       -3.67288493831803
C           -0.57245400694941        0.04642534657696       -2.48827305586403
C            0.07172556830862        0.06388853663246       -1.25965695052639
H           -4.21845353700262       -4.11204711303626       -0.02471027926517
H           -4.98054065138466       -1.75771535493666       -0.01128162094551
H           -0.11978915007612       -2.83955812163302       -0.01720308149634
H           -0.69949785424099        2.86228856204649        0.02305421094378
H           -4.97077420060823        3.28289896806299        0.03236761420645
H           -5.24319843417836        0.82356288520958        0.00890017695542
H           -1.64763029335998       -0.05390093143234        2.50989614371593
H           -0.37678056881740        0.04361693582012        4.61603282546364
H            2.09617797866708        0.19873565873135        4.53845548695401
H            3.25552463735823        0.25672382334225        2.38754737277905
H            3.79176275746388       -1.89387497498719       -0.00915708373996
H            6.26136927374650       -1.79913876679764       -0.00877123040816
H            7.41008491666020        0.38401039678918       -0.00179613847929
H            6.09337826647441        2.47060289494762        0.00444155306141
H            3.62358118809337        2.37129848477728        0.00396403621655
H            3.25277362898312        0.28109685144508       -2.39224563320599
H            2.09084205223950        0.24892657472400       -4.54236365127049
H           -0.38242688480991        0.09828765889775       -4.61871232618125
H           -1.65086615480536       -0.02249072242629       -2.51237610422391

          :  Hamiltonian                  GFN2-xTB          :
         :: gradient norm              0.000052290589 Eh/a0 ::
         :: HOMO-LUMO gap              1.528054549040 eV    ::
         :: SCC energy               -90.874124828042 Eh    ::
         :: -> dispersion             -0.082299000797 Eh    ::
         :: -> Gsolv                  -0.042622939315 Eh    ::
         :: repulsion energy           1.749734227290 Eh    ::

    * Orbital Energies and Occupations

         #    Occupation            Energy/Eh            Energy/eV
      -------------------------------------------------------------
         1        2.0000           -0.6829660             -18.5844
       ...           ...                  ...                  ...
        71        2.0000           -0.4339840             -11.8093
        72        2.0000           -0.4332007             -11.7880
        73        2.0000           -0.4305724             -11.7165
        74        2.0000           -0.4298576             -11.6970
        75        2.0000           -0.4200261             -11.4295
        76        2.0000           -0.4186227             -11.3913
        77        2.0000           -0.4181310             -11.3779
        78        2.0000           -0.4125300             -11.2255
        79        2.0000           -0.4118780             -11.2078
        80        2.0000           -0.4109870             -11.1835
        81        2.0000           -0.4016719             -10.9300
        82        2.0000           -0.4013918             -10.9224
        83        2.0000           -0.3554292              -9.6717 (HOMO)
        84                         -0.2992742              -8.1437 (LUMO)
        85                         -0.2615892              -7.1182
        86                         -0.2490019              -6.7757
        87                         -0.2469491              -6.7198
        88                         -0.2384548              -6.4887
        89                         -0.2369523              -6.4478
        90                         -0.2314907              -6.2992
        91                         -0.2308074              -6.2806
        92                         -0.2269568              -6.1758
        93                         -0.2167999              -5.8994
        94                         -0.2155715              -5.8660
       ...                                ...                  ...
       163                          1.1554307              31.4409
      -------------------------------------------------------------
                  HL-Gap            0.0561550 Eh            1.5281 eV

     #   Z          covCN         q      C6AA      α(0)
     1   7 N        0.911    -0.270    26.983     7.513
     2   6 C        1.913     0.119    28.165     8.571
     3   6 C        2.976     0.016    27.645     8.625
     4   6 C        2.928    -0.021    28.521     8.758
     5   6 C        2.913    -0.027    28.686     8.783
     6   6 C        3.033     0.012    27.708     8.634
     7   6 C        3.057     0.011    27.721     8.634
     8   6 C        2.921    -0.021    28.533     8.760
     9   6 C        3.948     0.015    20.261     6.396
    10   6 C        3.057     0.011    27.718     8.634
    11   6 C        2.921    -0.021    28.528     8.759
    12   6 C        2.976     0.016    27.643     8.624
    13   6 C        1.913     0.119    28.165     8.571
    14   7 N        0.911    -0.270    26.984     7.513
    15   6 C        2.928    -0.021    28.521     8.758
    16   6 C        2.913    -0.028    28.689     8.783
    17   6 C        3.033     0.012    27.708     8.634
    18   6 C        2.982    -0.013    28.338     8.732
    19   6 C        2.925    -0.037    28.919     8.819
    20   6 C        2.917    -0.044    29.086     8.844
    21   6 C        2.919    -0.031    28.782     8.798
    22   6 C        2.924    -0.057    29.411     8.894
    23   6 C        2.925     0.060    26.646     8.465
    24   7 N        2.753    -0.069    22.579     7.057
    25   6 C        2.927     0.066    26.529     8.447
    26   6 C        2.921    -0.037    28.920     8.819
    27   6 C        2.920    -0.027    28.667     8.780
    28   6 C        2.920    -0.029    28.716     8.788
    29   6 C        2.920    -0.027    28.669     8.780
    30   6 C        2.921    -0.037    28.922     8.819
    31   6 C        2.925     0.060    26.646     8.465
    32   6 C        2.924    -0.057    29.411     8.894
    33   6 C        2.919    -0.031    28.782     8.798
    34   6 C        2.917    -0.044    29.086     8.844
    35   6 C        2.925    -0.037    28.919     8.819
    36   6 C        2.982    -0.013    28.338     8.732
    37   1 H        0.926     0.048     2.347     2.396
    38   1 H        0.926     0.054     2.270     2.356
    39   1 H        0.926     0.040     2.448     2.447
    40   1 H        0.926     0.040     2.444     2.445
    41   1 H        0.926     0.048     2.348     2.396
    42   1 H        0.926     0.054     2.272     2.357
    43   1 H        0.926     0.026     2.643     2.542
    44   1 H        0.926     0.031     2.573     2.509
    45   1 H        0.926     0.034     2.524     2.485
    46   1 H        0.926     0.033     2.543     2.494
    47   1 H        0.926     0.041     2.434     2.440
    48   1 H        0.926     0.044     2.393     2.419
    49   1 H        0.926     0.044     2.395     2.420
    50   1 H        0.926     0.044     2.391     2.418
    51   1 H        0.926     0.042     2.423     2.434
    52   1 H        0.926     0.033     2.543     2.494
    53   1 H        0.926     0.034     2.524     2.485
    54   1 H        0.926     0.031     2.573     2.508
    55   1 H        0.926     0.026     2.642     2.542

molecular dipole:
                 x           y           z       tot (Debye)
 q only:        0.650       0.012      -0.008
   full:        0.471      -0.008      -0.010       1.198

 projected vibrational frequencies (cm⁻¹)
eigval :       -0.00    -0.00    -0.00     0.00     0.00     0.00
eigval :        5.30    16.66    30.07    35.02    40.79    48.98
eigval :       61.11    67.12    78.21    82.70   116.27   126.26
eigval :      155.22   157.08   158.82   174.52   198.12   232.10
eigval :      245.28   248.85   250.99   261.85   296.32   315.87
eigval :      368.46   371.05   379.31   389.03   398.83   411.88
eigval :      422.14   434.27   435.09   442.40   458.10   476.13
eigval :      483.39   487.73   508.04   513.49   541.50   555.63
eigval :      574.33   591.99   592.19   594.21   606.60   608.24
eigval :      609.53   628.53   645.30   669.92   677.33   678.14
eigval :      689.30   704.45   731.16   733.31   749.70   764.85
eigval :      778.81   785.52   820.28   835.29   856.16   864.61
eigval :      868.81   875.50   876.15   877.78   896.06   905.99
eigval :      909.82   910.05   911.02   911.78   913.21   922.62
eigval :      924.66   930.06   934.17   948.62   956.73   976.69
eigval :      995.77  1006.42  1076.63  1086.65  1106.20  1107.39
eigval :     1112.05  1125.26  1137.98  1142.88  1155.03  1156.46
eigval :     1179.68  1181.60  1182.54  1183.27  1189.47  1205.21
eigval :     1218.56  1231.10  1231.78  1249.26  1254.85  1264.95
eigval :     1271.26  1271.84  1290.29  1307.09  1317.07  1322.28
eigval :     1324.04  1333.85  1339.99  1355.83  1409.94  1425.15
eigval :     1430.51  1432.64  1436.29  1436.37  1457.39  1467.79
eigval :     1478.25  1493.40  1557.99  1570.98  1571.30  1582.12
eigval :     1583.06  1587.34  1588.41  1591.83  1592.06  1601.90
eigval :     2358.43  2361.20  3074.99  3075.43  3078.42  3079.07
eigval :     3079.22  3079.84  3085.68  3086.09  3086.78  3089.27
eigval :     3090.30  3090.82  3093.64  3093.99  3097.89  3098.34
eigval :     3100.18  3101.73  3103.09

   temp. (K)  partition function   enthalpy   heat capacity  entropy
                                   cal/mol     cal/K/mol   cal/K/mol   J/K/mol
 298.15  VIB  0.308E+13            15967.293    101.470     99.491
         ROT  0.257E+08              888.752      2.981     36.887
         INT  0.792E+20            16856.045    104.451    136.378
         TR   0.947E+28             1481.254      4.968     44.231
         TOT                       18337.2990   109.4190   180.6087   755.6667

       T/K    H(0)-H(T)+PV         H(T)/Eh          T*S/Eh         G(T)/Eh
   ------------------------------------------------------------------------
    298.15    0.292223E-01    0.437773E+00    0.858130E-01    0.351960E+00
   ------------------------------------------------------------------------

         :::::::::::::::::::::::::::::::::::::::::::::::::::::
         ::                  THERMODYNAMIC                  ::
         :::::::::::::::::::::::::::::::::::::::::::::::::::::
         :: total free energy         -88.772430507724 Eh   ::
         ::.................................................::
         :: total energy              -89.124390596867 Eh   ::
         :: zero point energy           0.408550758023 Eh   ::
         :: G(RRHO) w/o ZPVE           -0.056590668880 Eh   ::
         :: G(RRHO) contrib.            0.351960089143 Eh   ::
         :::::::::::::::::::::::::::::::::::::::::::::::::::::

           -------------------------------------------------
          | TOTAL ENERGY              -89.124390596867 Eh   |
          | TOTAL ENTHALPY            -88.686617492816 Eh   |
          | TOTAL FREE ENERGY         -88.772430507724 Eh   |
          | GRADIENT NORM               0.000052287642 Eh/α |
          | HOMO-LUMO GAP               1.528054438159 eV   |
           -------------------------------------------------

 * finished run on 2025/09/11 at 04:33:39.785
