   * xtb version 6.7.1 (edcfbbe) compiled by 'albert@albert-system' on 2024-07-22

   ID    Z sym.   atoms
    1    6 C      1-5, 7-13, 15-21, 23-33, 35-41, 43-45, 47, 48
    2    7 N      6, 14, 22, 34, 42, 46
    3    1 H      49-76

          program call               : xtb data2507/gas/B4PyPPM/B4PyPPM.xyz --gfn 2 --ohess vtight --parallel 40 --molden --ceasefiles --namespace data2507/gas/B4PyPPM/B4PyPPM_gas_S0_preOpt
          :  Hamiltonian                  GFN2-xTB          :
 * total energy  :  -121.7113964 Eh     change       -0.3231591E-08 Eh
 * total energy  :  -121.7230408 Eh     change       -0.1164443E-01 Eh
 * total energy  :  -121.7258359 Eh     change       -0.2795088E-02 Eh
 * total energy  :  -121.7266287 Eh     change       -0.7927381E-03 Eh
 * total energy  :  -121.7270601 Eh     change       -0.4313764E-03 Eh
 * total energy  :  -121.7272395 Eh     change       -0.1794489E-03 Eh
 * total energy  :  -121.7274991 Eh     change       -0.2596099E-03 Eh
 * total energy  :  -121.7277836 Eh     change       -0.2844449E-03 Eh
 * total energy  :  -121.7280774 Eh     change       -0.2938475E-03 Eh
 * total energy  :  -121.7283286 Eh     change       -0.2511902E-03 Eh
 * total energy  :  -121.7293150 Eh     change       -0.5710131E-06 Eh
 * total energy  :  -121.7293154 Eh     change       -0.4079149E-06 Eh
 * total energy  :  -121.7293158 Eh     change       -0.3594172E-06 Eh
 * total energy  :  -121.7293161 Eh     change       -0.3057655E-06 Eh
 * total energy  :  -121.7293164 Eh     change       -0.2932556E-06 Eh
 * total energy  :  -121.7293165 Eh     change       -0.1849610E-06 Eh
 * total energy  :  -121.7293167 Eh     change       -0.1385263E-06 Eh
 * total energy  :  -121.7293168 Eh     change       -0.1212142E-06 Eh
 * total energy  :  -121.7293168 Eh     change       -0.1084388E-08 Eh
   *** GEOMETRY OPTIMIZATION CONVERGED AFTER 94 ITERATIONS ***

 final structure:
================
76
 xtb: 6.7.1 (edcfbbe)
C           -0.07096191900833       -6.62704393876999       -1.55789913866514
C            1.13667301907595       -5.96384518886894       -1.40618578660714
C            1.15425382158200       -4.61706689046370       -1.09995549483629
C           -0.04164516501370       -3.91964350305577       -0.94158829083751
C           -0.02631598936605       -2.49208438603206       -0.61336172881496
N           -1.19700548925452       -1.88157276919155       -0.46723694534170
C           -1.19493958728371       -0.58812781385219       -0.15952124212061
C           -2.51235505308603        0.04200791900398        0.00442638061524
C           -2.70299889099407        1.40501832301165       -0.19291952417444
C           -3.96501733304231        1.97018587729042       -0.04249252079789
C           -4.16414150591319        3.41010922874409       -0.26484618021356
C           -5.28530079865007        3.89081669283855       -0.93925536896562
C           -5.41967598775359        5.25692632538606       -1.12127510546687
N           -4.53984063845829        6.14258631011745       -0.68632434308125
C           -3.47612901653977        5.69073584733236       -0.04463688632703
C           -3.23837877613395        4.34723578469734        0.19121392467560
C           -5.03663865174370        1.15971592984740        0.31673177731748
C           -4.86244930268712       -0.20644888082609        0.51440931755671
C           -6.00152418611859       -1.05891653053728        0.88514718078297
C           -6.15714415501086       -2.33025250517760        0.33471721288587
C           -7.24933246938549       -3.09190152912136        0.71384380191957
N           -8.16180050017886       -2.68219363630366        1.57862119405758
C           -8.01578729385064       -1.47815865251299        2.10430351761245
C           -6.96566824502396       -0.62980451505209        1.79558004922825
C           -3.59762910828281       -0.75704463935484        0.35027307721042
C            0.00145767801753        0.10738895442239        0.01072991108840
C            1.18247868853316       -0.60952911329519       -0.17644825085138
C            2.51352503237986       -0.00292848346434       -0.03424457691858
C            2.72678803030400        1.35461069943563       -0.24495892290016
C            3.99831913053583        1.89990793726104       -0.10237618951754
C            4.22000399828349        3.33587839434664       -0.32943593487351
C            3.60291831038342        4.00688596554981       -1.38398042453813
C            3.84760176482359        5.35981769353885       -1.54878964891701
N            4.63785317039144        6.06168617923899       -0.75481726035942
C            5.22458355029194        5.42895186781941        0.24669905173123
C            5.05455748706266        4.07908373835605        0.50377492703315
C            5.05851300166353        1.07353374454261        0.25484121924887
C            4.86440287590531       -0.29028422232408        0.45097734731174
C            5.99367947249504       -1.16227683151273        0.80556437666960
C            6.11977561789534       -2.43653116410650        0.25445499900081
C            7.20341148657876       -3.21692759113930        0.61982789694657
N            8.13428221352854       -2.82283524617651        1.47212763676003
C            8.01651399499338       -1.61599512417938        1.99840317082729
C            6.97735650009044       -0.74985431010766        1.70272635047341
C            3.58857002208952       -0.81953010359812        0.30222636622562
N            1.15716996491486       -1.90289569429474       -0.48347046570830
C           -1.25238003307869       -4.59154376353274       -1.09765247142660
C           -1.26396722616066       -5.93833920673710       -1.40406274438262
H           -0.08236357395449       -7.68030853004649       -1.79728962119188
H            2.06567545453355       -6.50150663303904       -1.52803506169159
H            2.08510415801369       -4.08511888422184       -0.98176256755607
H           -1.88120621711106        2.02973425129018       -0.50984003574801
H           -6.02578049122020        3.21004056436543       -1.33071124478084
H           -6.27485770714175        5.66654638679426       -1.64303876012239
H           -2.78132432910392        6.44687518797563        0.29753770201389
H           -2.36166635040790        4.03421394932162        0.73785458406101
H           -6.01691576688401        1.59694683283144        0.43813592931858
H           -5.44964371484271       -2.70564245407400       -0.38844712221220
H           -7.40590864472957       -4.08188090517091        0.30527284924740
H           -8.78134803370071       -1.18099165777984        2.80940680943109
H           -6.88635051655178        0.33748117945001        2.26815560952547
H           -3.42998960509969       -1.81042972090318        0.51119395703864
H            0.01336600459874        1.14055431298292        0.31454371515576
H            1.90613777045234        1.99807131086275       -0.52502241153574
H            2.96267819632972        3.47800045294363       -2.07367214276880
H            3.38897652728640        5.91309413907741       -2.35815769810093
H            5.86203515568622        6.03846345677500        0.87405628747165
H            5.54454166295615        3.61599222516849        1.34668384664674
H            6.05275799934113        1.48852642926699        0.33369261300257
H            5.39634247102623       -2.79998284583658       -0.45893707442822
H            7.33712886535348       -4.20979805101327        0.21017806618086
H            8.79650465083539       -1.33185577719614        2.69300351201544
H            6.92155221603687        0.21884929171248        2.17563236036673
H            3.40475503556744       -1.86944136367103        0.46807280541306
H           -2.17146702912102       -4.03984594325468       -0.97790739359840
H           -2.20439669794668       -6.45609238381512       -1.52448375367301

          :  Hamiltonian                  GFN2-xTB          :
         :: gradient norm              0.000025287249 Eh/a0 ::
         :: HOMO-LUMO gap              2.125725441972 eV    ::
         :: SCC energy              -123.932556650449 Eh    ::
         :: -> dispersion             -0.098169381169 Eh    ::
         :: repulsion energy           2.203239847551 Eh    ::

    * Orbital Energies and Occupations

         #    Occupation            Energy/Eh            Energy/eV
      -------------------------------------------------------------
         1        2.0000           -0.6833608             -18.5952
       ...           ...                  ...                  ...
       101        2.0000           -0.4232301             -11.5167
       102        2.0000           -0.4154666             -11.3054
       103        2.0000           -0.4152822             -11.3004
       104        2.0000           -0.4124661             -11.2238
       105        2.0000           -0.4112815             -11.1915
       106        2.0000           -0.4112655             -11.1911
       107        2.0000           -0.4060616             -11.0495
       108        2.0000           -0.4027908             -10.9605
       109        2.0000           -0.3747841             -10.1984
       110        2.0000           -0.3745366             -10.1917
       111        2.0000           -0.3724618             -10.1352
       112        2.0000           -0.3722691             -10.1300
       113        2.0000           -0.3694667             -10.0537 (HOMO)
       114                         -0.2913477              -7.9280 (LUMO)
       115                         -0.2819006              -7.6709
       116                         -0.2767189              -7.5299
       117                         -0.2762874              -7.5182
       118                         -0.2674753              -7.2784
       119                         -0.2620547              -7.1309
       120                         -0.2444550              -6.6520
       121                         -0.2442611              -6.6467
       122                         -0.2419165              -6.5829
       123                         -0.2417999              -6.5797
       124                         -0.2415857              -6.5739
       ...                                ...                  ...
       220                          0.6859306              18.6651
      -------------------------------------------------------------
                  HL-Gap            0.0781190 Eh            2.1257 eV

     #   Z          covCN         q      C6AA      α(0)
     1   6 C        2.920    -0.025    28.619     8.773
     2   6 C        2.918    -0.028    28.694     8.784
     3   6 C        2.924    -0.026    28.641     8.776
     4   6 C        2.985     0.001    27.992     8.679
     5   6 C        2.946     0.183    24.090     8.050
     6   7 N        1.850    -0.269    27.838     7.820
     7   6 C        2.970     0.111    25.557     8.292
     8   6 C        2.978     0.005    27.905     8.665
     9   6 C        2.928    -0.035    28.883     8.814
    10   6 C        2.974     0.009    27.812     8.651
    11   6 C        2.986     0.027    27.401     8.587
    12   6 C        2.919    -0.044    29.082     8.843
    13   6 C        2.914     0.060    26.653     8.466
    14   7 N        1.836    -0.220    26.632     7.648
    15   6 C        2.914     0.060    26.661     8.467
    16   6 C        2.919    -0.044    29.086     8.844
    17   6 C        2.930    -0.034    28.853     8.809
    18   6 C        2.973     0.011    27.773     8.644
    19   6 C        2.986     0.027    27.393     8.585
    20   6 C        2.919    -0.043    29.076     8.843
    21   6 C        2.914     0.060    26.656     8.466
    22   7 N        1.836    -0.220    26.647     7.650
    23   6 C        2.914     0.060    26.661     8.467
    24   6 C        2.919    -0.044    29.088     8.844
    25   6 C        2.932    -0.029    28.719     8.789
    26   6 C        2.912    -0.065    29.627     8.925
    27   6 C        2.970     0.110    25.559     8.293
    28   6 C        2.978     0.005    27.903     8.665
    29   6 C        2.928    -0.036    28.885     8.814
    30   6 C        2.974     0.009    27.813     8.651
    31   6 C        2.986     0.027    27.402     8.587
    32   6 C        2.919    -0.044    29.089     8.844
    33   6 C        2.914     0.060    26.658     8.467
    34   7 N        1.836    -0.220    26.635     7.648
    35   6 C        2.914     0.060    26.657     8.466
    36   6 C        2.919    -0.044    29.084     8.844
    37   6 C        2.930    -0.034    28.852     8.809
    38   6 C        2.973     0.011    27.773     8.644
    39   6 C        2.986     0.027    27.392     8.585
    40   6 C        2.919    -0.043    29.073     8.842
    41   6 C        2.914     0.060    26.653     8.466
    42   7 N        1.836    -0.220    26.646     7.650
    43   6 C        2.914     0.060    26.662     8.467
    44   6 C        2.919    -0.044    29.083     8.843
    45   6 C        2.932    -0.029    28.718     8.789
    46   7 N        1.850    -0.269    27.838     7.820
    47   6 C        2.924    -0.026    28.642     8.776
    48   6 C        2.918    -0.028    28.694     8.784
    49   1 H        0.926     0.036     2.501     2.473
    50   1 H        0.926     0.036     2.506     2.475
    51   1 H        0.926     0.052     2.295     2.369
    52   1 H        0.926     0.036     2.499     2.472
    53   1 H        0.926     0.036     2.499     2.472
    54   1 H        0.925     0.041     2.442     2.444
    55   1 H        0.925     0.040     2.448     2.447
    56   1 H        0.926     0.033     2.545     2.495
    57   1 H        0.926     0.040     2.445     2.445
    58   1 H        0.926     0.039     2.457     2.451
    59   1 H        0.925     0.040     2.446     2.446
    60   1 H        0.925     0.040     2.455     2.450
    61   1 H        0.926     0.035     2.518     2.481
    62   1 H        0.926     0.058     2.222     2.331
    63   1 H        0.926     0.032     2.555     2.499
    64   1 H        0.926     0.036     2.501     2.473
    65   1 H        0.926     0.035     2.519     2.482
    66   1 H        0.925     0.040     2.446     2.446
    67   1 H        0.925     0.040     2.445     2.445
    68   1 H        0.926     0.035     2.518     2.481
    69   1 H        0.926     0.040     2.444     2.445
    70   1 H        0.926     0.039     2.457     2.451
    71   1 H        0.925     0.040     2.445     2.445
    72   1 H        0.925     0.039     2.456     2.451
    73   1 H        0.926     0.034     2.531     2.488
    74   1 H        0.926     0.058     2.224     2.332
    75   1 H        0.926     0.052     2.295     2.369
    76   1 H        0.926     0.036     2.506     2.476

molecular dipole:
                 x           y           z       tot (Debye)
 q only:       -0.024      -0.462      -0.026
   full:       -0.018      -0.323      -0.021       0.824

 projected vibrational frequencies (cm⁻¹)
eigval :       -0.00    -0.00    -0.00    -0.00     0.00     0.00
eigval :        6.24     7.85    17.23    22.56    22.96    34.22
eigval :       41.88    42.63    43.57    45.84    46.11    47.52
eigval :       49.71    71.11    72.95    93.10    97.28   107.56
eigval :      111.32   120.36   157.65   167.73   195.36   202.57
eigval :      212.03   220.88   223.89   228.49   233.25   261.64
eigval :      266.27   269.81   276.85   306.56   322.91   333.00
eigval :      333.78   334.56   335.38   348.37   360.12   365.40
eigval :      370.09   389.10   400.66   405.53   434.65   466.32
eigval :      485.10   504.35   525.77   546.83   558.04   583.62
eigval :      586.00   586.31   587.16   600.21   600.37   604.05
eigval :      605.05   626.66   627.39   632.84   633.19   634.55
eigval :      637.95   660.33   667.14   676.23   680.90   686.10
eigval :      706.28   707.69   707.98   708.64   740.20   743.06
eigval :      779.94   788.84   791.90   799.24   801.22   829.28
eigval :      839.45   841.72   845.00   849.75   876.89   883.16
eigval :      883.47   884.01   885.23   885.71   893.53   894.53
eigval :      901.20   901.46   909.23   915.10   915.51   915.72
eigval :      915.89   922.54   925.08   925.35   925.51   925.64
eigval :      930.01   933.53   967.20   987.38   991.07  1006.52
eigval :     1008.25  1009.13  1009.35  1028.24  1076.54  1084.61
eigval :     1098.11  1099.02  1099.66  1101.28  1103.37  1109.34
eigval :     1111.47  1116.64  1117.13  1117.72  1120.47  1123.09
eigval :     1129.41  1129.87  1167.02  1180.96  1195.55  1196.61
eigval :     1208.66  1208.89  1209.11  1209.51  1240.08  1241.40
eigval :     1245.17  1245.65  1252.95  1263.62  1263.89  1263.95
eigval :     1264.11  1269.68  1281.72  1282.20  1282.35  1282.38
eigval :     1293.10  1323.77  1324.17  1326.16  1332.95  1364.41
eigval :     1367.60  1368.97  1374.63  1375.70  1380.66  1397.37
eigval :     1426.87  1427.91  1432.82  1443.36  1450.83  1472.61
eigval :     1479.60  1480.13  1480.23  1481.29  1523.18  1533.26
eigval :     1551.15  1551.28  1551.31  1551.46  1575.12  1576.04
eigval :     1576.72  1577.12  1582.04  1582.63  1583.02  1583.56
eigval :     1586.03  1596.49  3055.94  3056.07  3056.29  3056.60
eigval :     3056.87  3056.99  3057.30  3057.70  3074.51  3079.87
eigval :     3083.63  3083.66  3084.85  3085.42  3087.49  3087.75
eigval :     3088.16  3088.79  3089.90  3090.14  3090.23  3092.37
eigval :     3092.73  3106.53  3106.65  3107.00  3107.30  3107.81

   temp. (K)  partition function   enthalpy   heat capacity  entropy
                                   cal/mol     cal/K/mol   cal/K/mol   J/K/mol
 298.15  VIB  0.313E+20            22666.859    136.499    144.962
         ROT  0.115E+09              888.752      2.981     39.858
         INT  0.359E+28            23555.612    139.480    184.820
         TR   0.148E+29             1481.254      4.968     45.120
         TOT                       25036.8658   144.4479   229.9406   962.0715

       T/K    H(0)-H(T)+PV         H(T)/Eh          T*S/Eh         G(T)/Eh
   ------------------------------------------------------------------------
    298.15    0.398988E-01    0.613232E+00    0.109252E+00    0.503979E+00
   ------------------------------------------------------------------------

         :::::::::::::::::::::::::::::::::::::::::::::::::::::
         ::                  THERMODYNAMIC                  ::
         :::::::::::::::::::::::::::::::::::::::::::::::::::::
         :: total free energy        -121.225337477225 Eh   ::
         ::.................................................::
         :: total energy             -121.729316802897 Eh   ::
         :: zero point energy           0.573332737749 Eh   ::
         :: G(RRHO) w/o ZPVE           -0.069353412077 Eh   ::
         :: G(RRHO) contrib.            0.503979325672 Eh   ::
         :::::::::::::::::::::::::::::::::::::::::::::::::::::

           -------------------------------------------------
          | TOTAL ENERGY             -121.729316802897 Eh   |
          | TOTAL ENTHALPY           -121.116085279871 Eh   |
          | TOTAL FREE ENERGY        -121.225337477225 Eh   |
          | GRADIENT NORM               0.000025286912 Eh/α |
          | HOMO-LUMO GAP               2.125725401899 eV   |
           -------------------------------------------------

 * finished run on 2025/08/22 at 16:43:21.674
