   * xtb version 6.7.1 (edcfbbe) compiled by 'albert@albert-system' on 2024-07-22

   ID    Z sym.   atoms
    1    6 C      1-5, 7-13, 15-21, 23-33, 35-41, 43-45, 47, 48
    2    7 N      6, 14, 22, 34, 42, 46
    3    1 H      49-76

          program call               : xtb data2507/gas/B4PyPPM/B4PyPPM_gas_S0_finalOpt.xtbopt.xyz --gfn 2 --spinpol --tblite --uhf 2 --ohess vtight --parallel 40 --molden --ceasefiles --namespace data2507/gas/B4PyPPM/B4PyPPM_gas_T1_preOpt
 * total energy  :  -121.6473433 Eh     change        0.1186049E-07 Eh
 * total energy  :  -121.6516541 Eh     change       -0.4310812E-02 Eh
 * total energy  :  -121.6533028 Eh     change       -0.1648688E-02 Eh
 * total energy  :  -121.6534514 Eh     change       -0.1486283E-03 Eh
 * total energy  :  -121.6536283 Eh     change       -0.1769564E-03 Eh
 * total energy  :  -121.6536927 Eh     change       -0.6440511E-04 Eh
 * total energy  :  -121.6537544 Eh     change       -0.6165987E-04 Eh
 * total energy  :  -121.6537908 Eh     change       -0.3637389E-04 Eh
 * total energy  :  -121.6538202 Eh     change       -0.2939604E-04 Eh
 * total energy  :  -121.6538856 Eh     change       -0.6540423E-04 Eh
 * total energy  :  -121.6550116 Eh     change       -0.5435308E-06 Eh
 * total energy  :  -121.6550121 Eh     change       -0.5208463E-06 Eh
 * total energy  :  -121.6550126 Eh     change       -0.5380341E-06 Eh
 * total energy  :  -121.6550132 Eh     change       -0.5540045E-06 Eh
 * total energy  :  -121.6550137 Eh     change       -0.4834080E-06 Eh
 * total energy  :  -121.6550142 Eh     change       -0.5028030E-06 Eh
 * total energy  :  -121.6550142 Eh     change        0.2690599E-07 Eh
 * total energy  :  -121.6550141 Eh     change        0.3029116E-07 Eh
 * total energy  :  -121.6550142 Eh     change       -0.6615188E-07 Eh
   *** GEOMETRY OPTIMIZATION CONVERGED AFTER 154 ITERATIONS ***

 final structure:
================
76
 xtb: 6.7.1 (edcfbbe)
C           -0.04170488904692       -6.78580409540100       -0.62062352102199
C            1.16333533465375       -6.10435735010600       -0.55042217078110
C            1.17439152535990       -4.72854504617252       -0.42873459492761
C           -0.02411399644779       -4.02103588597283       -0.37605501181240
C           -0.01549955425793       -2.56471803166859       -0.25474804697358
N           -1.15224375596214       -1.91050587205088       -0.19958959899426
C           -1.20174599885785       -0.54765124443408       -0.09954485756959
C           -2.50796846289468        0.05571185168837       -0.02981644166235
C           -2.71701438743499        1.44056730561942       -0.08598252612408
C           -3.99500813159163        1.97271540389040       -0.02119223251838
C           -4.19124199553393        3.42723904245437       -0.10333046745697
C           -5.23538018587727        3.97546170392903       -0.84749744702007
C           -5.37252581265135        5.35199688717450       -0.89462323592850
N           -4.56219365284176        6.18412737861162       -0.26490013486301
C           -3.57147152522797        5.67306496909968        0.44425364191465
C           -3.34099325660291        4.31302881434685        0.55789971616940
C           -5.09466278312826        1.12650220181824        0.11543539791790
C           -4.91046141979866       -0.25439505842179        0.17613753488141
C           -6.06502148642569       -1.15111369853258        0.32969796050398
C           -6.14402677244641       -2.35533188981773       -0.36902708369648
C           -7.25223033463868       -3.16370302085588       -0.18476820765973
N           -8.24872630649000       -2.85482398720791        0.62591725456841
C           -8.18155952747555       -1.71608959394804        1.29194613706569
C           -7.12165770090089       -0.83240177799449        1.18164625326228
C           -3.63200230880955       -0.77683478663953        0.09541224166660
C           -0.00032976325894        0.15483997329813       -0.05450628706722
C            1.19460032058583       -0.56033092277362       -0.10603770957192
C            2.50775165345883        0.02710277861833       -0.04807486460968
C            2.73130563745761        1.41105112350560       -0.03536422600763
C            4.01571857245816        1.92668368316233        0.03317622476388
C            4.22394074817190        3.38166905315348        0.04895974814987
C            3.47763718257384        4.23107713624709       -0.76741999597520
C            3.71447902542602        5.59354473029320       -0.71014722829184
N            4.61696285117984        6.14028005098579        0.08495687731182
C            5.32891887786986        5.34295916926795        0.86148553868201
C            5.17588281241596        3.96756667120118        0.88273466179932
C            5.10993864395086        1.06415744927999        0.09110137371051
C            4.91278432280835       -0.31633095876466        0.06450962696176
C            6.06149137080587       -1.23159168857392        0.11962405633634
C            6.10088797970739       -2.39162020820431       -0.65335196329967
C            7.20501582015386       -3.22078867280677       -0.55916441605005
N            8.23365509107782       -2.97225072483503        0.23188142824421
C            8.20462705853340       -1.87548572535852        0.96749548617831
C            7.15220187866312       -0.97650655146191        0.94984038552178
C            3.62685878743258       -0.82104316391893       -0.00631478287820
N            1.12777181562347       -1.92233470870568       -0.21008211844996
C           -1.23150849764138       -4.71173751739420       -0.44654108661711
C           -1.23801178052991       -6.08756377481361       -0.56816313938158
H           -0.04851882698010       -7.86148507483427       -0.71643758438460
H            2.09464295865881       -6.64976049736866       -0.59101674969491
H            2.10472587097337       -4.18412356944470       -0.37305095955272
H           -1.88328937162756        2.11185677388165       -0.22091197742331
H           -5.91431587919634        3.33897654235112       -1.39398391836794
H           -6.16778343314830        5.81438107580108       -1.46467488992477
H           -2.93521437322814        6.39100664096998        0.94531309968738
H           -2.52812259833557        3.94531209600539        1.16541072312719
H           -6.08931597306369        1.54185575200552        0.17160167532229
H           -5.36351935674593       -2.64402167501830       -1.05603957471934
H           -7.35143002075883       -4.10407049255233       -0.71124061884972
H           -9.01792564135476       -1.50536401458144        1.94562307656386
H           -7.10658004177328        0.07787407351860        1.76119277694516
H           -3.47290097976893       -1.84210225622543        0.16217146999790
H            0.00474071097712        1.22673129099476        0.04371036922110
H            1.89965398389108        2.09772561379980       -0.05885034768149
H            2.74114001105872        3.83256082436846       -1.44840127518436
H            3.15764603363879        6.28356527830588       -1.33074710270374
H            6.05441892693196        5.83392983898137        1.49695719549260
H            5.77099801935308        3.36165241073541        1.54853625892120
H            6.11147313157459        1.46646443616352        0.10456657376883
H            5.29285609972998       -2.63022009281921       -1.32761799008384
H            7.27361350318299       -4.12821636567394       -1.14497791562618
H            9.06657985759738       -1.71355238082168        1.60156995150830
H            7.16946012206864       -0.10349632306683        1.58395628708694
H            3.45825083660259       -1.88687226660450        0.00136675993899
H           -2.15456696670557       -4.15374534062533       -0.40587258627172
H           -2.17612590112830       -6.61993306047486       -0.62273853658534

 projected vibrational frequencies (cm⁻¹)
eigval :       -0.00    -0.00     0.00     0.00     0.00     0.00
eigval :        4.73     6.70    19.45    22.41    22.99    36.56
eigval :       41.67    42.47    43.49    45.53    46.69    48.37
eigval :       50.61    67.82    70.33    95.51   101.05   107.72
eigval :      108.67   115.37   160.31   167.72   195.88   202.29
eigval :      205.26   209.32   212.64   223.13   224.87   258.76
eigval :      263.73   269.48   273.90   303.98   317.32   335.98
eigval :      337.52   338.08   338.62   348.27   356.31   366.15
eigval :      368.95   385.29   399.22   406.34   421.22   455.10
eigval :      483.46   498.18   512.59   536.91   551.19   569.46
eigval :      575.21   580.44   582.25   589.66   590.25   593.02
eigval :      593.24   595.95   605.83   624.53   626.15   628.43
eigval :      629.71   630.51   641.44   654.70   656.73   658.51
eigval :      664.51   703.15   704.62   705.12   706.14   736.70
eigval :      764.68   781.62   784.08   797.62   799.58   812.30
eigval :      818.07   821.46   831.11   832.25   853.54   855.40
eigval :      858.93   863.83   866.02   873.44   882.44   883.54
eigval :      883.97   884.40   904.75   904.89   912.98   913.60
eigval :      913.70   913.96   922.20   922.51   922.74   923.02
eigval :      927.58   932.88   952.27   962.48   970.90   987.37
eigval :      997.09   998.14   999.57  1003.35  1047.54  1071.35
eigval :     1074.69  1078.34  1095.03  1096.30  1097.62  1099.14
eigval :     1103.18  1111.59  1112.75  1116.01  1116.72  1119.61
eigval :     1120.73  1129.49  1130.32  1166.80  1180.15  1199.30
eigval :     1203.64  1204.31  1204.88  1205.45  1216.76  1241.36
eigval :     1242.00  1247.37  1250.40  1260.88  1260.91  1261.43
eigval :     1261.75  1269.77  1282.34  1287.49  1287.82  1287.94
eigval :     1288.97  1297.60  1328.59  1331.23  1335.33  1338.08
eigval :     1350.06  1366.18  1368.54  1371.75  1375.17  1378.11
eigval :     1387.65  1413.67  1423.69  1424.57  1437.18  1450.39
eigval :     1455.32  1472.03  1472.16  1474.32  1476.74  1484.12
eigval :     1534.80  1535.64  1546.16  1548.84  1550.14  1550.23
eigval :     1558.91  1566.44  1573.22  1573.91  1574.28  1579.62
eigval :     1584.14  1595.28  3056.37  3056.49  3056.53  3056.82
eigval :     3057.21  3057.31  3057.41  3057.53  3077.99  3082.28
eigval :     3087.57  3087.79  3088.16  3088.43  3090.43  3090.63
eigval :     3090.74  3091.30  3091.69  3093.30  3093.47  3093.58
eigval :     3094.60  3095.78  3096.24  3097.21  3098.96  3117.67

   temp. (K)  partition function   enthalpy   heat capacity  entropy
                                   cal/mol     cal/K/mol   cal/K/mol   J/K/mol
 298.15  VIB  0.559E+20            22949.765    138.556    146.872
         ROT  0.115E+09              888.752      2.981     39.858
         INT  0.641E+28            23838.518    141.537    186.730
         TR   0.148E+29             1481.254      4.968     45.120
         TOT                       25319.7717   146.5050   231.8505   970.0625

       T/K    H(0)-H(T)+PV         H(T)/Eh          T*S/Eh         G(T)/Eh
   ------------------------------------------------------------------------
    298.15    0.403496E-01    0.609724E+00    0.110160E+00    0.499564E+00
   ------------------------------------------------------------------------

         :::::::::::::::::::::::::::::::::::::::::::::::::::::
         ::                  THERMODYNAMIC                  ::
         :::::::::::::::::::::::::::::::::::::::::::::::::::::
         :: total free energy        -121.155450154240 Eh   ::
         ::.................................................::
         :: total energy             -121.655014150882 Eh   ::
         :: zero point energy           0.569374030429 Eh   ::
         :: G(RRHO) w/o ZPVE           -0.069810033787 Eh   ::
         :: G(RRHO) contrib.            0.499563996642 Eh   ::
         :::::::::::::::::::::::::::::::::::::::::::::::::::::

           -------------------------------------------------
          | TOTAL ENERGY             -121.655014150882 Eh   |
          | TOTAL ENTHALPY           -121.045290495870 Eh   |
          | TOTAL FREE ENERGY        -121.155450154240 Eh   |
          | GRADIENT NORM               0.000095904319 Eh/α |
           -------------------------------------------------

 * finished run on 2025/08/22 at 16:47:59.311
