   * xtb version 6.7.1 (edcfbbe) compiled by 'albert@albert-system' on 2024-07-22

   ID    Z sym.   atoms
    1    6 C      1-5, 7-13, 15-21, 23-33, 35-41, 43-45, 47, 48
    2    7 N      6, 14, 22, 34, 42, 46
    3    1 H      49-76

          program call               : xtb data2507/gas/B4PyPPM/B4PyPPM_gas_S0_crest.xyz --gfn 2 --ohess vtight --parallel 40 --molden --ceasefiles --namespace data2507/gas/B4PyPPM/B4PyPPM_gas_S0_finalOpt
          :  Hamiltonian                  GFN2-xTB          :
 * total energy  :  -121.7292923 Eh     change       -0.2894978E-08 Eh
 * total energy  :  -121.7292946 Eh     change       -0.2384080E-05 Eh
 * total energy  :  -121.7292983 Eh     change       -0.3655658E-05 Eh
 * total energy  :  -121.7293011 Eh     change       -0.2835280E-05 Eh
 * total energy  :  -121.7293026 Eh     change       -0.1429271E-05 Eh
 * total energy  :  -121.7293040 Eh     change       -0.1404708E-05 Eh
 * total energy  :  -121.7293060 Eh     change       -0.2000730E-05 Eh
 * total energy  :  -121.7293082 Eh     change       -0.2252596E-05 Eh
 * total energy  :  -121.7293099 Eh     change       -0.1710900E-05 Eh
 * total energy  :  -121.7293111 Eh     change       -0.1187528E-05 Eh
 * total energy  :  -121.7293182 Eh     change       -0.1666477E-05 Eh
 * total energy  :  -121.7293188 Eh     change       -0.6276606E-06 Eh
 * total energy  :  -121.7293186 Eh     change        0.1869086E-06 Eh
 * total energy  :  -121.7293190 Eh     change       -0.4311483E-06 Eh
 * total energy  :  -121.7293192 Eh     change       -0.1540954E-06 Eh
 * total energy  :  -121.7293194 Eh     change       -0.2609530E-06 Eh
 * total energy  :  -121.7293196 Eh     change       -0.1429154E-06 Eh
 * total energy  :  -121.7293197 Eh     change       -0.1229358E-06 Eh
 * total energy  :  -121.7293197 Eh     change       -0.2158373E-08 Eh
   *** GEOMETRY OPTIMIZATION CONVERGED AFTER 22 ITERATIONS ***

 final structure:
================
76
 xtb: 6.7.1 (edcfbbe)
C           -0.01859542307444       -6.65879832554023       -1.59959290705559
C            1.18333474627220       -5.98264759584848       -1.46027793524246
C            1.18960689264764       -4.63707054909961       -1.14839357623771
C           -0.01189665151928       -3.95367278119832       -0.97223251020051
C           -0.00825835106169       -2.52800413161198       -0.63528857212584
N           -1.18392727465717       -1.92755898607209       -0.48666155385639
C           -1.19164532775704       -0.63754049744215       -0.16504880055818
C           -2.51320378650804       -0.01533365732920       -0.00420227615536
C           -2.70630176624288        1.35013286741736       -0.18168383440720
C           -3.97132070270540        1.90944665605846       -0.03505912153654
C           -4.17166447531130        3.35230304350413       -0.23624838522008
C           -5.28731308662982        3.84145096964670       -0.91371470013208
C           -5.42246864520659        5.20997762695762       -1.07597731799512
N           -4.54834330364754        6.09034034668136       -0.61931804767563
C           -3.48998701718765        5.63049428534098        0.02554882935464
C           -3.25210188142013        4.28393812163306        0.24308590264474
C           -5.04423533410824        1.09012234921697        0.29927823777606
C           -4.86800452107547       -0.27872121847209        0.47537502193903
C           -6.00936357513127       -1.14027470495666        0.81699631871017
C           -6.15731626061880       -2.40001215714193        0.23856385269597
C           -7.25305070896106       -3.17015691790007        0.58926857855896
N           -8.17557456432213       -2.77925393897949        1.45207908704230
C           -8.03656689457573       -1.58645871405726        2.00460552303584
C           -6.98396354411488       -0.73098556553739        1.72538592294764
C           -3.59982629984990       -0.82307785888728        0.31635465211331
C           -0.00055870614084        0.06324930167548        0.02025481169348
C            1.18651562164832       -0.64098550560337       -0.17694725967761
C            2.51298940474918       -0.02560136301014       -0.02971382180615
C            2.70905905050532        1.34228101026214       -0.18349469595572
C            3.97632668432114        1.89558469695351       -0.03470361552513
C            4.17645692873560        3.34351579080010       -0.19654214623953
C            3.53479514232798        4.05556603426230       -1.20864717551792
C            3.75750970924811        5.41844348440062       -1.31054890435094
N            4.54881478289855        6.09273322578194       -0.49404099161476
C            5.15926013509994        5.42093267455150        0.46703383448015
C            5.01250065308298        4.05772260109976        0.66017626547602
C            5.05133570641444        1.06657699682354        0.26774190472453
C            4.87510347425943       -0.30692882943419        0.40429234996884
C            6.01996749320884       -1.18126160265438        0.69802612962655
C            6.15007578102378       -2.42645931118638        0.08489631788334
C            7.24919540266057       -3.20992928918956        0.39293934824444
N            8.19138599515443       -2.84519836880984        1.24587768983208
C            8.06973672360398       -1.66618833012813        1.83106221533744
C            7.01547350616169       -0.79977459327053        1.59579181964268
C            3.60259003855857       -0.84343586942416        0.25360644462748
N            1.17044700809762       -1.93058841737664       -0.50077035848343
C           -1.21684749870995       -4.63849248481834       -1.11636345127921
C           -1.21719173256699       -5.98413066556257       -1.42807960396825
H           -0.02120935333303       -7.71122754430823       -1.84288983145811
H            2.11674701782693       -6.50925495296786       -1.59595826949974
H            2.11595254355994       -4.09543584913503       -1.03925761408357
H           -1.88352945934551        1.98242709664867       -0.48041463413200
H           -6.02280167421908        3.16555629002989       -1.32264276453744
H           -6.27341971042154        5.62611264150091       -1.59950083085095
H           -2.79972564997668        6.38243602738792        0.38570477422426
H           -2.38008584748980        3.96411107849996        0.79329748193443
H           -6.02710594632462        1.52232341437433        0.41769496536667
H           -5.44128101426074       -2.75951287384851       -0.48429665737396
H           -7.40426881278178       -4.15135044279423        0.15811041461039
H           -8.81025759124655       -1.30472726311224        2.70716772860234
H           -6.91091355065749        0.22639200196236        2.21870743009057
H           -3.43101142561961       -1.87855360849721        0.46144151185575
H            0.00170432462456        1.09163343807222        0.33968914482596
H            1.87830198878478        1.98926141576503       -0.42214890096295
H            2.89227077688387        3.55124444970559       -1.91444753138128
H            3.27918507964293        6.00345186086632       -2.08547091892932
H            5.79675493504127        6.00881347423124        1.11466165705430
H            5.52118867830758        3.56158340948955        1.47265072626622
H            6.04205777731171        1.48925528056385        0.35005245574506
H            5.41757050875774       -2.76451138361742       -0.63173910875302
H            7.38656090101531       -4.18052313987568       -0.06594256018664
H            8.85933799434758       -1.40569873267793        2.52407469523775
H            6.95759041045219        0.14476959496592        2.11505063005463
H            3.43266785890530       -1.90155048389910        0.37612400861499
H           -2.14055602178868       -4.09790972929409       -0.98242447791966
H           -2.15321755507212       -6.51200347566076       -1.53848555695326

          :  Hamiltonian                  GFN2-xTB          :
         :: gradient norm              0.000035168767 Eh/a0 ::
         :: HOMO-LUMO gap              2.118708670427 eV    ::
         :: SCC energy              -123.932504104285 Eh    ::
         :: -> dispersion             -0.098217215431 Eh    ::
         :: repulsion energy           2.203184397868 Eh    ::

    * Orbital Energies and Occupations

         #    Occupation            Energy/Eh            Energy/eV
      -------------------------------------------------------------
         1        2.0000           -0.6832777             -18.5929
       ...           ...                  ...                  ...
       101        2.0000           -0.4232422             -11.5170
       102        2.0000           -0.4154309             -11.3045
       103        2.0000           -0.4152698             -11.3001
       104        2.0000           -0.4124522             -11.2234
       105        2.0000           -0.4113018             -11.1921
       106        2.0000           -0.4112657             -11.1911
       107        2.0000           -0.4059524             -11.0465
       108        2.0000           -0.4027556             -10.9595
       109        2.0000           -0.3748149             -10.1992
       110        2.0000           -0.3745514             -10.1921
       111        2.0000           -0.3724625             -10.1352
       112        2.0000           -0.3722713             -10.1300
       113        2.0000           -0.3694749             -10.0539 (HOMO)
       114                         -0.2916138              -7.9352 (LUMO)
       115                         -0.2819779              -7.6730
       116                         -0.2767149              -7.5298
       117                         -0.2762515              -7.5172
       118                         -0.2674366              -7.2773
       119                         -0.2620477              -7.1307
       120                         -0.2445020              -6.6532
       121                         -0.2442771              -6.6471
       122                         -0.2419176              -6.5829
       123                         -0.2418156              -6.5801
       124                         -0.2417152              -6.5774
       ...                                ...                  ...
       220                          0.6862488              18.6738
      -------------------------------------------------------------
                  HL-Gap            0.0778611 Eh            2.1187 eV

     #   Z          covCN         q      C6AA      α(0)
     1   6 C        2.920    -0.025    28.619     8.773
     2   6 C        2.918    -0.028    28.694     8.784
     3   6 C        2.924    -0.026    28.641     8.776
     4   6 C        2.984     0.001    27.991     8.679
     5   6 C        2.945     0.183    24.090     8.050
     6   7 N        1.850    -0.269    27.838     7.820
     7   6 C        2.970     0.111    25.558     8.292
     8   6 C        2.977     0.005    27.906     8.665
     9   6 C        2.928    -0.036    28.884     8.814
    10   6 C        2.974     0.009    27.812     8.651
    11   6 C        2.986     0.027    27.401     8.587
    12   6 C        2.919    -0.044    29.082     8.843
    13   6 C        2.914     0.060    26.653     8.466
    14   7 N        1.836    -0.220    26.632     7.648
    15   6 C        2.914     0.060    26.661     8.467
    16   6 C        2.919    -0.044    29.086     8.844
    17   6 C        2.930    -0.034    28.853     8.809
    18   6 C        2.973     0.011    27.773     8.644
    19   6 C        2.986     0.027    27.393     8.585
    20   6 C        2.919    -0.043    29.076     8.843
    21   6 C        2.914     0.060    26.656     8.466
    22   7 N        1.836    -0.220    26.647     7.650
    23   6 C        2.914     0.060    26.661     8.467
    24   6 C        2.919    -0.044    29.088     8.844
    25   6 C        2.932    -0.029    28.718     8.789
    26   6 C        2.912    -0.065    29.627     8.925
    27   6 C        2.969     0.110    25.562     8.293
    28   6 C        2.977     0.005    27.906     8.665
    29   6 C        2.928    -0.036    28.886     8.814
    30   6 C        2.974     0.009    27.814     8.651
    31   6 C        2.986     0.027    27.402     8.587
    32   6 C        2.919    -0.044    29.089     8.844
    33   6 C        2.914     0.060    26.658     8.467
    34   7 N        1.836    -0.220    26.635     7.648
    35   6 C        2.914     0.060    26.657     8.466
    36   6 C        2.919    -0.044    29.084     8.844
    37   6 C        2.930    -0.034    28.850     8.809
    38   6 C        2.973     0.011    27.773     8.645
    39   6 C        2.986     0.027    27.391     8.585
    40   6 C        2.919    -0.043    29.073     8.842
    41   6 C        2.914     0.060    26.653     8.466
    42   7 N        1.836    -0.220    26.646     7.650
    43   6 C        2.914     0.060    26.662     8.467
    44   6 C        2.919    -0.044    29.082     8.843
    45   6 C        2.932    -0.029    28.721     8.789
    46   7 N        1.850    -0.269    27.839     7.820
    47   6 C        2.924    -0.026    28.641     8.776
    48   6 C        2.918    -0.028    28.694     8.784
    49   1 H        0.926     0.036     2.501     2.473
    50   1 H        0.926     0.036     2.506     2.475
    51   1 H        0.926     0.052     2.297     2.370
    52   1 H        0.926     0.036     2.499     2.472
    53   1 H        0.926     0.036     2.499     2.472
    54   1 H        0.925     0.041     2.442     2.444
    55   1 H        0.925     0.040     2.448     2.447
    56   1 H        0.926     0.033     2.545     2.495
    57   1 H        0.926     0.040     2.445     2.445
    58   1 H        0.926     0.039     2.458     2.451
    59   1 H        0.925     0.040     2.446     2.446
    60   1 H        0.925     0.040     2.455     2.450
    61   1 H        0.926     0.035     2.518     2.481
    62   1 H        0.926     0.058     2.222     2.331
    63   1 H        0.926     0.032     2.554     2.499
    64   1 H        0.926     0.036     2.501     2.473
    65   1 H        0.926     0.035     2.520     2.482
    66   1 H        0.925     0.040     2.446     2.446
    67   1 H        0.925     0.040     2.445     2.445
    68   1 H        0.926     0.035     2.518     2.481
    69   1 H        0.926     0.040     2.444     2.445
    70   1 H        0.926     0.039     2.457     2.451
    71   1 H        0.925     0.040     2.445     2.445
    72   1 H        0.925     0.039     2.456     2.451
    73   1 H        0.926     0.034     2.531     2.488
    74   1 H        0.926     0.059     2.215     2.327
    75   1 H        0.926     0.052     2.296     2.370
    76   1 H        0.926     0.036     2.506     2.475

molecular dipole:
                 x           y           z       tot (Debye)
 q only:       -0.016      -0.466      -0.027
   full:       -0.011      -0.328      -0.013       0.835

 projected vibrational frequencies (cm⁻¹)
eigval :       -0.00     0.00     0.00     0.00     0.00     0.00
eigval :        6.06     7.79    17.28    22.64    22.69    34.48
eigval :       41.89    42.66    43.63    45.77    46.12    47.52
eigval :       49.74    71.02    73.00    93.60    97.00   107.50
eigval :      110.38   119.77   158.03   167.67   195.40   201.90
eigval :      212.16   220.88   223.91   228.24   233.17   261.40
eigval :      266.22   269.79   276.87   306.32   322.87   333.03
eigval :      333.80   334.57   335.38   348.48   360.28   365.36
eigval :      370.07   388.97   401.93   406.43   434.30   466.87
eigval :      485.19   504.32   525.81   547.00   557.42   582.83
eigval :      585.98   586.15   587.16   600.16   600.31   603.89
eigval :      605.06   626.63   627.35   632.87   633.17   634.63
eigval :      637.90   660.35   667.07   675.98   681.06   685.84
eigval :      706.28   707.71   707.98   708.65   739.98   743.03
eigval :      779.85   788.83   791.90   799.26   801.22   828.64
eigval :      839.39   841.42   844.85   849.48   876.75   883.15
eigval :      883.35   884.05   885.26   885.70   893.18   894.32
eigval :      901.36   901.48   909.07   915.12   915.53   915.74
eigval :      915.91   922.53   925.10   925.37   925.52   925.66
eigval :      929.91   933.52   967.25   987.36   991.02  1006.54
eigval :     1008.28  1009.13  1009.36  1028.31  1076.52  1084.59
eigval :     1098.08  1099.03  1099.63  1101.28  1103.43  1109.19
eigval :     1111.55  1116.54  1117.11  1117.70  1120.42  1122.92
eigval :     1129.57  1130.24  1166.74  1180.94  1195.51  1196.98
eigval :     1208.66  1208.90  1209.08  1209.50  1240.43  1241.50
eigval :     1245.34  1245.65  1253.18  1263.61  1263.88  1263.95
eigval :     1264.10  1269.66  1281.71  1282.21  1282.34  1282.37
eigval :     1293.00  1323.88  1324.31  1326.16  1332.89  1364.30
eigval :     1367.59  1368.98  1374.62  1375.71  1380.42  1397.28
eigval :     1426.87  1427.85  1432.78  1443.15  1450.81  1472.60
eigval :     1479.54  1480.14  1480.26  1481.24  1523.13  1533.10
eigval :     1551.15  1551.28  1551.33  1551.46  1575.13  1576.05
eigval :     1576.67  1577.09  1582.02  1582.61  1582.99  1583.54
eigval :     1586.04  1596.49  3055.94  3056.06  3056.27  3056.59
eigval :     3056.86  3056.93  3057.30  3057.71  3074.49  3079.84
eigval :     3083.65  3083.70  3084.88  3085.79  3087.50  3087.78
eigval :     3088.21  3089.18  3089.95  3090.14  3090.24  3092.24
eigval :     3092.59  3106.63  3106.96  3107.39  3107.81  3108.84

   temp. (K)  partition function   enthalpy   heat capacity  entropy
                                   cal/mol     cal/K/mol   cal/K/mol   J/K/mol
 298.15  VIB  0.327E+20            22669.030    136.508    145.025
         ROT  0.114E+09              888.752      2.981     39.855
         INT  0.374E+28            23557.782    139.488    184.880
         TR   0.148E+29             1481.254      4.968     45.120
         TOT                       25039.0364   144.4566   230.0001   962.3205

       T/K    H(0)-H(T)+PV         H(T)/Eh          T*S/Eh         G(T)/Eh
   ------------------------------------------------------------------------
    298.15    0.399022E-01    0.613231E+00    0.109280E+00    0.503951E+00
   ------------------------------------------------------------------------

         :::::::::::::::::::::::::::::::::::::::::::::::::::::
         ::                  THERMODYNAMIC                  ::
         :::::::::::::::::::::::::::::::::::::::::::::::::::::
         :: total free energy        -121.225369042889 Eh   ::
         ::.................................................::
         :: total energy             -121.729319706429 Eh   ::
         :: zero point energy           0.573328896046 Eh   ::
         :: G(RRHO) w/o ZPVE           -0.069378232506 Eh   ::
         :: G(RRHO) contrib.            0.503950663539 Eh   ::
         :::::::::::::::::::::::::::::::::::::::::::::::::::::

           -------------------------------------------------
          | TOTAL ENERGY             -121.729319706429 Eh   |
          | TOTAL ENTHALPY           -121.116088566020 Eh   |
          | TOTAL FREE ENERGY        -121.225369042889 Eh   |
          | GRADIENT NORM               0.000035161857 Eh/α |
          | HOMO-LUMO GAP               2.118708627037 eV   |
           -------------------------------------------------

 * finished run on 2025/08/22 at 16:47:34.884
