   * xtb version 6.7.1 (edcfbbe) compiled by 'albert@albert-system' on 2024-07-22

   ID    Z sym.   atoms
    1    6 C      1-5, 7-13, 15-21, 23-33, 35-41, 43-45, 47, 48
    2    7 N      6, 14, 22, 34, 42, 46
    3    1 H      49-76

          program call               : xtb data2507/gas/B4PyPPM/B4PyPPM_gas_T1_crest.xyz --gfn 2 --spinpol --tblite --uhf 2 --ohess vtight --parallel 40 --molden --ceasefiles --namespace data2507/gas/B4PyPPM/B4PyPPM_gas_T1_finalOpt
 * total energy  :  -121.6550826 Eh     change       -0.6439066E-08 Eh
 * total energy  :  -121.6551487 Eh     change       -0.6613559E-04 Eh
 * total energy  :  -121.6551761 Eh     change       -0.2739496E-04 Eh
 * total energy  :  -121.6551788 Eh     change       -0.2709781E-05 Eh
 * total energy  :  -121.6551819 Eh     change       -0.3076804E-05 Eh
 * total energy  :  -121.6551849 Eh     change       -0.2963914E-05 Eh
 * total energy  :  -121.6551885 Eh     change       -0.3671576E-05 Eh
 * total energy  :  -121.6551918 Eh     change       -0.3235990E-05 Eh
 * total energy  :  -121.6551940 Eh     change       -0.2259440E-05 Eh
 * total energy  :  -121.6551960 Eh     change       -0.1938517E-05 Eh
 * total energy  :  -121.6552074 Eh     change       -0.1558875E-07 Eh
 * total energy  :  -121.6552077 Eh     change       -0.2963776E-06 Eh
 * total energy  :  -121.6552079 Eh     change       -0.1993224E-06 Eh
 * total energy  :  -121.6552080 Eh     change       -0.1355703E-06 Eh
 * total energy  :  -121.6552082 Eh     change       -0.1672125E-06 Eh
 * total energy  :  -121.6552086 Eh     change       -0.3662156E-06 Eh
 * total energy  :  -121.6552088 Eh     change       -0.2119068E-06 Eh
 * total energy  :  -121.6552089 Eh     change       -0.1734968E-06 Eh
 * total energy  :  -121.6552090 Eh     change       -0.8784525E-07 Eh
   *** GEOMETRY OPTIMIZATION CONVERGED AFTER 27 ITERATIONS ***

 final structure:
================
76
 xtb: 6.7.1 (edcfbbe)
C            0.00806771586258       -6.80931247634248       -0.01799135159414
C            1.20672522318251       -6.11490699180946       -0.06732848131641
C            1.20719681637277       -4.73368721059247       -0.06121812523064
C            0.00442417287470       -4.03356323362801       -0.00605196967220
C            0.00251906058693       -2.57209462205746       -0.00138683363378
N           -1.13822366470147       -1.92330628779137        0.00542745370486
C           -1.19847955207901       -0.55696185793542        0.00307058705740
C           -2.50950246361336        0.03876974839190       -0.00077241552703
C           -2.72581700374861        1.42326727774040       -0.04285385099085
C           -4.00930859430241        1.94563089544324       -0.05586093049560
C           -4.21011557671736        3.40061961681722       -0.11693529804097
C           -5.20267105960863        3.96114864262702       -0.92016941044628
C           -5.34638246367142        5.33762896369792       -0.94347371729999
N           -4.58921869566363        6.15857266345948       -0.23745410046946
C           -3.64780544394377        5.63568868891113        0.52807509887761
C           -3.41579775294599        4.27461057787025        0.62472693024444
C           -5.10956730734895        1.09015365413436       -0.01591632532710
C           -4.91905401429938       -0.29046416910206        0.03213164378820
C           -6.07422111079679       -1.19817078095389        0.08080509585593
C           -6.08836660565704       -2.38952145985480       -0.64403713324991
C           -7.20082616223350       -3.20879300197950       -0.56220426491493
N           -8.26037942814982       -2.92220175461411        0.17327558126012
C           -8.25498296522829       -1.79578884261382        0.86327634056053
C           -7.19699941297970       -0.90303842675011        0.85294227642588
C           -3.63398432376229       -0.80238824584644        0.03436170647024
C           -0.00087108571969        0.15461151581520        0.00353551042044
C            1.19852470888384       -0.55388820441548        0.00160880068798
C            2.50813933865169        0.04498910834322        0.00480818403543
C            2.72142372912598        1.43010139828354        0.04370857726150
C            4.00378146506091        1.95534182655140        0.05349320093032
C            4.20250007890060        3.41079631549690        0.10996652685440
C            3.40483157113390        4.28184793276064       -0.63153222485869
C            3.63633611722880        5.64339128723947       -0.54018975132803
N            4.58034460514485        6.16916233683914        0.21994931653796
C            5.34055069646118        5.35126531143358        0.92604428500785
C            5.19747385415628        3.97466968020042        0.90790013856001
C            5.10580922704124        1.10211255286705        0.01359928124416
C            4.91832501651564       -0.27900979980801       -0.03061772446845
C            6.07565789918730       -1.18391167516255       -0.07941752316130
C            6.09503931733376       -2.37289661600494        0.64914026653454
C            7.20970526489228       -3.18920981055808        0.56702368336083
N            8.26648004889200       -2.90195553021899       -0.17221379043579
C            8.25602170941234       -1.77780297902321       -0.86588746097969
C            7.19550578596485       -0.88804085981833       -0.85553479359293
C            3.63444588101600       -0.79381244938635       -0.02954233162327
N            1.14162366915736       -1.92037669208536       -0.00507460266902
C           -1.19649834311441       -4.73727686640086        0.04336103807062
C           -1.19239216374280       -6.11849564516926        0.03756800191908
H            0.00947145974922       -7.88926455727970       -0.02297188898908
H            2.14135857222347       -6.65432182550387       -0.11138542839269
H            2.13253584662042       -4.17946167603546       -0.10147524719553
H           -1.89104606657711        2.10435397406003       -0.09699628134937
H           -5.83626339447703        3.33452934005719       -1.52895872220398
H           -6.10248956117256        5.80945028475559       -1.55738102239577
H           -3.05422608761586        6.34459646462677        1.09061298582725
H           -2.64556601670817        3.89658195538513        1.27962839429671
H           -6.10881077744583        1.49808399447618       -0.02326211440352
H           -5.25424978078978       -2.66007827233309       -1.27301540791677
H           -7.25049854007130       -4.13958557862710       -1.11218901296141
H           -9.14184366614111       -1.60312725846550        1.45281971537737
H           -7.23516974239139       -0.00384704647302        1.44849168828166
H           -3.47149244930648       -1.86771058038884        0.08981093529720
H           -0.00222207322262        1.23086354669147        0.00533807976285
H            1.88515003076079        2.10941095517259        0.09704443927400
H            2.63249159059871        3.90134316563964       -1.28249994380884
H            3.04035626850786        6.35010970803238       -1.10295312186803
H            6.09879328644733        5.82556294529165        1.53539831661095
H            5.83366985366675        3.35055838246571        1.51654552160698
H            6.10418919680085        1.51217153766771        0.01781589996674
H            5.26329009361461       -2.64383807660123        1.28109864699696
H            7.26353012309377       -4.11808308643911        1.11985467887221
H            9.14069956202347       -1.58453399491873       -1.45850963408389
H            7.22943065509484        0.00937113285901       -1.45403164086134
H            3.47424102136694       -1.85964064769475       -0.08194371525383
H           -2.12329311104969       -4.18584956996556        0.08826495633567
H           -2.12560166721200       -6.66074132115771        0.07679973723296

 projected vibrational frequencies (cm⁻¹)
eigval :       -0.00    -0.00    -0.00     0.00     0.00     0.00
eigval :        5.03     6.40    19.89    23.07    23.27    36.78
eigval :       42.62    42.89    43.61    44.47    47.97    48.69
eigval :       50.40    66.54    71.00    98.59   101.29   105.87
eigval :      107.22   115.79   160.26   167.45   195.29   202.30
eigval :      203.63   208.75   212.62   222.80   223.28   260.08
eigval :      269.51   270.82   274.37   300.08   317.27   336.71
eigval :      338.21   338.43   338.57   347.52   347.68   366.30
eigval :      370.07   384.71   404.67   412.79   419.38   471.02
eigval :      483.54   483.84   508.07   536.26   553.16   569.24
eigval :      574.92   581.01   582.48   590.19   590.30   592.82
eigval :      593.06   595.91   606.02   624.37   626.21   627.83
eigval :      629.74   630.73   641.47   655.93   656.39   658.64
eigval :      664.67   704.47   704.65   704.84   705.40   736.75
eigval :      764.95   783.21   783.57   797.48   798.34   810.24
eigval :      818.93   821.47   830.95   831.70   854.02   855.53
eigval :      859.37   863.76   864.70   873.95   883.68   884.04
eigval :      884.51   884.67   904.82   905.52   913.94   914.01
eigval :      914.18   914.28   922.78   922.80   923.15   923.25
eigval :      928.03   933.33   951.43   962.98   969.87   987.17
eigval :      996.68   998.00   999.33  1002.98  1052.57  1071.06
eigval :     1075.02  1078.76  1095.89  1096.84  1098.08  1099.80
eigval :     1103.22  1110.90  1113.19  1117.00  1117.21  1119.75
eigval :     1120.32  1130.59  1131.01  1166.39  1180.42  1199.82
eigval :     1204.22  1204.75  1205.09  1205.66  1216.93  1241.59
eigval :     1242.15  1247.57  1250.02  1261.12  1261.24  1261.76
eigval :     1262.03  1269.70  1282.29  1287.39  1287.79  1287.88
eigval :     1288.90  1298.51  1328.48  1331.03  1335.45  1338.06
eigval :     1350.00  1366.09  1368.53  1371.66  1375.14  1377.76
eigval :     1387.53  1413.62  1423.60  1424.43  1436.92  1450.95
eigval :     1455.57  1471.91  1472.58  1474.25  1476.65  1484.35
eigval :     1535.30  1535.70  1545.96  1548.74  1550.12  1550.23
eigval :     1559.19  1566.64  1573.39  1574.15  1574.38  1580.06
eigval :     1584.05  1595.21  3056.32  3056.41  3056.47  3056.72
eigval :     3057.36  3057.40  3057.42  3057.52  3077.99  3082.32
eigval :     3087.70  3087.73  3088.21  3088.35  3090.31  3090.67
eigval :     3090.78  3091.24  3091.57  3093.38  3093.48  3094.09
eigval :     3094.93  3095.79  3096.61  3097.37  3099.01  3119.23

   temp. (K)  partition function   enthalpy   heat capacity  entropy
                                   cal/mol     cal/K/mol   cal/K/mol   J/K/mol
 298.15  VIB  0.498E+20            22942.708    138.577    146.796
         ROT  0.573E+08              888.752      2.981     38.480
         INT  0.285E+28            23831.460    141.558    185.276
         TR   0.148E+29             1481.254      4.968     45.120
         TOT                       25312.7143   146.5259   230.3966   963.9795

       T/K    H(0)-H(T)+PV         H(T)/Eh          T*S/Eh         G(T)/Eh
   ------------------------------------------------------------------------
    298.15    0.403384E-01    0.609778E+00    0.109469E+00    0.500309E+00
   ------------------------------------------------------------------------

         :::::::::::::::::::::::::::::::::::::::::::::::::::::
         ::                  THERMODYNAMIC                  ::
         :::::::::::::::::::::::::::::::::::::::::::::::::::::
         :: total free energy        -121.154900248925 Eh   ::
         ::.................................................::
         :: total energy             -121.655208987615 Eh   ::
         :: zero point energy           0.569439239550 Eh   ::
         :: G(RRHO) w/o ZPVE           -0.069130500860 Eh   ::
         :: G(RRHO) contrib.            0.500308738690 Eh   ::
         :::::::::::::::::::::::::::::::::::::::::::::::::::::

           -------------------------------------------------
          | TOTAL ENERGY             -121.655208987615 Eh   |
          | TOTAL ENTHALPY           -121.045431370166 Eh   |
          | TOTAL FREE ENERGY        -121.154900248925 Eh   |
          | GRADIENT NORM               0.000223567245 Eh/α |
           -------------------------------------------------

 * finished run on 2025/08/22 at 16:55:28.046
