   * xtb version 6.7.1 (edcfbbe) compiled by 'albert@albert-system' on 2024-07-22

   ID    Z sym.   atoms
    1    6 C      1-9, 11-16, 18-30, 32-37
    2    7 N      10
    3    8 O      17
    4   16 S      31
    5    1 H      38-64

          program call               : xtb data2507/toluene/DBT-BZ-DMAC/DBT-BZ-DMAC_toluene_T1_crest.xyz --gfn 2 --uhf 2 --gbsa toluene --ohess vtight --parallel 40 --molden --ceasefiles --namespace data2507/toluene/DBT-BZ-DMAC/DBT-BZ-DMAC_toluene_T1_finalOpt
      * Solvation model:               GBSA
        Solvent                        toluene
        Solvent mass                       9.2140E+01 g/mol
          :  Hamiltonian                  GFN2-xTB          :
 * total energy  :   -96.6186722 Eh     change       -0.3637481E-08 Eh
 * total energy  :   -96.6188960 Eh     change       -0.2237943E-03 Eh
 * total energy  :   -96.6190321 Eh     change       -0.1361343E-03 Eh
 * total energy  :   -96.6190857 Eh     change       -0.5366048E-04 Eh
 * total energy  :   -96.6191640 Eh     change       -0.7828315E-04 Eh
 * total energy  :   -96.6192156 Eh     change       -0.5156870E-04 Eh
 * total energy  :   -96.6192589 Eh     change       -0.4331295E-04 Eh
 * total energy  :   -96.6192905 Eh     change       -0.3163499E-04 Eh
 * total energy  :   -96.6193152 Eh     change       -0.2462370E-04 Eh
 * total energy  :   -96.6193443 Eh     change       -0.2917669E-04 Eh
 * total energy  :   -96.6228064 Eh     change       -0.2743633E-05 Eh
 * total energy  :   -96.6228079 Eh     change       -0.1554103E-05 Eh
 * total energy  :   -96.6228087 Eh     change       -0.8094851E-06 Eh
 * total energy  :   -96.6228090 Eh     change       -0.2701550E-06 Eh
 * total energy  :   -96.6228090 Eh     change        0.3590304E-07 Eh
 * total energy  :   -96.6228091 Eh     change       -0.1629477E-06 Eh
 * total energy  :   -96.6228091 Eh     change        0.6656464E-08 Eh
 * total energy  :   -96.6228093 Eh     change       -0.1289044E-06 Eh
 * total energy  :   -96.6228093 Eh     change       -0.6788810E-07 Eh
   *** GEOMETRY OPTIMIZATION CONVERGED AFTER 67 ITERATIONS ***

 final structure:
================
64
 xtb: 6.7.1 (edcfbbe)
C            0.28689677915165        1.91813766584880        0.89726022439801
C           -0.84363913662999        0.89931698807508        0.64692809619724
C           -1.30009250367228        0.39097813888042        2.01922967563933
C           -3.33962420283924        1.45077581907030       -0.21459943110638
C           -3.98862739451823        2.79518135023400       -0.17894268084038
C           -5.36987530432554        2.69417229351018        0.35151808297564
C           -5.84228639491486        1.58124914879761        0.90635440422321
C           -5.12048562618820        0.26066057377828        1.04896889953450
C           -3.20732457786171       -0.83934579992034       -0.34673574080920
N           -3.04172368569273       -2.08492897303000        0.25272021931830
C           -1.76800818346592       -2.53437611714455        0.51485794012428
C           -1.63486669183031       -3.84735461304071        0.99870659710459
C           -0.41616679571985       -4.49095605148513        1.06181844733094
C            0.70927098253587       -3.86394914521714        0.55887013807300
C            0.59070525068305       -2.54027949481479        0.15233150225625
C            1.62247049460389       -1.81119777967112       -0.56232120643423
O            2.59894191100479       -2.25854891071636       -1.14653099272434
C            4.12265206930166        0.91616064399583       -0.44716542541827
C            5.39034577075177        1.53757664068211       -0.17906368535727
C            5.78523714976587        2.19945387028971        0.94111315627320
C            5.04045378953366        2.31591814391356        2.15765387030764
C            4.22283477225997        1.35315237938736        2.60251343083245
C            4.13605507802124        0.04865529940596        1.88070041146564
C           -0.59742287012340       -1.79814162989177        0.25746333173183
C            3.71949716471075        1.02962546730432       -1.80987192053245
C            3.38929124803385        0.29384601536299        0.58863820981004
C            2.07287097220231       -0.13025101774170        0.56654510448659
C            1.13785056879615       -0.31681565450007       -0.56182208796825
C            1.33803875067772        0.29747546363101       -1.87727819345009
C            2.51268953250393        0.77628380800128       -2.42731055119487
S           -0.06988967194369        0.08931932363787       -2.89578015553264
C           -1.10227244060939       -0.33004493900420       -1.54147669782071
C           -2.40769792795926       -0.57506436192328       -1.57302940202869
C           -3.93533860175042        0.19162400728591        0.13054497379939
C           -2.90151078610222        2.49667397632187        0.81387329882190
C           -1.89479013020988        1.80272523844579       -0.05888060769436
C           -0.37280018123113       -0.35483472635038       -0.22923672393772
H            1.01747837330386        1.56102290667489        1.61363961093465
H            0.79998838097651        2.18628891871297       -0.02303181156794
H           -0.15945150138750        2.82298193846979        1.30623192359870
H           -1.37730546774782        1.21570210674091        2.72259635331769
H           -2.25517888241764       -0.11940870077768        1.96878356598783
H           -0.56372497960520       -0.30887519198768        2.40930576450385
H           -3.80736806509422        3.52134051610387       -0.96520186608962
H           -5.99634775955769        3.57234626304660        0.28168643700500
H           -6.84972136975446        1.57740199582396        1.30240240740418
H           -5.81972276206768       -0.55049259947620        0.82402411669800
H           -3.80266103503755       -2.47942156057323        0.78664042139842
H           -2.53419171986338       -4.37501173749879        1.28207864294425
H           -0.35838462561329       -5.50158164090871        1.43621043489457
H            1.65841890514979       -4.36703226280910        0.46355932981346
H            6.03402512119759        1.64330133566724       -1.04505148440980
H            6.70118534916885        2.77439652292086        0.88328732281367
H            5.17982049091818        3.22258072395355        2.73122910879091
H            3.62459260453514        1.49102161059083        3.49093988458411
H            5.14216435972318       -0.30969712998928        1.64292013464064
H            4.47711164440568        1.44003980943968       -2.46500177711947
H            3.62877327806990       -0.70409266905313        2.48301910632515
H            1.68891169108139       -0.53841953895335        1.49281527584111
H            2.45842406191370        1.02088533150094       -3.48172586874476
H           -2.96736701844074       -0.52314106174034       -2.49559625433546
H           -4.82411249654280        0.13697126411351        2.10053327352898
H           -3.00339284622486        2.48472666824622        1.87790957130678
H           -1.44353035663957        2.37999303955774       -0.86439405251996

          :  Hamiltonian                  GFN2-xTB          :
         :: gradient norm              0.000067947372 Eh/a0 ::
         :: HOMO-LUMO gap              0.873204381126 eV    ::
         :: SCC energy               -98.192616862119 Eh    ::
         :: -> dispersion             -0.102338680635 Eh    ::
         :: -> Gsolv                  -0.039650243890 Eh    ::
         :: repulsion energy           1.569807518347 Eh    ::

    * Orbital Energies and Occupations

         #    Occupation            Energy/Eh            Energy/eV
      -------------------------------------------------------------
         1        2.0000           -0.7299759             -19.8637
       ...           ...                  ...                  ...
        79        2.0000           -0.4235397             -11.5251
        80        2.0000           -0.4214860             -11.4692
        81        2.0000           -0.4121777             -11.2159
        82        2.0000           -0.4099860             -11.1563
        83        2.0000           -0.4074857             -11.0882
        84        2.0000           -0.4037305             -10.9861
        85        2.0000           -0.3877456             -10.5511
        86        2.0000           -0.3851874             -10.4815
        87        2.0000           -0.3798011             -10.3349
        88        2.0000           -0.3745646             -10.1924
        89        1.9921           -0.3429307              -9.3316
        90        1.0079           -0.3337488              -9.0818
        91        1.0000           -0.3026298              -8.2350 (HOMO)
        92                         -0.2705403              -7.3618 (LUMO)
        93                         -0.2404121              -6.5419
        94                         -0.2375469              -6.4640
        95                         -0.2314460              -6.2980
        96                         -0.2161658              -5.8822
        97                         -0.2120986              -5.7715
        98                         -0.2000419              -5.4434
        99                         -0.1965338              -5.3480
       100                         -0.1676702              -4.5625
       101                         -0.1615360              -4.3956
       102                         -0.1294207              -3.5217
       ...                                ...                  ...
       180                          0.6935661              18.8729
      -------------------------------------------------------------
                  HL-Gap            0.0320895 Eh            0.8732 eV

     #   Z          covCN         q      C6AA      α(0)
     1   6 C        3.775    -0.113    22.685     6.786
     2   6 C        3.888     0.020    20.191     6.388
     3   6 C        3.758    -0.106    22.571     6.773
     4   6 C        3.979    -0.001    20.525     6.437
     5   6 C        3.908    -0.008    20.663     6.461
     6   6 C        2.898    -0.043    29.055     8.838
     7   6 C        2.894    -0.037    28.921     8.817
     8   6 C        3.808    -0.052    21.502     6.601
     9   6 C        2.950     0.041    27.083     8.536
    10   7 N        2.696    -0.153    24.299     7.321
    11   6 C        2.920     0.072    26.392     8.425
    12   6 C        2.929    -0.060    29.486     8.905
    13   6 C        2.919    -0.029    28.726     8.789
    14   6 C        2.917    -0.039    28.967     8.826
    15   6 C        3.012    -0.030    28.740     8.794
    16   6 C        3.181     0.225    22.914     7.814
    17   8 O        0.856    -0.458    22.881     6.413
    18   6 C        2.952     0.014    27.699     8.632
    19   6 C        2.915    -0.035    28.880     8.812
    20   6 C        2.899    -0.029    28.731     8.789
    21   6 C        2.898    -0.038    28.953     8.822
    22   6 C        2.906    -0.027    28.685     8.782
    23   6 C        3.823    -0.058    21.599     6.614
    24   6 C        3.017    -0.022    28.529     8.762
    25   6 C        2.911    -0.049    29.213     8.863
    26   6 C        2.957     0.007    27.870     8.659
    27   6 C        3.237    -0.036    27.973     8.579
    28   6 C        4.027     0.017    20.208     6.386
    29   6 C        2.950     0.019    27.574     8.613
    30   6 C        2.944    -0.038    28.941     8.823
    31  16 S        2.173    -0.105   145.435    20.297
    32   6 C        2.973     0.041    27.087     8.537
    33   6 C        2.943    -0.060    29.504     8.909
    34   6 C        2.960    -0.027    28.686     8.785
    35   6 C        3.859    -0.041    21.264     6.558
    36   6 C        3.917    -0.015    20.788     6.480
    37   6 C        3.975     0.010    20.334     6.407
    38   1 H        0.925     0.054     2.268     2.355
    39   1 H        0.925     0.037     2.496     2.470
    40   1 H        0.925     0.055     2.258     2.350
    41   1 H        0.925     0.049     2.339     2.391
    42   1 H        0.925     0.041     2.431     2.438
    43   1 H        0.925     0.038     2.478     2.462
    44   1 H        0.925     0.035     2.510     2.478
    45   1 H        0.926     0.032     2.561     2.503
    46   1 H        0.925     0.031     2.575     2.510
    47   1 H        0.924     0.046     2.372     2.409
    48   1 H        0.860     0.166     1.294     1.782
    49   1 H        0.926     0.043     2.412     2.429
    50   1 H        0.926     0.044     2.396     2.421
    51   1 H        0.926     0.036     2.503     2.474
    52   1 H        0.925     0.035     2.517     2.481
    53   1 H        0.925     0.036     2.499     2.472
    54   1 H        0.925     0.040     2.455     2.450
    55   1 H        0.926     0.037     2.493     2.469
    56   1 H        0.924     0.051     2.306     2.375
    57   1 H        0.925     0.035     2.510     2.477
    58   1 H        0.925     0.038     2.476     2.461
    59   1 H        0.925     0.046     2.369     2.407
    60   1 H        0.925     0.036     2.496     2.471
    61   1 H        0.926     0.050     2.317     2.380
    62   1 H        0.923     0.052     2.300     2.372
    63   1 H        0.927     0.046     2.371     2.408
    64   1 H        0.925     0.036     2.509     2.477

molecular dipole:
                 x           y           z       tot (Debye)
 q only:       -2.186       1.203       2.015
   full:       -2.238       0.948       2.286       8.481

 projected vibrational frequencies (cm⁻¹)
eigval :       -0.00    -0.00    -0.00    -0.00    -0.00     0.00
eigval :       28.84    39.57    55.63    71.72    72.80    88.64
eigval :      105.81   110.60   122.89   128.50   136.35   158.50
eigval :      181.41   195.72   206.40   219.84   239.17   256.99
eigval :      265.44   275.37   276.80   292.83   301.22   304.39
eigval :      312.48   324.58   329.47   335.00   338.84   352.78
eigval :      354.74   366.23   374.80   378.30   393.04   405.71
eigval :      422.49   425.75   440.07   457.22   462.64   472.55
eigval :      481.05   488.44   498.87   518.82   525.13   535.98
eigval :      537.78   557.30   573.01   577.63   590.51   605.17
eigval :      618.72   631.88   636.36   659.68   682.51   686.28
eigval :      711.55   718.90   729.43   744.46   751.77   764.25
eigval :      776.93   784.82   787.35   801.11   806.60   820.95
eigval :      831.23   840.08   841.88   845.80   856.71   871.09
eigval :      878.44   887.81   890.07   913.40   916.37   919.17
eigval :      919.97   937.88   943.21   948.56   957.61   965.90
eigval :      978.76   982.87   993.13  1010.03  1012.55  1022.98
eigval :     1032.95  1045.95  1047.40  1056.28  1085.17  1091.06
eigval :     1102.52  1107.24  1117.24  1124.26  1144.20  1147.97
eigval :     1153.44  1163.75  1171.33  1178.06  1181.39  1188.91
eigval :     1191.99  1197.25  1208.17  1213.32  1223.04  1236.59
eigval :     1242.10  1245.89  1256.17  1266.43  1275.19  1280.76
eigval :     1301.49  1314.21  1324.60  1327.73  1336.70  1347.26
eigval :     1352.76  1365.51  1367.35  1402.23  1411.14  1413.40
eigval :     1420.34  1427.86  1444.69  1447.49  1450.13  1463.99
eigval :     1465.54  1486.57  1490.97  1496.70  1505.05  1509.06
eigval :     1512.16  1537.17  1544.49  1570.35  1629.10  1635.91
eigval :     1644.05  1653.74  1691.49  2863.30  2940.41  2949.28
eigval :     2958.99  2991.17  3000.68  3019.91  3024.47  3029.91
eigval :     3037.48  3040.30  3041.49  3043.24  3046.88  3048.80
eigval :     3055.93  3057.73  3066.24  3069.87  3074.97  3075.15
eigval :     3077.57  3080.73  3090.13  3104.39  3171.76  3414.21

   temp. (K)  partition function   enthalpy   heat capacity  entropy
                                   cal/mol     cal/K/mol   cal/K/mol   J/K/mol
 298.15  VIB  0.923E+10            16932.428    118.127     98.739
         ROT  0.246E+08              888.752      2.981     36.804
         INT  0.227E+18            17821.180    121.108    135.543
         TR   0.107E+29             1481.254      4.968     44.481
         TOT                       19302.4344   126.0757   180.0247   753.2232

       T/K    H(0)-H(T)+PV         H(T)/Eh          T*S/Eh         G(T)/Eh
   ------------------------------------------------------------------------
    298.15    0.307604E-01    0.528524E+00    0.855355E-01    0.442989E+00
   ------------------------------------------------------------------------

         :::::::::::::::::::::::::::::::::::::::::::::::::::::
         ::                  THERMODYNAMIC                  ::
         :::::::::::::::::::::::::::::::::::::::::::::::::::::
         :: total free energy         -96.179820492968 Eh   ::
         ::.................................................::
         :: total energy              -96.622809345904 Eh   ::
         :: zero point energy           0.497763989259 Eh   ::
         :: G(RRHO) w/o ZPVE           -0.054775136323 Eh   ::
         :: G(RRHO) contrib.            0.442988852936 Eh   ::
         :::::::::::::::::::::::::::::::::::::::::::::::::::::

           -------------------------------------------------
          | TOTAL ENERGY              -96.622809345904 Eh   |
          | TOTAL ENTHALPY            -96.094284969521 Eh   |
          | TOTAL FREE ENERGY         -96.179820492968 Eh   |
          | GRADIENT NORM               0.000067796631 Eh/α |
          | HOMO-LUMO GAP               0.873199502714 eV   |
           -------------------------------------------------

 * finished run on 2025/07/17 at 00:43:46.069
