   * xtb version 6.7.1 (edcfbbe) compiled by 'albert@albert-system' on 2024-07-22

   ID    Z sym.   atoms
    1    6 C      1-9, 11-16, 18-30, 32-37
    2    7 N      10
    3    8 O      17
    4   16 S      31
    5    1 H      38-64

          program call               : xtb data2507/toluene/DBT-BZ-DMAC/DBT-BZ-DMAC_toluene_S0_crest.xyz --gfn 2 --gbsa toluene --ohess vtight --parallel 40 --molden --ceasefiles --namespace data2507/toluene/DBT-BZ-DMAC/DBT-BZ-DMAC_toluene_S0_finalOpt
      * Solvation model:               GBSA
        Solvent                        toluene
        Solvent mass                       9.2140E+01 g/mol
          :  Hamiltonian                  GFN2-xTB          :
 * total energy  :   -96.6797641 Eh     change       -0.2457583E-08 Eh
 * total energy  :   -96.6798919 Eh     change       -0.1277575E-03 Eh
 * total energy  :   -96.6799372 Eh     change       -0.4530691E-04 Eh
 * total energy  :   -96.6799537 Eh     change       -0.1648741E-04 Eh
 * total energy  :   -96.6799660 Eh     change       -0.1225691E-04 Eh
 * total energy  :   -96.6799711 Eh     change       -0.5186771E-05 Eh
 * total energy  :   -96.6799707 Eh     change        0.4836380E-06 Eh
 * total energy  :   -96.6799746 Eh     change       -0.3921562E-05 Eh
 * total energy  :   -96.6799770 Eh     change       -0.2466631E-05 Eh
 * total energy  :   -96.6799798 Eh     change       -0.2726111E-05 Eh
 * total energy  :   -96.6799937 Eh     change       -0.3440367E-05 Eh
 * total energy  :   -96.6799964 Eh     change       -0.2643684E-05 Eh
 * total energy  :   -96.6799984 Eh     change       -0.1997303E-05 Eh
 * total energy  :   -96.6799998 Eh     change       -0.1401020E-05 Eh
 * total energy  :   -96.6800004 Eh     change       -0.6285219E-06 Eh
 * total energy  :   -96.6800006 Eh     change       -0.2222895E-06 Eh
 * total energy  :   -96.6800005 Eh     change        0.1030638E-06 Eh
 * total energy  :   -96.6800007 Eh     change       -0.1858906E-06 Eh
 * total energy  :   -96.6800007 Eh     change       -0.2190077E-08 Eh
   *** GEOMETRY OPTIMIZATION CONVERGED AFTER 22 ITERATIONS ***

 final structure:
================
64
 xtb: 6.7.1 (edcfbbe)
C           -0.76208850892324        1.71593022247999        2.28385735020766
C           -1.36214133762492        0.73083516517635        1.26937788229879
C           -1.75835957528071       -0.52725712038668        2.04821826878232
C           -3.61031647687920        0.77600910386938       -0.17080069208486
C           -4.87071370774778        1.51022177726330        0.16125349546537
C           -6.05072075083790        0.64989256727963       -0.09522856921973
C           -5.94244501505281       -0.64150581118819       -0.39726041312156
C           -4.66061819987915       -1.42431658967774       -0.58472302795712
C           -2.39818186347850       -0.60831870136643       -1.58219354289280
N           -1.65296373088567       -1.76559787336508       -1.87721506248305
C           -0.66638789972200       -2.06700472657517       -0.94311936536682
C           -0.27917481323226       -3.41562378672622       -0.92322826241249
C            0.58155490308637       -3.92965731296708        0.01760309017020
C            1.09284941090548       -3.07961096922947        0.97628654359936
C            0.80856617956989       -1.71841341101877        0.91127001985811
C            1.50801019295354       -0.88540160075756        1.91483589249659
O            1.66569613709487       -1.22933922944576        3.07066505410136
C            4.10531828818584        1.14018144848668        0.08975891934218
C            5.31410813861129        0.91129871499131       -0.68152627199898
C            5.48304849994685       -0.07260849723237       -1.58765435199355
C            4.51792996128390       -1.10324403653171       -1.85957910470380
C            3.73650220981497       -1.63688913500187       -0.91458701321103
C            3.93824666558302       -1.25823471216325        0.51761811349913
C           -0.06678913026468       -1.15866880399403       -0.03657172928850
C            3.72595310270246        2.54365319313286        0.16246058237122
C            3.37481121655530        0.12900925442084        0.61461642329149
C            2.07344737681413        0.39474626431008        1.35778303461312
C            1.07580154402499        0.98463667506942        0.40749531121513
C            1.33897905003668        2.14515866311614       -0.21241254754169
C            2.48253496466704        3.00056530048174       -0.02443668949552
S            0.10928987681048        2.60810890067026       -1.39324942131654
C           -0.70499469302144        1.06430688145298       -1.14511309657925
C           -1.68579310825565        0.63952512179560       -1.91997206373816
C           -3.51021382458940       -0.49669557809153       -0.84055724542291
C           -3.97335940163088        1.04084607308818        1.27149388374353
C           -2.62465098895121        1.44954399955089        0.73102601311461
C           -0.27277196734650        0.35595245442135        0.11037975381287
H            0.03885600471979        1.25721501202438        2.85687663559575
H           -0.38389813743125        2.61332583923612        1.80072512739890
H           -1.54210544740372        2.01448039485318        2.98214599401240
H           -2.40464990924965       -0.25362153657246        2.87784490413291
H           -2.27129181539770       -1.24730606639267        1.41628024176208
H           -0.88764235305400       -1.00984557399345        2.48077517890919
H           -4.97021387239133        2.57238107270906       -0.03896424566055
H           -7.02739958346547        1.10713393980549       -0.01894017007919
H           -6.84164970414123       -1.22667789420835       -0.54036534578846
H           -4.78479971906553       -2.12164153890681       -1.41788825584438
H           -2.16586982770583       -2.57777033794253       -2.19671810732627
H           -0.71898342303867       -4.07459563772486       -1.65928045411409
H            0.82775881821706       -4.98020068890120        0.02076441376026
H            1.72900272938767       -3.44513625152251        1.76864168763171
H            6.05331294058905        1.70127047205973       -0.63447569352938
H            6.35453355958599       -0.04079993651988       -2.22943678354652
H            4.44027426694080       -1.43922450567829       -2.88496043900833
H            2.95254228324896       -2.33982606475198       -1.15492236168045
H            3.46462053136837       -1.95522037958867        1.20183614763741
H            4.54029467618143        3.25183945665832        0.23771803369857
H            5.01062641199922       -1.21853655510249        0.73631498971492
H            2.29939854752916        1.09287014429785        2.17788841195252
H            2.29604758275821        4.06302884045435       -0.10403923107585
H           -2.02452565368151        1.19415536890207       -2.78183280430027
H           -4.48736425562197       -2.03222369909172        0.31401632025246
H           -4.24268565640838        0.37820107848827        2.06470287449613
H           -2.45394751920978        2.51240419327593        0.56633008514767

          :  Hamiltonian                  GFN2-xTB          :
         :: gradient norm              0.000033983383 Eh/a0 ::
         :: HOMO-LUMO gap              1.968749208928 eV    ::
         :: SCC energy               -98.264575468762 Eh    ::
         :: -> dispersion             -0.104953403194 Eh    ::
         :: -> Gsolv                  -0.033857591166 Eh    ::
         :: repulsion energy           1.584574770147 Eh    ::

    * Orbital Energies and Occupations

         #    Occupation            Energy/Eh            Energy/eV
      -------------------------------------------------------------
         1        2.0000           -0.7214837             -19.6326
       ...           ...                  ...                  ...
        78        2.0000           -0.4252498             -11.5716
        79        2.0000           -0.4241065             -11.5405
        80        2.0000           -0.4186856             -11.3930
        81        2.0000           -0.4123905             -11.2217
        82        2.0000           -0.4103450             -11.1661
        83        2.0000           -0.4080995             -11.1050
        84        2.0000           -0.3984429             -10.8422
        85        2.0000           -0.3859157             -10.5013
        86        2.0000           -0.3845578             -10.4644
        87        2.0000           -0.3767794             -10.2527
        88        2.0000           -0.3722912             -10.1306
        89        2.0000           -0.3571690              -9.7191
        90        2.0000           -0.3541496              -9.6369 (HOMO)
        91                         -0.2817994              -7.6682 (LUMO)
        92                         -0.2633636              -7.1665
        93                         -0.2451734              -6.6715
        94                         -0.2364740              -6.4348
        95                         -0.2296007              -6.2478
        96                         -0.2191680              -5.9639
        97                         -0.2157231              -5.8701
        98                         -0.2117459              -5.7619
        99                         -0.2070611              -5.6344
       100                         -0.1968294              -5.3560
       101                         -0.1663752              -4.5273
       ...                                ...                  ...
       180                          0.6843190              18.6213
      -------------------------------------------------------------
                  HL-Gap            0.0723502 Eh            1.9687 eV

     #   Z          covCN         q      C6AA      α(0)
     1   6 C        3.766    -0.103    22.507     6.762
     2   6 C        3.881     0.019    20.213     6.392
     3   6 C        3.759    -0.100    22.463     6.757
     4   6 C        3.970     0.000    20.508     6.434
     5   6 C        3.909    -0.010    20.700     6.467
     6   6 C        2.898    -0.043    29.063     8.839
     7   6 C        2.894    -0.039    28.957     8.823
     8   6 C        3.809    -0.050    21.466     6.595
     9   6 C        2.956     0.041    27.068     8.534
    10   7 N        2.700    -0.188    25.076     7.437
    11   6 C        2.927     0.074    26.353     8.419
    12   6 C        2.935    -0.056    29.386     8.890
    13   6 C        2.914    -0.030    28.747     8.792
    14   6 C        2.931    -0.034    28.857     8.810
    15   6 C        2.984    -0.018    28.456     8.750
    16   6 C        2.839     0.248    22.841     7.832
    17   8 O        0.857    -0.417    22.028     6.293
    18   6 C        2.962     0.001    28.015     8.682
    19   6 C        2.910    -0.037    28.922     8.819
    20   6 C        2.900    -0.033    28.813     8.801
    21   6 C        2.900    -0.040    28.988     8.828
    22   6 C        2.920    -0.029    28.719     8.788
    23   6 C        3.821    -0.056    21.567     6.609
    24   6 C        2.963    -0.010    28.261     8.720
    25   6 C        2.910    -0.034    28.855     8.808
    26   6 C        2.983     0.008    27.845     8.656
    27   6 C        3.867    -0.032    21.092     6.531
    28   6 C        3.115    -0.016    28.254     8.707
    29   6 C        2.964     0.037    27.177     8.551
    30   6 C        2.928    -0.044    29.082     8.844
    31  16 S        2.204    -0.154   147.558    20.445
    32   6 C        2.978     0.042    27.045     8.530
    33   6 C        2.965    -0.060    29.494     8.908
    34   6 C        2.961    -0.020    28.511     8.758
    35   6 C        3.860    -0.041    21.260     6.557
    36   6 C        3.908    -0.016    20.807     6.484
    37   6 C        3.950     0.014    20.272     6.398
    38   1 H        0.925     0.035     2.513     2.479
    39   1 H        0.925     0.038     2.479     2.462
    40   1 H        0.925     0.047     2.351     2.398
    41   1 H        0.925     0.046     2.376     2.410
    42   1 H        0.925     0.033     2.542     2.493
    43   1 H        0.925     0.036     2.505     2.475
    44   1 H        0.925     0.033     2.541     2.493
    45   1 H        0.926     0.032     2.556     2.500
    46   1 H        0.925     0.031     2.573     2.508
    47   1 H        0.924     0.044     2.398     2.422
    48   1 H        0.860     0.161     1.331     1.808
    49   1 H        0.925     0.040     2.453     2.449
    50   1 H        0.926     0.044     2.390     2.417
    51   1 H        0.926     0.036     2.502     2.473
    52   1 H        0.925     0.041     2.441     2.443
    53   1 H        0.925     0.038     2.476     2.460
    54   1 H        0.925     0.039     2.458     2.452
    55   1 H        0.926     0.029     2.596     2.520
    56   1 H        0.925     0.037     2.490     2.468
    57   1 H        0.925     0.050     2.322     2.383
    58   1 H        0.924     0.056     2.250     2.346
    59   1 H        0.923     0.058     2.222     2.331
    60   1 H        0.925     0.047     2.355     2.400
    61   1 H        0.926     0.048     2.346     2.395
    62   1 H        0.923     0.051     2.307     2.375
    63   1 H        0.927     0.042     2.417     2.431
    64   1 H        0.925     0.035     2.522     2.483

molecular dipole:
                 x           y           z       tot (Debye)
 q only:       -0.702      -0.268      -1.010
   full:       -0.882      -0.691      -0.904       3.659

 projected vibrational frequencies (cm⁻¹)
eigval :       -0.00    -0.00     0.00     0.00     0.00     0.00
eigval :       24.83    35.04    48.34    68.72    87.65    88.79
eigval :       99.66   120.08   122.91   137.57   154.15   169.94
eigval :      184.40   191.25   212.06   230.79   236.66   250.16
eigval :      282.89   285.37   292.92   297.74   303.24   314.47
eigval :      320.61   335.53   342.94   346.02   350.24   365.68
eigval :      373.25   393.57   400.18   402.52   413.24   419.10
eigval :      423.22   443.31   457.88   471.64   479.69   489.99
eigval :      493.32   502.85   505.74   525.40   531.56   534.25
eigval :      553.23   559.82   572.91   578.41   602.20   609.30
eigval :      627.63   642.02   654.36   686.86   689.77   712.30
eigval :      722.11   731.04   740.90   745.02   754.64   766.90
eigval :      782.74   796.39   801.14   804.27   820.21   832.44
eigval :      840.12   856.73   862.04   866.53   881.55   891.50
eigval :      893.28   902.70   913.06   913.56   917.97   919.06
eigval :      933.71   940.40   955.74   956.78   970.65   978.63
eigval :      992.06  1001.24  1009.21  1017.06  1017.65  1022.06
eigval :     1048.74  1052.98  1067.01  1084.17  1096.12  1108.68
eigval :     1118.03  1128.35  1139.16  1143.56  1152.74  1154.32
eigval :     1165.30  1168.14  1181.02  1183.22  1188.78  1191.96
eigval :     1193.65  1200.38  1208.66  1212.47  1216.69  1227.66
eigval :     1238.02  1239.55  1241.98  1244.73  1254.53  1263.99
eigval :     1276.23  1280.29  1298.58  1320.17  1321.80  1322.97
eigval :     1341.10  1348.46  1360.92  1369.32  1399.29  1402.52
eigval :     1422.00  1422.84  1443.42  1447.58  1457.32  1492.55
eigval :     1505.13  1508.97  1520.20  1527.59  1555.09  1564.38
eigval :     1576.03  1608.06  1630.40  1646.08  1653.70  1671.67
eigval :     1688.85  1696.37  1708.35  2856.38  2876.90  2928.39
eigval :     2957.80  2959.78  2992.09  3020.79  3038.23  3039.48
eigval :     3039.58  3043.73  3048.63  3050.28  3052.04  3053.60
eigval :     3054.78  3058.38  3066.32  3066.48  3066.61  3073.15
eigval :     3076.73  3078.66  3081.72  3097.21  3178.12  3382.48

   temp. (K)  partition function   enthalpy   heat capacity  entropy
                                   cal/mol     cal/K/mol   cal/K/mol   J/K/mol
 298.15  VIB  0.628E+10            16535.225    116.051     96.028
         ROT  0.214E+08              888.752      2.981     36.527
         INT  0.135E+18            17423.978    119.032    132.555
         TR   0.107E+29             1481.254      4.968     44.481
         TOT                       18905.2318   123.9999   177.0363   740.7199

       T/K    H(0)-H(T)+PV         H(T)/Eh          T*S/Eh         G(T)/Eh
   ------------------------------------------------------------------------
    298.15    0.301274E-01    0.531193E+00    0.841157E-01    0.447077E+00
   ------------------------------------------------------------------------

         :::::::::::::::::::::::::::::::::::::::::::::::::::::
         ::                  THERMODYNAMIC                  ::
         :::::::::::::::::::::::::::::::::::::::::::::::::::::
         :: total free energy         -96.232923280709 Eh   ::
         ::.................................................::
         :: total energy              -96.680000699399 Eh   ::
         :: zero point energy           0.501065670783 Eh   ::
         :: G(RRHO) w/o ZPVE           -0.053988252093 Eh   ::
         :: G(RRHO) contrib.            0.447077418690 Eh   ::
         :::::::::::::::::::::::::::::::::::::::::::::::::::::

           -------------------------------------------------
          | TOTAL ENERGY              -96.680000699399 Eh   |
          | TOTAL ENTHALPY            -96.148807624125 Eh   |
          | TOTAL FREE ENERGY         -96.232923280709 Eh   |
          | GRADIENT NORM               0.000033960858 Eh/α |
          | HOMO-LUMO GAP               1.968749314981 eV   |
           -------------------------------------------------

 * finished run on 2025/07/17 at 00:32:04.579
