   * xtb version 6.7.1 (edcfbbe) compiled by 'albert@albert-system' on 2024-07-22

   ID    Z sym.   atoms
    1    6 C      1-9, 11-16, 18-30, 32-37
    2    7 N      10
    3    8 O      17
    4   16 S      31
    5    1 H      38-64

          program call               : xtb data2507/toluene/DBT-BZ-DMAC/DBT-BZ-DMAC_toluene_S0_finalOpt.xtbopt.xyz --gfn 2 --uhf 2 --gbsa toluene --ohess vtight --parallel 40 --molden --ceasefiles --namespace data2507/toluene/DBT-BZ-DMAC/DBT-BZ-DMAC_toluene_T1_preOpt
      * Solvation model:               GBSA
        Solvent                        toluene
        Solvent mass                       9.2140E+01 g/mol
          :  Hamiltonian                  GFN2-xTB          :
 * total energy  :   -96.5861170 Eh     change        0.2719216E-07 Eh
 * total energy  :   -96.5915828 Eh     change       -0.5465821E-02 Eh
 * total energy  :   -96.5938154 Eh     change       -0.2232620E-02 Eh
 * total energy  :   -96.5944685 Eh     change       -0.6531060E-03 Eh
 * total energy  :   -96.5951680 Eh     change       -0.6995113E-03 Eh
 * total energy  :   -96.5955661 Eh     change       -0.3980348E-03 Eh
 * total energy  :   -96.5958514 Eh     change       -0.2853936E-03 Eh
 * total energy  :   -96.5961193 Eh     change       -0.2678219E-03 Eh
 * total energy  :   -96.5963921 Eh     change       -0.2728346E-03 Eh
 * total energy  :   -96.5966560 Eh     change       -0.2639185E-03 Eh
 * total energy  :   -96.5998254 Eh     change       -0.2661333E-05 Eh
 * total energy  :   -96.5998271 Eh     change       -0.1737136E-05 Eh
 * total energy  :   -96.5998285 Eh     change       -0.1355173E-05 Eh
 * total energy  :   -96.5998299 Eh     change       -0.1389833E-05 Eh
 * total energy  :   -96.5998313 Eh     change       -0.1442845E-05 Eh
 * total energy  :   -96.5998325 Eh     change       -0.1161551E-05 Eh
 * total energy  :   -96.5998332 Eh     change       -0.7441785E-06 Eh
 * total energy  :   -96.5998337 Eh     change       -0.4962837E-06 Eh
 * total energy  :   -96.5998337 Eh     change       -0.6618635E-08 Eh
   *** GEOMETRY OPTIMIZATION CONVERGED AFTER 68 ITERATIONS ***

 final structure:
================
64
 xtb: 6.7.1 (edcfbbe)
C           -0.72209848724698        1.58742406155041        2.22750065675349
C           -1.41239686504100        0.66829057041769        1.20922320242733
C           -1.76908321158584       -0.63265592093987        1.93286125847745
C           -3.77982711384662        0.80511446006636       -0.01526744887321
C           -4.98335206781341        1.56221702633399        0.45065924146889
C           -6.20496769689049        0.73685590899895        0.29336495019058
C           -6.16092236196211       -0.54823183568631       -0.04920958066039
C           -4.92699055106551       -1.35754440452277       -0.38461281841610
C           -2.72157844792675       -0.57764615332079       -1.53806012760141
N           -2.02509801525267       -1.72877339815998       -1.93491658070615
C           -0.88896254035010       -2.02789091896566       -1.18636581349861
C           -0.44070882638633       -3.35000962497587       -1.32506514771683
C            0.56175948487615       -3.88512338217868       -0.54869031521799
C            1.13693706849444       -3.09250638395064        0.42259624023534
C            0.77599055416878       -1.75258036697769        0.50837462340897
C            1.45782414158370       -0.95667930924175        1.53997711445090
O            1.61851475241836       -1.34689974818074        2.68691953016402
C            4.15325329265169        1.23837851962758       -0.01454177544826
C            5.54624557475825        1.03729693939867       -0.38414263756328
C            6.08605754654228       -0.06821971536826       -0.93494922340641
C            5.40175639513644       -1.32414144180651       -1.10739085534333
C            4.49088518599446       -1.76730920183289       -0.23838894030216
C            4.20345484703975       -0.98987072525064        1.01277584613814
C           -0.21157574176678       -1.15841276062459       -0.29665341504844
C            3.67560944892545        2.52082780659253       -0.34168321590676
C            3.41773287811289        0.21349022675165        0.58346426618673
C            1.97784126483251        0.37012421466466        1.03591521188072
C            0.96913927706883        0.93905277826698        0.10626992870705
C            1.22992068111489        2.10882347551839       -0.62149873122935
C            2.36629465042013        2.89561011942374       -0.66497719965095
S           -0.15799920764708        2.59396140249483       -1.58653965515764
C           -0.96729633779288        1.07753287482975       -1.24275453350330
C           -2.02633857977862        0.66704287620033       -1.91849944360156
C           -3.77492644509646       -0.45613135732404       -0.71406678109299
C           -3.99807577365978        1.04827769218142        1.46164898344200
C           -2.69588210618509        1.43321381228310        0.80325538554713
C           -0.41166176151253        0.35218095449549       -0.04919403000267
H            0.05187739394684        1.05714802278195        2.77493306335249
H           -0.28950768384854        2.46404354402654        1.75037935978576
H           -1.46153579295202        1.92712515570769        2.95056952255566
H           -2.33388491894184       -0.40646345144623        2.83334411331690
H           -2.35182514375330       -1.29735857620602        1.30160002917309
H           -0.87621933332063       -1.16039763387129        2.25170308383914
H           -5.07263922506571        2.63027777258731        0.27958687542785
H           -7.15700654194033        1.21429816758533        0.47883487619788
H           -7.08509428809840       -1.10772644393635       -0.11458280810283
H           -5.15029383390884       -2.01698657877034       -1.22790150347139
H           -2.57300938441766       -2.54363903866556       -2.17985206996624
H           -0.94466921924433       -3.97581149291802       -2.04849928529345
H            0.86115705618382       -4.91419506581761       -0.67416012680744
H            1.87554242951345       -3.48109574511584        1.10693345571434
H            6.14975761897602        1.93712839384617       -0.37823357591219
H            7.08900125177988       -0.00614901080180       -1.33869456685251
H            5.67425731115584       -1.91801642326117       -1.96989875200141
H            3.94347076749724       -2.68237798631308       -0.40726708281978
H            3.68382364366111       -1.59978931373928        1.74515133053121
H            4.42941551676019        3.26037977265677       -0.57557268488375
H            5.15534474075365       -0.65843497613092        1.44573867477868
H            2.06277656922911        1.05953355966549        1.89485694384761
H            2.25046363805270        3.86106664618878       -1.14020068797581
H           -2.42978022467309        1.22699916267925       -2.74859622051673
H           -4.69241634934542       -2.00617833095410        0.47070813604020
H           -4.20745935098164        0.37432597064402        2.26347479701995
H           -2.51083683247728        2.49497009244781        0.64595656401742

          :  Hamiltonian                  GFN2-xTB          :
         :: gradient norm              0.000062877310 Eh/a0 ::
         :: HOMO-LUMO gap              0.191586408791 eV    ::
         :: SCC energy               -98.164382431898 Eh    ::
         :: -> dispersion             -0.102696862251 Eh    ::
         :: -> Gsolv                  -0.034711951714 Eh    ::
         :: repulsion energy           1.564548720357 Eh    ::

    * Orbital Energies and Occupations

         #    Occupation            Energy/Eh            Energy/eV
      -------------------------------------------------------------
         1        2.0000           -0.7285557             -19.8250
       ...           ...                  ...                  ...
        79        2.0000           -0.4243689             -11.5477
        80        2.0000           -0.4214062             -11.4670
        81        2.0000           -0.4118850             -11.2080
        82        2.0000           -0.4095989             -11.1458
        83        2.0000           -0.4087572             -11.1228
        84        2.0000           -0.3950992             -10.7512
        85        2.0000           -0.3865251             -10.5179
        86        2.0000           -0.3820445             -10.3960
        87        2.0000           -0.3757481             -10.2246
        88        2.0000           -0.3677970             -10.0083
        89        1.9781           -0.3542501              -9.6396
        90        1.0219           -0.3470272              -9.4431
        91        0.9760           -0.2837612              -7.7215 (HOMO)
        92        0.0240           -0.2767206              -7.5299 (LUMO)
        93                         -0.2442498              -6.6464
        94                         -0.2387299              -6.4962
        95                         -0.2294775              -6.2444
        96                         -0.2221638              -6.0454
        97                         -0.2129685              -5.7952
        98                         -0.2114652              -5.7543
        99                         -0.2041308              -5.5547
       100                         -0.1968714              -5.3571
       101                         -0.1578525              -4.2954
       102                         -0.1319313              -3.5900
       ...                                ...                  ...
       180                          0.6786791              18.4678
      -------------------------------------------------------------
                  HL-Gap            0.0070406 Eh            0.1916 eV

     #   Z          covCN         q      C6AA      α(0)
     1   6 C        3.765    -0.104    22.532     6.766
     2   6 C        3.879     0.018    20.217     6.393
     3   6 C        3.759    -0.102    22.498     6.762
     4   6 C        3.973     0.000    20.504     6.434
     5   6 C        3.909    -0.010    20.692     6.466
     6   6 C        2.898    -0.043    29.058     8.838
     7   6 C        2.894    -0.038    28.938     8.820
     8   6 C        3.809    -0.051    21.481     6.597
     9   6 C        2.954     0.043    27.044     8.530
    10   7 N        2.701    -0.180    24.905     7.412
    11   6 C        2.924     0.073    26.378     8.423
    12   6 C        2.935    -0.058    29.437     8.898
    13   6 C        2.915    -0.031    28.766     8.795
    14   6 C        2.929    -0.035    28.870     8.812
    15   6 C        2.987    -0.020    28.501     8.757
    16   6 C        2.843     0.240    22.987     7.857
    17   8 O        0.857    -0.435    22.392     6.344
    18   6 C        2.955     0.007    27.860     8.657
    19   6 C        2.916    -0.039    28.976     8.827
    20   6 C        2.899    -0.036    28.905     8.815
    21   6 C        2.899    -0.039    28.971     8.825
    22   6 C        2.911    -0.032    28.806     8.801
    23   6 C        3.818    -0.054    21.531     6.604
    24   6 C        2.968    -0.014    28.349     8.734
    25   6 C        2.913    -0.055    29.357     8.885
    26   6 C        2.966    -0.010    28.266     8.721
    27   6 C        3.862    -0.032    21.098     6.532
    28   6 C        3.102    -0.019    28.338     8.723
    29   6 C        2.950     0.031    27.299     8.570
    30   6 C        2.951    -0.056    29.392     8.892
    31  16 S        2.229    -0.101   145.274    20.286
    32   6 C        2.976     0.042    27.064     8.534
    33   6 C        2.972    -0.057    29.400     8.894
    34   6 C        2.961    -0.020    28.498     8.756
    35   6 C        3.860    -0.039    21.225     6.552
    36   6 C        3.909    -0.017    20.815     6.485
    37   6 C        3.945     0.015    20.254     6.395
    38   1 H        0.925     0.038     2.478     2.462
    39   1 H        0.925     0.038     2.479     2.462
    40   1 H        0.925     0.049     2.333     2.388
    41   1 H        0.925     0.047     2.363     2.404
    42   1 H        0.925     0.035     2.518     2.482
    43   1 H        0.925     0.037     2.485     2.465
    44   1 H        0.925     0.036     2.510     2.477
    45   1 H        0.926     0.033     2.542     2.493
    46   1 H        0.925     0.032     2.558     2.501
    47   1 H        0.924     0.046     2.369     2.407
    48   1 H        0.860     0.163     1.318     1.799
    49   1 H        0.926     0.041     2.442     2.444
    50   1 H        0.926     0.043     2.403     2.424
    51   1 H        0.926     0.035     2.513     2.479
    52   1 H        0.925     0.036     2.497     2.471
    53   1 H        0.925     0.032     2.551     2.498
    54   1 H        0.925     0.034     2.528     2.486
    55   1 H        0.926     0.029     2.603     2.523
    56   1 H        0.925     0.039     2.459     2.452
    57   1 H        0.925     0.036     2.507     2.476
    58   1 H        0.924     0.051     2.309     2.376
    59   1 H        0.923     0.101     1.779     2.086
    60   1 H        0.925     0.037     2.483     2.464
    61   1 H        0.926     0.054     2.267     2.355
    62   1 H        0.923     0.053     2.280     2.362
    63   1 H        0.927     0.044     2.393     2.419
    64   1 H        0.925     0.036     2.504     2.475

molecular dipole:
                 x           y           z       tot (Debye)
 q only:       -1.531      -0.067      -0.911
   full:       -1.588      -0.486      -0.813       4.699

 projected vibrational frequencies (cm⁻¹)
eigval :       -0.00    -0.00    -0.00    -0.00     0.00     0.00
eigval :       21.82    24.09    45.79    61.56    69.00    86.14
eigval :       89.66   109.89   122.37   126.44   154.02   165.17
eigval :      174.59   196.91   212.07   220.30   232.85   241.22
eigval :      269.19   271.11   285.14   291.33   301.70   307.45
eigval :      318.07   322.71   333.53   342.27   344.01   348.51
eigval :      365.62   370.74   372.44   391.62   394.21   408.68
eigval :      413.38   418.90   440.62   456.80   471.39   481.94
eigval :      484.03   494.36   495.58   506.49   521.41   525.72
eigval :      549.13   555.21   565.12   571.98   597.81   602.95
eigval :      611.32   636.84   647.17   672.54   684.71   693.35
eigval :      712.88   718.09   729.61   737.99   741.59   755.69
eigval :      772.77   778.52   794.35   801.70   803.72   813.94
eigval :      818.13   830.41   849.24   854.89   868.55   872.62
eigval :      881.88   888.15   904.59   912.35   912.59   915.00
eigval :      920.33   939.56   950.97   957.16   969.02   977.56
eigval :      987.79   997.43  1002.73  1015.06  1015.23  1024.04
eigval :     1048.64  1052.56  1063.80  1075.35  1094.36  1095.13
eigval :     1102.45  1115.77  1125.65  1127.56  1139.46  1142.39
eigval :     1146.84  1159.89  1166.27  1170.53  1180.33  1184.59
eigval :     1185.08  1190.19  1199.61  1209.52  1212.58  1226.40
eigval :     1228.81  1239.34  1243.49  1254.79  1264.51  1271.09
eigval :     1278.63  1279.95  1298.01  1318.27  1318.78  1322.10
eigval :     1337.88  1341.74  1348.16  1359.61  1393.34  1400.42
eigval :     1402.42  1420.27  1426.16  1427.22  1438.00  1441.45
eigval :     1457.62  1470.11  1488.73  1501.27  1510.80  1516.08
eigval :     1523.16  1544.61  1568.46  1582.90  1631.58  1654.45
eigval :     1657.70  1688.13  1692.18  2799.56  2876.69  2900.56
eigval :     2956.50  2959.67  2993.84  3020.54  3031.41  3033.25
eigval :     3037.03  3045.29  3048.93  3049.66  3052.67  3052.78
eigval :     3053.84  3057.73  3065.42  3068.17  3068.29  3071.06
eigval :     3079.53  3083.68  3086.66  3097.98  3177.88  3386.09

   temp. (K)  partition function   enthalpy   heat capacity  entropy
                                   cal/mol     cal/K/mol   cal/K/mol   J/K/mol
 298.15  VIB  0.283E+11            16978.048    117.439     99.350
         ROT  0.228E+08              888.752      2.981     36.647
         INT  0.645E+18            17866.800    120.420    135.997
         TR   0.107E+29             1481.254      4.968     44.481
         TOT                       19348.0540   125.3878   180.4783   755.1210

       T/K    H(0)-H(T)+PV         H(T)/Eh          T*S/Eh         G(T)/Eh
   ------------------------------------------------------------------------
    298.15    0.308331E-01    0.527540E+00    0.857510E-01    0.441789E+00
   ------------------------------------------------------------------------

         :::::::::::::::::::::::::::::::::::::::::::::::::::::
         ::                  THERMODYNAMIC                  ::
         :::::::::::::::::::::::::::::::::::::::::::::::::::::
         :: total free energy         -96.158044975678 Eh   ::
         ::.................................................::
         :: total energy              -96.599833707140 Eh   ::
         :: zero point energy           0.496706690489 Eh   ::
         :: G(RRHO) w/o ZPVE           -0.054917959027 Eh   ::
         :: G(RRHO) contrib.            0.441788731462 Eh   ::
         :::::::::::::::::::::::::::::::::::::::::::::::::::::

           -------------------------------------------------
          | TOTAL ENERGY              -96.599833707140 Eh   |
          | TOTAL ENTHALPY            -96.072293930004 Eh   |
          | TOTAL FREE ENERGY         -96.158044975678 Eh   |
          | GRADIENT NORM               0.000063043990 Eh/α |
          | HOMO-LUMO GAP               0.191584331779 eV   |
           -------------------------------------------------

 * finished run on 2025/07/17 at 00:32:11.677
