   * xtb version 6.7.1 (edcfbbe) compiled by 'albert@albert-system' on 2024-07-22

   ID    Z sym.   atoms
    1    6 C      1-9, 11-16, 18-30, 32-37
    2    7 N      10
    3    8 O      17
    4   16 S      31
    5    1 H      38-64

          program call               : xtb data2507/toluene/DBT-BZ-DMAC/DBT-BZ-DMAC.xyz --gfn 2 --gbsa toluene --ohess vtight --parallel 40 --molden --ceasefiles --namespace data2507/toluene/DBT-BZ-DMAC/DBT-BZ-DMAC_toluene_S0_preOpt
      * Solvation model:               GBSA
        Solvent                        toluene
        Solvent mass                       9.2140E+01 g/mol
          :  Hamiltonian                  GFN2-xTB          :
 * total energy  :   -75.9157223 Eh     change       -0.1221882E-07 Eh
 * total energy  :   -84.8001036 Eh     change       -0.8884381E+01 Eh
 * total energy  :   -88.8980140 Eh     change       -0.4097910E+01 Eh
 * total energy  :   -90.5597103 Eh     change       -0.1661696E+01 Eh
 * total energy  :   -91.8502091 Eh     change       -0.1290499E+01 Eh
 * total energy  :   -92.7407200 Eh     change       -0.8905108E+00 Eh
 * total energy  :   -93.3864892 Eh     change       -0.6457693E+00 Eh
 * total energy  :   -93.8753253 Eh     change       -0.4888361E+00 Eh
 * total energy  :   -94.2609258 Eh     change       -0.3856005E+00 Eh
 * total energy  :   -94.5760518 Eh     change       -0.3151260E+00 Eh
 * total energy  :   -96.6755526 Eh     change       -0.3734056E-06 Eh
 * total energy  :   -96.6755529 Eh     change       -0.2900261E-06 Eh
 * total energy  :   -96.6755530 Eh     change       -0.1708672E-06 Eh
 * total energy  :   -96.6755531 Eh     change       -0.1053247E-06 Eh
 * total energy  :   -96.6755533 Eh     change       -0.1220273E-06 Eh
 * total energy  :   -96.6755534 Eh     change       -0.1254082E-06 Eh
 * total energy  :   -96.6755535 Eh     change       -0.1182129E-06 Eh
 * total energy  :   -96.6755536 Eh     change       -0.1255253E-06 Eh
 * total energy  :   -96.6755537 Eh     change       -0.9730125E-07 Eh
   *** GEOMETRY OPTIMIZATION CONVERGED AFTER 137 ITERATIONS ***

 final structure:
================
64
 xtb: 6.7.1 (edcfbbe)
C           -0.05885436695976       -1.97100875259544        0.74292871673835
C           -1.02944615597506       -0.87703706640154        0.24526642181383
C           -1.36578706585254       -1.20904806777387       -1.21248650714734
C           -3.59929006275350       -0.53589866380457        0.96284383168655
C           -4.46229323349951       -1.55546308858510        1.62645610383009
C           -5.78726854808814       -1.61952016449426        0.96241226757082
C           -6.04369333677060       -0.99606323138302       -0.18473532570714
C           -5.10315058556260       -0.10848282544724       -0.96899132817306
C           -3.08896945742690        1.37185553774486       -0.19587536081376
N           -2.65577640816414        2.03273040110879       -1.34047055932865
C           -1.32187051087746        2.04917580174697       -1.69261727666831
C           -1.05694443182110        2.77849496685582       -2.86495351797724
C            0.21669288104934        3.02378703036204       -3.31453522944137
C            1.27630225732839        2.55821702866550       -2.56232311063473
C            1.04301967320900        1.78273539999544       -1.43101945393684
C            2.27917130024518        1.35249200291150       -0.73292258888055
O            3.28082797274456        2.03627065611526       -0.65148093778625
C            4.07359021004170       -0.16681155433042        1.52241904261469
C            5.40527362232827       -0.68880267364204        1.76142876194878
C            6.29102375809326       -1.06378188522527        0.81180656916524
C            6.00990679242776       -1.10019599503202       -0.59154320040066
C            4.80528832599152       -1.42055438368877       -1.08207425430351
C            3.73385690534496       -1.91670001388583       -0.16722723072130
C           -0.25286120523403        1.43345564541089       -0.99145973224427
C            3.70182115191464        0.88854370410643        2.44598733665138
C            3.29835315292077       -0.65276561165570        0.51372879518076
C            2.09003176170777        0.00672049359643       -0.06906813539195
C            1.03100800919769        0.50806046055279        0.87174832818713
C            1.26282769845387        1.16929924870384        2.01931357706388
C            2.49847237201968        1.42737524169672        2.69879273198540
S           -0.20315758650749        1.89983826545427        2.70264821592993
C           -1.13467567553889        1.44772567861261        1.28075560485987
C           -2.39264569041203        1.78389201188227        1.04527255400005
C           -3.95998892863461        0.34858769957392       -0.11083628648108
C           -3.30905109653213       -2.02417361716538        0.78276759195940
C           -2.22678169636798       -1.07362589460237        1.21421059997258
C           -0.36628308276209        0.59023835355184        0.31307457002436
H            0.42868080962458       -1.68792162005985        1.67232743673968
H           -0.63357044645657       -2.87659534689185        0.92809015866046
H            0.70047377328167       -2.21801958023036        0.01117848212530
H           -2.22460206926490       -0.65379511072791       -1.57154725924583
H           -0.51817973499817       -0.96366809133430       -1.85017848892972
H           -1.56417773547487       -2.27236691569622       -1.31996339766970
H           -4.43401900156314       -1.70186345064982        2.70179595247818
H           -6.55802538391424       -2.20657607068554        1.44214197725508
H           -7.02268419569331       -1.10501496883576       -0.63399582807558
H           -5.66169761638082        0.75389544251892       -1.34572000930783
H           -3.31499203536138        2.18962243283330       -2.08970860558390
H           -1.90200454174118        3.18364498663793       -3.40399883750047
H            0.38343494429694        3.59514612410872       -4.21443667337373
H            2.29907176326810        2.77606639918734       -2.82980458429270
H            5.76906711695985       -0.59609203696758        2.77743860080347
H            7.31701631044049       -1.24084551457849        1.10943011514643
H            6.81951095844198       -0.84174742093449       -1.26091058466090
H            4.58381142165186       -1.32747779733842       -2.13546621570671
H            2.92626715096633       -2.39575736893014       -0.71654587103240
H            4.51760616367365        1.23905667743401        3.06569178892045
H            4.15164283815469       -2.61572067025681        0.56118917471708
H            1.63001495975158       -0.65316241792796       -0.80477463541897
H            2.42336615921743        2.15995294946579        3.49197122918566
H           -2.97036389119271        2.36394133393103        1.74986793867856
H           -4.75228150669669       -0.66407343233860       -1.85057379240730
H           -3.37465232521926       -2.63208340373215       -0.09407304853322
H           -1.89739660498872       -1.11811126692993        2.25133639180825

          :  Hamiltonian                  GFN2-xTB          :
         :: gradient norm              0.000039358190 Eh/a0 ::
         :: HOMO-LUMO gap              1.572424309859 eV    ::
         :: SCC energy               -98.258499848203 Eh    ::
         :: -> dispersion             -0.102386772129 Eh    ::
         :: -> Gsolv                  -0.037866316644 Eh    ::
         :: repulsion energy           1.582946127394 Eh    ::

    * Orbital Energies and Occupations

         #    Occupation            Energy/Eh            Energy/eV
      -------------------------------------------------------------
         1        2.0000           -0.7242776             -19.7086
       ...           ...                  ...                  ...
        78        2.0000           -0.4245756             -11.5533
        79        2.0000           -0.4233896             -11.5210
        80        2.0000           -0.4207560             -11.4494
        81        2.0000           -0.4135608             -11.2536
        82        2.0000           -0.4094111             -11.1406
        83        2.0000           -0.4085285             -11.1166
        84        2.0000           -0.3994708             -10.8702
        85        2.0000           -0.3855180             -10.4905
        86        2.0000           -0.3845387             -10.4638
        87        2.0000           -0.3767091             -10.2508
        88        2.0000           -0.3697614             -10.0617
        89        2.0000           -0.3527553              -9.5990
        90        2.0000           -0.3411785              -9.2839 (HOMO)
        91                         -0.2833930              -7.7115 (LUMO)
        92                         -0.2671177              -7.2686
        93                         -0.2447143              -6.6590
        94                         -0.2384049              -6.4873
        95                         -0.2283489              -6.2137
        96                         -0.2177059              -5.9241
        97                         -0.2118439              -5.7646
        98                         -0.2024283              -5.5084
        99                         -0.1960449              -5.3347
       100                         -0.1888225              -5.1381
       101                         -0.1582503              -4.3062
       ...                                ...                  ...
       180                          0.7200014              19.5922
      -------------------------------------------------------------
                  HL-Gap            0.0577855 Eh            1.5724 eV

     #   Z          covCN         q      C6AA      α(0)
     1   6 C        3.773    -0.112    22.665     6.784
     2   6 C        3.885     0.020    20.186     6.388
     3   6 C        3.758    -0.104    22.547     6.770
     4   6 C        3.985    -0.001    20.532     6.438
     5   6 C        3.906    -0.009    20.680     6.464
     6   6 C        2.898    -0.043    29.061     8.839
     7   6 C        2.894    -0.038    28.935     8.819
     8   6 C        3.808    -0.051    21.485     6.598
     9   6 C        2.952     0.039    27.117     8.541
    10   7 N        2.704    -0.157    24.404     7.337
    11   6 C        2.912     0.072    26.389     8.424
    12   6 C        2.938    -0.058    29.439     8.899
    13   6 C        2.912    -0.029    28.736     8.790
    14   6 C        2.934    -0.038    28.946     8.824
    15   6 C        2.982    -0.029    28.714     8.790
    16   6 C        2.967     0.235    23.089     7.882
    17   8 O        0.857    -0.430    22.280     6.328
    18   6 C        2.955     0.003    27.956     8.672
    19   6 C        2.913    -0.037    28.932     8.820
    20   6 C        2.900    -0.032    28.798     8.799
    21   6 C        2.900    -0.038    28.955     8.823
    22   6 C        2.936    -0.025    28.625     8.775
    23   6 C        3.821    -0.058    21.605     6.615
    24   6 C        2.970    -0.016    28.417     8.744
    25   6 C        2.906    -0.028    28.710     8.786
    26   6 C        2.991     0.017    27.630     8.623
    27   6 C        3.869    -0.036    21.165     6.542
    28   6 C        3.234    -0.002    27.219     8.467
    29   6 C        2.953     0.035    27.219     8.557
    30   6 C        2.933    -0.045    29.112     8.849
    31  16 S        2.201    -0.149   147.333    20.429
    32   6 C        2.971     0.041    27.072     8.535
    33   6 C        2.949    -0.061    29.527     8.912
    34   6 C        2.959    -0.029    28.735     8.792
    35   6 C        3.859    -0.043    21.305     6.564
    36   6 C        3.913    -0.015    20.781     6.479
    37   6 C        3.958     0.013    20.296     6.401
    38   1 H        0.925     0.038     2.474     2.460
    39   1 H        0.925     0.052     2.300     2.372
    40   1 H        0.925     0.048     2.350     2.397
    41   1 H        0.925     0.040     2.443     2.444
    42   1 H        0.925     0.036     2.506     2.476
    43   1 H        0.925     0.048     2.351     2.398
    44   1 H        0.925     0.032     2.553     2.499
    45   1 H        0.926     0.030     2.590     2.517
    46   1 H        0.925     0.029     2.604     2.524
    47   1 H        0.924     0.043     2.404     2.425
    48   1 H        0.860     0.165     1.305     1.790
    49   1 H        0.926     0.040     2.446     2.445
    50   1 H        0.926     0.043     2.405     2.425
    51   1 H        0.926     0.037     2.493     2.469
    52   1 H        0.925     0.034     2.528     2.486
    53   1 H        0.925     0.035     2.515     2.480
    54   1 H        0.925     0.037     2.494     2.470
    55   1 H        0.926     0.031     2.568     2.506
    56   1 H        0.925     0.046     2.364     2.405
    57   1 H        0.925     0.042     2.416     2.431
    58   1 H        0.924     0.056     2.242     2.342
    59   1 H        0.925     0.067     2.116     2.275
    60   1 H        0.925     0.041     2.438     2.441
    61   1 H        0.926     0.045     2.385     2.415
    62   1 H        0.923     0.049     2.330     2.387
    63   1 H        0.927     0.043     2.412     2.429
    64   1 H        0.925     0.033     2.541     2.493

molecular dipole:
                 x           y           z       tot (Debye)
 q only:       -1.793      -1.741      -0.832
   full:       -1.857      -1.623      -1.276       7.058

 projected vibrational frequencies (cm⁻¹)
eigval :       -0.00    -0.00    -0.00     0.00     0.00     0.00
eigval :       32.10    41.86    52.74    57.26    60.55    81.13
eigval :       92.56   112.93   121.69   129.54   143.65   159.11
eigval :      178.61   196.46   204.86   220.72   238.95   244.04
eigval :      253.05   263.84   279.85   282.17   292.93   308.36
eigval :      311.13   319.30   328.59   336.97   343.26   349.20
eigval :      362.78   368.55   385.94   391.98   398.46   416.90
eigval :      418.40   427.51   439.50   457.54   475.42   482.29
eigval :      488.63   499.63   509.90   518.21   533.55   549.57
eigval :      550.40   562.76   572.81   582.11   598.10   613.26
eigval :      628.87   639.83   660.30   664.51   696.90   714.16
eigval :      718.30   728.26   735.34   753.79   769.44   787.92
eigval :      791.25   794.12   800.71   804.61   823.49   828.67
eigval :      837.36   846.09   866.99   870.61   871.97   886.57
eigval :      910.44   914.00   918.05   922.38   923.13   923.79
eigval :      940.58   942.98   952.24   964.01   969.67   979.16
eigval :      983.75   999.83  1013.11  1018.82  1024.15  1038.30
eigval :     1048.12  1056.64  1068.22  1079.10  1089.51  1093.73
eigval :     1114.31  1123.26  1127.62  1142.53  1146.01  1162.07
eigval :     1164.37  1165.79  1171.87  1175.87  1177.80  1186.19
eigval :     1194.40  1202.67  1206.87  1213.24  1222.83  1228.47
eigval :     1239.38  1245.12  1250.04  1254.58  1265.04  1281.77
eigval :     1288.95  1301.24  1318.73  1323.76  1323.87  1348.93
eigval :     1350.73  1361.74  1366.70  1397.75  1403.84  1409.68
eigval :     1419.35  1420.84  1440.94  1446.87  1456.72  1489.30
eigval :     1502.62  1504.05  1509.47  1518.93  1543.68  1548.90
eigval :     1576.00  1590.22  1619.16  1639.05  1647.08  1660.88
eigval :     1686.63  1690.45  1693.30  2862.29  2950.08  2956.22
eigval :     2957.53  2977.51  2989.68  3011.50  3018.79  3025.87
eigval :     3037.78  3037.94  3040.79  3045.81  3048.42  3050.95
eigval :     3056.84  3064.47  3065.66  3067.32  3067.55  3072.88
eigval :     3081.55  3084.39  3086.85  3098.17  3170.52  3406.57

   temp. (K)  partition function   enthalpy   heat capacity  entropy
                                   cal/mol     cal/K/mol   cal/K/mol   J/K/mol
 298.15  VIB  0.127E+11            16837.995    116.488     98.780
         ROT  0.243E+08              888.752      2.981     36.778
         INT  0.310E+18            17726.748    119.469    135.558
         TR   0.107E+29             1481.254      4.968     44.481
         TOT                       19208.0015   124.4370   180.0390   753.2831

       T/K    H(0)-H(T)+PV         H(T)/Eh          T*S/Eh         G(T)/Eh
   ------------------------------------------------------------------------
    298.15    0.306099E-01    0.531196E+00    0.855423E-01    0.445653E+00
   ------------------------------------------------------------------------

         :::::::::::::::::::::::::::::::::::::::::::::::::::::
         ::                  THERMODYNAMIC                  ::
         :::::::::::::::::::::::::::::::::::::::::::::::::::::
         :: total free energy         -96.229900391436 Eh   ::
         ::.................................................::
         :: total energy              -96.675553720728 Eh   ::
         :: zero point energy           0.500585763768 Eh   ::
         :: G(RRHO) w/o ZPVE           -0.054932434476 Eh   ::
         :: G(RRHO) contrib.            0.445653329292 Eh   ::
         :::::::::::::::::::::::::::::::::::::::::::::::::::::

           -------------------------------------------------
          | TOTAL ENERGY              -96.675553720728 Eh   |
          | TOTAL ENTHALPY            -96.144358058122 Eh   |
          | TOTAL FREE ENERGY         -96.229900391436 Eh   |
          | GRADIENT NORM               0.000039310043 Eh/α |
          | HOMO-LUMO GAP               1.572423096884 eV   |
           -------------------------------------------------

 * finished run on 2025/07/17 at 00:20:00.678
