   * xtb version 6.7.1 (edcfbbe) compiled by 'albert@albert-system' on 2024-07-22

   ID    Z sym.   atoms
    1    9 F      1, 3, 4
    2    6 C      2, 5-8, 10-18, 20-35, 37-52
    3    7 N      9, 19, 36
    4    1 H      53-82

          program call               : xtb data2507/toluene/CzB-FMPIM/CzB-FMPIM.xyz --gfn 2 --gbsa toluene --ohess vtight --parallel 40 --molden --ceasefiles --namespace data2507/toluene/CzB-FMPIM/CzB-FMPIM_toluene_S0_preOpt
      * Solvation model:               GBSA
        Solvent                        toluene
        Solvent mass                       9.2140E+01 g/mol
          :  Hamiltonian                  GFN2-xTB          :
 * total energy  :  -136.8690423 Eh     change       -0.4477585E-08 Eh
 * total energy  :  -136.8811927 Eh     change       -0.1215041E-01 Eh
 * total energy  :  -136.8840664 Eh     change       -0.2873631E-02 Eh
 * total energy  :  -136.8850220 Eh     change       -0.9556120E-03 Eh
 * total energy  :  -136.8859040 Eh     change       -0.8820160E-03 Eh
 * total energy  :  -136.8864211 Eh     change       -0.5170708E-03 Eh
 * total energy  :  -136.8868418 Eh     change       -0.4207623E-03 Eh
 * total energy  :  -136.8872654 Eh     change       -0.4236106E-03 Eh
 * total energy  :  -136.8876735 Eh     change       -0.4081138E-03 Eh
 * total energy  :  -136.8880636 Eh     change       -0.3900096E-03 Eh
 * total energy  :  -136.8892674 Eh     change       -0.2560547E-06 Eh
 * total energy  :  -136.8892677 Eh     change       -0.2657975E-06 Eh
 * total energy  :  -136.8892679 Eh     change       -0.2542711E-06 Eh
 * total energy  :  -136.8892681 Eh     change       -0.1879643E-06 Eh
 * total energy  :  -136.8892683 Eh     change       -0.1395289E-06 Eh
 * total energy  :  -136.8892684 Eh     change       -0.1812891E-06 Eh
 * total energy  :  -136.8892686 Eh     change       -0.1537970E-06 Eh
 * total energy  :  -136.8892688 Eh     change       -0.2368816E-06 Eh
 * total energy  :  -136.8892689 Eh     change       -0.7475919E-07 Eh
   *** GEOMETRY OPTIMIZATION CONVERGED AFTER 64 ITERATIONS ***

 final structure:
================
82
 xtb: 6.7.1 (edcfbbe)
F           -1.45017785040733       -5.91571571910263       -0.52334134248967
C           -2.62823886132238       -5.55552450396200       -1.08382150410473
F           -3.53619194063873       -6.42529085830016       -0.61197978564400
F           -2.49867616612398       -5.82352555648838       -2.39631925987186
C           -2.97414414865502       -4.12250449453607       -0.81012030854155
C           -3.82738223433597       -3.79754023840848        0.23705884497633
C           -4.11721604667198       -2.47178995000827        0.49552363824223
C           -3.55517825088715       -1.46977731947079       -0.29210464297218
N           -3.85664188667549       -0.12471018232005       -0.04160466485192
C           -2.97007026104155        0.91824391986609        0.09911665012837
C           -1.52222618300053        0.79037306479769        0.11017857122329
C           -0.75296427438887        1.82458897992542       -0.42412758572900
C            0.62373203509470        1.74781339193944       -0.42052320391180
C            1.27621714042493        0.63889413130692        0.11865963047532
C            2.74266170456443        0.55196116038529        0.11304032389283
C            3.38473748317962       -0.65336349130308       -0.16775666863450
C            4.76260225268943       -0.73639752896254       -0.18251758427760
C            5.53416500517565        0.38725554351181        0.10175897777116
N            6.93440662550741        0.30509374470150        0.09681321947193
C            7.79036465180727        1.14581067376555       -0.58646067842623
C            7.49827996322175        2.19840558864624       -1.44286991353722
C            8.55639250174399        2.86984450030488       -2.02516809232853
C            9.87740160049845        2.50418018164927       -1.77294113890666
C           10.17366931723623        1.44273270162360       -0.94092593844259
C            9.12682809710091        0.75121673580778       -0.34425286627953
C            9.06384619460439       -0.38314279549511        0.53484876371359
C           10.02788892443658       -1.18702743606282        1.13013610760412
C            9.61622261415743       -2.20919201665945        1.96224418530585
C            8.26298770536240       -2.42601507216714        2.21543740818256
C            7.28552494265957       -1.64013333761114        1.63530227871099
C            7.69193815742585       -0.62608462243446        0.77899148503403
C            4.90222634604011        1.59369186523644        0.39182759984742
C            3.52426452286314        1.67330021473357        0.38809599695124
C            0.50384582557900       -0.38146210099467        0.67214924691806
C           -0.87414825088247       -0.30718332765643        0.67606266551409
N           -3.60256659499922        2.04827417649897        0.27786394839660
C           -4.93842980850654        1.77234212042467        0.25871665481256
C           -5.91669208722401        2.84258970035027        0.39455375253896
C           -5.55805287236358        4.00400517073417        1.07838420892523
C           -6.46091699346154        5.03993781555271        1.22221290095973
C           -7.73275223415169        4.93512831568947        0.68176953620125
C           -8.09118874241654        3.79172455909785       -0.01406606230670
C           -7.19110228663817        2.75292648044982       -0.16272621602443
C           -5.12433295211871        0.41395561367922        0.07237627206454
C           -6.33662896723918       -0.39236429241755       -0.01244853895056
C           -6.53328185684398       -1.28296007376434       -1.06666812761166
C           -7.68330928018144       -2.04858290656794       -1.12766106923617
C           -8.64950621156925       -1.93572386341547       -0.14165319609717
C           -8.46446791434084       -1.04705680265985        0.90600486841397
C           -7.31665003629007       -0.28031799234068        0.97360269719927
C           -2.69874900098921       -1.80273610188808       -1.34039038372962
C           -2.40342267439989       -3.12657302638454       -1.59561009775467
H           -4.26207740556120       -4.57643089461383        0.84380730134964
H           -4.77476827884663       -2.21061722835316        1.30967928435463
H           -1.25787196401812        2.68124423264224       -0.84359698476929
H            1.20296188136186        2.54611877077589       -0.85998052239559
H            2.79795612063991       -1.52817868489188       -0.40600426760357
H            5.25005111683840       -1.66814448750116       -0.42868138524531
H            6.47796681048309        2.47875099239816       -1.65705416978222
H            8.35521456865582        3.69437810212652       -2.69372565835875
H           10.67733544184741        3.05607519191072       -2.24470558563457
H           11.19717352588855        1.15053189483906       -0.75832682929938
H           11.07732739498358       -1.01021165321423        0.94661799638015
H           10.35032848413478       -2.84691641887256        2.43282942580118
H            7.97193631504163       -3.22422047779956        2.88296447204232
H            6.24070129166294       -1.80548336048983        1.85098373085732
H            5.49767338283635        2.46149651427285        0.63376623308253
H            3.04573473209988        2.60990128243362        0.63268433351260
H            0.98956494104350       -1.23065418842691        1.12964596816258
H           -1.44612642394966       -1.09614407617376        1.14202719117647
H           -4.56298574168530        4.07402593144643        1.49094897334363
H           -6.17311131260878        5.93336638418351        1.75776915413972
H           -8.44018066038347        5.74358507349192        0.79661318133059
H           -9.07706827392138        3.71040501996809       -0.44927077506143
H           -7.47289999071125        1.87335149908877       -0.72218785236881
H           -5.79091157193805       -1.36351384833039       -1.84799727390577
H           -7.82560443218255       -2.73393566938653       -1.95041053327895
H           -9.54595245301904       -2.53573842815945       -0.19098882513376
H           -9.21646152816350       -0.95322721699601        1.67562963015061
H           -7.16802898066032        0.41220388658115        1.78941571591694
H           -2.26899929079307       -1.02283742016780       -1.94960500367332
H           -1.74377644167790       -3.39077346210513       -2.40751848790522

          :  Hamiltonian                  GFN2-xTB          :
         :: gradient norm              0.000112537894 Eh/a0 ::
         :: HOMO-LUMO gap              2.224639631218 eV    ::
         :: SCC energy              -139.208419443308 Eh    ::
         :: -> dispersion             -0.113882501637 Eh    ::
         :: -> Gsolv                  -0.053488025759 Eh    ::
         :: repulsion energy           2.319150544717 Eh    ::

    * Orbital Energies and Occupations

         #    Occupation            Energy/Eh            Energy/eV
      -------------------------------------------------------------
         1        2.0000           -0.8902856             -24.2259
       ...           ...                  ...                  ...
       113        2.0000           -0.4176589             -11.3651
       114        2.0000           -0.4151687             -11.2973
       115        2.0000           -0.4136878             -11.2570
       116        2.0000           -0.4132005             -11.2438
       117        2.0000           -0.4130454             -11.2395
       118        2.0000           -0.4059239             -11.0458
       119        2.0000           -0.4045794             -11.0092
       120        2.0000           -0.4020166             -10.9394
       121        2.0000           -0.3951104             -10.7515
       122        2.0000           -0.3847939             -10.4708
       123        2.0000           -0.3780048             -10.2860
       124        2.0000           -0.3692311             -10.0473
       125        2.0000           -0.3609432              -9.8218 (HOMO)
       126                         -0.2791892              -7.5971 (LUMO)
       127                         -0.2638933              -7.1809
       128                         -0.2621915              -7.1346
       129                         -0.2499268              -6.8009
       130                         -0.2443170              -6.6482
       131                         -0.2317756              -6.3069
       132                         -0.2313236              -6.2946
       133                         -0.2304579              -6.2711
       134                         -0.2287866              -6.2256
       135                         -0.2213978              -6.0245
       136                         -0.2204111              -5.9977
       ...                                ...                  ...
       238                          0.7449402              20.2709
      -------------------------------------------------------------
                  HL-Gap            0.0817540 Eh            2.2246 eV

     #   Z          covCN         q      C6AA      α(0)
     1   9 F        0.791    -0.221    11.457     3.998
     2   6 C        3.336     0.487    17.274     6.582
     3   9 F        0.791    -0.213    11.373     3.984
     4   9 F        0.791    -0.215    11.396     3.988
     5   6 C        2.976    -0.026    28.647     8.780
     6   6 C        2.920    -0.019    28.471     8.750
     7   6 C        2.922    -0.032    28.794     8.800
     8   6 C        2.912     0.079    26.247     8.401
     9   7 N        2.850    -0.038    21.969     6.961
    10   6 C        3.150     0.125    25.005     8.179
    11   6 C        2.974    -0.004    28.111     8.697
    12   6 C        2.925    -0.029    28.725     8.789
    13   6 C        2.923    -0.032    28.804     8.801
    14   6 C        2.976     0.013    27.708     8.634
    15   6 C        2.976     0.008    27.832     8.654
    16   6 C        2.924    -0.033    28.823     8.804
    17   6 C        2.920    -0.043    29.062     8.840
    18   6 C        2.912     0.063    26.593     8.456
    19   7 N        2.802    -0.046    22.119     6.985
    20   6 C        3.076     0.047    26.862     8.498
    21   6 C        2.909    -0.052    29.290     8.874
    22   6 C        2.924    -0.035    28.875     8.812
    23   6 C        2.919    -0.043    29.064     8.841
    24   6 C        2.912    -0.035    28.871     8.811
    25   6 C        3.067    -0.019    28.407     8.740
    26   6 C        3.067    -0.019    28.407     8.740
    27   6 C        2.912    -0.035    28.871     8.811
    28   6 C        2.919    -0.043    29.065     8.841
    29   6 C        2.924    -0.035    28.877     8.812
    30   6 C        2.909    -0.052    29.292     8.875
    31   6 C        3.075     0.047    26.862     8.498
    32   6 C        2.920    -0.043    29.056     8.839
    33   6 C        2.924    -0.033    28.814     8.803
    34   6 C        2.923    -0.034    28.850     8.808
    35   6 C        2.920    -0.037    28.912     8.818
    36   7 N        1.912    -0.301    28.658     7.937
    37   6 C        3.162     0.055    26.444     8.406
    38   6 C        2.973     0.007    27.863     8.658
    39   6 C        2.927    -0.031    28.773     8.797
    40   6 C        2.918    -0.031    28.762     8.795
    41   6 C        2.919    -0.032    28.807     8.802
    42   6 C        2.919    -0.031    28.771     8.796
    43   6 C        2.923    -0.038    28.955     8.824
    44   6 C        3.063     0.013    27.659     8.624
    45   6 C        2.971     0.006    27.893     8.663
    46   6 C        2.924    -0.036    28.892     8.815
    47   6 C        2.918    -0.029    28.730     8.790
    48   6 C        2.919    -0.030    28.740     8.791
    49   6 C        2.918    -0.027    28.688     8.783
    50   6 C        2.925    -0.032    28.807     8.802
    51   6 C        2.922    -0.032    28.800     8.801
    52   6 C        2.920    -0.018    28.455     8.748
    53   1 H        0.926     0.072     2.069     2.249
    54   1 H        0.926     0.068     2.108     2.271
    55   1 H        0.926     0.048     2.342     2.393
    56   1 H        0.926     0.045     2.386     2.415
    57   1 H        0.926     0.043     2.415     2.430
    58   1 H        0.926     0.043     2.415     2.430
    59   1 H        0.926     0.031     2.578     2.511
    60   1 H        0.926     0.030     2.587     2.515
    61   1 H        0.926     0.027     2.625     2.534
    62   1 H        0.926     0.029     2.594     2.518
    63   1 H        0.926     0.030     2.592     2.518
    64   1 H        0.926     0.027     2.627     2.535
    65   1 H        0.926     0.029     2.594     2.519
    66   1 H        0.926     0.030     2.586     2.515
    67   1 H        0.926     0.043     2.405     2.425
    68   1 H        0.926     0.044     2.391     2.418
    69   1 H        0.926     0.041     2.436     2.441
    70   1 H        0.926     0.028     2.615     2.529
    71   1 H        0.926     0.045     2.387     2.416
    72   1 H        0.926     0.033     2.545     2.495
    73   1 H        0.926     0.032     2.558     2.501
    74   1 H        0.926     0.031     2.574     2.509
    75   1 H        0.926     0.027     2.635     2.538
    76   1 H        0.926     0.026     2.644     2.543
    77   1 H        0.926     0.036     2.508     2.476
    78   1 H        0.926     0.038     2.479     2.462
    79   1 H        0.926     0.038     2.470     2.457
    80   1 H        0.926     0.034     2.533     2.489
    81   1 H        0.926     0.066     2.125     2.280
    82   1 H        0.926     0.070     2.082     2.256

molecular dipole:
                 x           y           z       tot (Debye)
 q only:       -0.859       0.857       0.211
   full:       -1.034       0.403       0.139       2.843

 projected vibrational frequencies (cm⁻¹)
eigval :       -0.00    -0.00    -0.00     0.00     0.00     0.00
eigval :        9.01    11.41    14.44    15.91    20.50    24.59
eigval :       32.71    37.33    41.59    52.82    56.07    63.41
eigval :       68.64    78.86    82.77    86.87   101.65   106.20
eigval :      108.57   114.37   126.00   146.68   147.99   163.96
eigval :      173.18   189.41   203.98   230.78   232.56   240.50
eigval :      251.42   267.76   272.88   275.57   285.46   321.25
eigval :      339.59   364.63   369.41   370.87   373.71   374.69
eigval :      382.12   383.86   387.80   395.85   404.07   411.57
eigval :      413.87   424.12   433.99   445.29   467.63   477.54
eigval :      490.34   503.18   513.25   519.23   519.96   526.19
eigval :      534.50   541.48   545.43   556.45   582.36   586.47
eigval :      587.42   596.51   599.22   601.06   615.31   625.10
eigval :      629.10   636.70   655.44   665.94   669.82   673.63
eigval :      680.92   683.57   687.61   690.92   701.46   708.64
eigval :      709.82   733.51   755.08   759.09   766.07   769.07
eigval :      771.04   783.00   796.37   809.39   828.51   834.20
eigval :      866.82   871.30   873.20   873.21   878.20   879.09
eigval :      880.88   897.50   903.16   903.36   904.59   905.47
eigval :      916.25   918.80   921.97   924.23   925.67   927.80
eigval :      928.14   928.97   930.13   930.24   933.44   933.61
eigval :      934.98   941.35   953.71   974.39   984.63   992.01
eigval :     1009.06  1011.15  1018.32  1032.55  1037.99  1067.69
eigval :     1068.35  1072.73  1078.30  1080.24  1081.87  1106.36
eigval :     1116.71  1118.39  1118.62  1133.63  1138.79  1141.89
eigval :     1150.60  1162.11  1175.88  1179.50  1180.48  1181.59
eigval :     1182.12  1188.06  1193.42  1197.02  1198.36  1204.42
eigval :     1210.42  1235.12  1242.73  1249.34  1263.85  1264.62
eigval :     1268.02  1271.10  1280.39  1282.21  1290.95  1300.87
eigval :     1301.33  1312.74  1313.56  1316.54  1318.72  1321.51
eigval :     1328.24  1355.74  1358.31  1360.34  1366.66  1388.59
eigval :     1395.37  1409.85  1411.65  1427.20  1427.87  1428.52
eigval :     1432.91  1451.27  1465.75  1474.29  1482.75  1486.67
eigval :     1486.92  1499.98  1538.29  1555.08  1558.98  1564.76
eigval :     1572.79  1573.26  1577.12  1580.62  1586.07  1587.77
eigval :     1588.44  1595.23  1596.90  1597.95  1599.76  1612.85
eigval :     3067.26  3070.34  3070.58  3070.96  3071.22  3074.94
eigval :     3076.11  3076.39  3077.27  3079.99  3080.38  3081.90
eigval :     3082.67  3084.39  3084.91  3085.50  3085.57  3088.67
eigval :     3090.95  3091.03  3091.47  3093.22  3094.46  3094.52
eigval :     3097.68  3099.19  3099.60  3102.53  3109.16  3112.86

   temp. (K)  partition function   enthalpy   heat capacity  entropy
                                   cal/mol     cal/K/mol   cal/K/mol   J/K/mol
 298.15  VIB  0.176E+21            24551.168    151.804    154.966
         ROT  0.162E+09              888.752      2.981     40.543
         INT  0.285E+29            25439.921    154.785    195.510
         TR   0.172E+29             1481.254      4.968     45.419
         TOT                       26921.1745   159.7530   240.9285  1008.0449

       T/K    H(0)-H(T)+PV         H(T)/Eh          T*S/Eh         G(T)/Eh
   ------------------------------------------------------------------------
    298.15    0.429016E-01    0.657638E+00    0.114473E+00    0.543165E+00
   ------------------------------------------------------------------------

         :::::::::::::::::::::::::::::::::::::::::::::::::::::
         ::                  THERMODYNAMIC                  ::
         :::::::::::::::::::::::::::::::::::::::::::::::::::::
         :: total free energy        -136.346104180506 Eh   ::
         ::.................................................::
         :: total energy             -136.889268895318 Eh   ::
         :: zero point energy           0.614735999295 Eh   ::
         :: G(RRHO) w/o ZPVE           -0.071571284483 Eh   ::
         :: G(RRHO) contrib.            0.543164714812 Eh   ::
         :::::::::::::::::::::::::::::::::::::::::::::::::::::

           -------------------------------------------------
          | TOTAL ENERGY             -136.889268895318 Eh   |
          | TOTAL ENTHALPY           -136.231631273665 Eh   |
          | TOTAL FREE ENERGY        -136.346104180506 Eh   |
          | GRADIENT NORM               0.000112549723 Eh/α |
          | HOMO-LUMO GAP               2.224640690800 eV   |
           -------------------------------------------------

 * finished run on 2025/07/18 at 12:13:21.003
