   * xtb version 6.7.1 (edcfbbe) compiled by 'albert@albert-system' on 2024-07-22

   ID    Z sym.   atoms
    1    9 F      1, 3, 4
    2    6 C      2, 5-8, 10-18, 20-35, 37-52
    3    7 N      9, 19, 36
    4    1 H      53-82

          program call               : xtb data2507/toluene/CzB-FMPIM/CzB-FMPIM_toluene_S0_finalOpt.xtbopt.xyz --gfn 2 --uhf 2 --gbsa toluene --ohess vtight --parallel 40 --molden --ceasefiles --namespace data2507/toluene/CzB-FMPIM/CzB-FMPIM_toluene_T1_preOpt
      * Solvation model:               GBSA
        Solvent                        toluene
        Solvent mass                       9.2140E+01 g/mol
          :  Hamiltonian                  GFN2-xTB          :
 * total energy  :  -136.7932268 Eh     change       -0.6246665E-08 Eh
 * total energy  :  -136.7991179 Eh     change       -0.5891031E-02 Eh
 * total energy  :  -136.8020251 Eh     change       -0.2907235E-02 Eh
 * total energy  :  -136.8029342 Eh     change       -0.9091560E-03 Eh
 * total energy  :  -136.8039028 Eh     change       -0.9685530E-03 Eh
 * total energy  :  -136.8044406 Eh     change       -0.5377622E-03 Eh
 * total energy  :  -136.8047489 Eh     change       -0.3083628E-03 Eh
 * total energy  :  -136.8049292 Eh     change       -0.1802535E-03 Eh
 * total energy  :  -136.8050772 Eh     change       -0.1480353E-03 Eh
 * total energy  :  -136.8051870 Eh     change       -0.1097458E-03 Eh
 * total energy  :  -136.8056067 Eh     change       -0.2172512E-06 Eh
 * total energy  :  -136.8056069 Eh     change       -0.2501130E-06 Eh
 * total energy  :  -136.8056071 Eh     change       -0.2097967E-06 Eh
 * total energy  :  -136.8056073 Eh     change       -0.1892515E-06 Eh
 * total energy  :  -136.8056075 Eh     change       -0.1851822E-06 Eh
 * total energy  :  -136.8056077 Eh     change       -0.1975853E-06 Eh
 * total energy  :  -136.8056079 Eh     change       -0.1726041E-06 Eh
 * total energy  :  -136.8056080 Eh     change       -0.1253314E-06 Eh
 * total energy  :  -136.8056080 Eh     change       -0.2792606E-07 Eh
   *** GEOMETRY OPTIMIZATION CONVERGED AFTER 67 ITERATIONS ***

 final structure:
================
82
 xtb: 6.7.1 (edcfbbe)
F           -1.79354621537760       -5.80523620644724       -0.19072251451664
C           -3.01706494839319       -5.40355300515334       -0.62786577392125
F           -3.89993730345842       -6.17554831446815        0.02895205310922
F           -3.06659915880870       -5.80160534607759       -1.91910522265207
C           -3.24383442777884       -3.94219125847355       -0.45561766337497
C           -4.07884706770293       -3.45983598859980        0.55506610836969
C           -4.25960830381051       -2.10556299297334        0.70764089863407
C           -3.59733610428973       -1.20262240655902       -0.13846851511507
N           -3.78443877288441        0.16598775802899        0.00071008007228
C           -2.79260652529770        1.16594764338832       -0.01116650311958
C           -1.40055942787331        1.00533113616595        0.05343307821380
C           -0.58533804635619        2.14799872821636       -0.20615396196325
C            0.77161746577292        2.07570954446628       -0.17801670489312
C            1.44925238923859        0.86324203922176        0.12117827206292
C            2.88166034696464        0.77246300765389        0.11452917895971
C            3.54025140582280       -0.46120108180950       -0.08434629533331
C            4.90871046826583       -0.55357537138123       -0.09597565590892
C            5.70061006132412        0.58596297170208        0.09167472922747
N            7.09113273942476        0.49484921400482        0.07987299984810
C            7.94998475344053        1.32198992117402       -0.61991138152126
C            7.65989657463264        2.35763608246302       -1.49823757965584
C            8.72020637674959        3.01191217351272       -2.09807963071935
C           10.03915236560464        2.64315343930521       -1.84418278106343
C           10.33326540768807        1.59146294533141       -0.99543680717808
C            9.28549755897722        0.92012266064458       -0.38211214666488
C            9.22001537697928       -0.20559921230185        0.51174893935419
C           10.18275606722556       -1.00420681048537        1.11170031329201
C            9.76965235169728       -2.01088160895075        1.96543743298110
C            8.41816130953151       -2.21112480400114        2.23640640241972
C            7.44100196523549       -1.42732942949508        1.65067968445599
C            7.84765440645440       -0.43545271368966        0.76803990231366
C            5.06834819202351        1.81943288690986        0.29130834104539
C            3.69967245816863        1.90844066296656        0.30135831910915
C            0.63615696484937       -0.25214496517978        0.44715204233810
C           -0.72441838028318       -0.19194077029136        0.42491550716333
N           -3.37100672144659        2.37952388949705        0.01929989181327
C           -4.68382681282143        2.20210695368199        0.11754964134246
C           -5.58743091704098        3.34038255102148        0.13951528727452
C           -5.15797969645159        4.52921643653587        0.73361198569095
C           -5.98217862777700        5.63682478107397        0.75916660164799
C           -7.24207216590697        5.58016911853619        0.18249082385144
C           -7.66657026578468        4.41227164740105       -0.43185971874601
C           -6.84878378751670        3.29851864415636       -0.45708959317115
C           -4.99525451002682        0.81452103692294        0.12189845934276
C           -6.28393021737882        0.17391188809827        0.17413724039419
C           -6.61083953565170       -0.90125521564649       -0.66505812569451
C           -7.86043149282749       -1.48243753019807       -0.60133441558466
C           -8.80789622592826       -1.01776512870975        0.29972734977800
C           -8.49876637104789        0.04954188373251        1.13192895877942
C           -7.25580681981966        0.64329861395298        1.07123143294248
C           -2.75525341162479       -1.69679715510465       -1.14979268151274
C           -2.58088928136430       -3.05006574327408       -1.30522984431642
H           -4.57741720835561       -4.15245299242093        1.21521166286595
H           -4.89485146120378       -1.73113669783711        1.49459364094463
H           -1.09015116883690        3.06772168802253       -0.45669212696404
H            1.34636676746075        2.95253497414094       -0.43327139974111
H            2.95802535548593       -1.34812958413692       -0.27996415214305
H            5.38647305925006       -1.50237321433746       -0.29082906787598
H            6.64129012736486        2.63654174291090       -1.71959193430432
H            8.52044323073932        3.82353554032687       -2.78202659535524
H           10.84076146046995        3.18045609451880       -2.32897404562667
H           11.35530875046831        1.29348582159477       -0.81666212184020
H           11.23173185232691       -0.83724010461367        0.91922136010175
H           10.50346449490508       -2.64529548491727        2.44015699640737
H            8.12654006340827       -2.99230330124849        2.92289399041194
H            6.39847350683940       -1.57655944345931        1.88568556902410
H            5.67020107726490        2.69664246629927        0.47718351713880
H            3.24321280377172        2.86419357502645        0.50489578718295
H            1.10580717194351       -1.16769612816873        0.77411545801658
H           -1.29373742933199       -1.04809833868659        0.74996662266227
H           -4.17373870319774        4.55822618299045        1.17573947458509
H           -5.64328043871800        6.54826574220484        1.22973958725114
H           -7.88751436433804        6.44591852400186        0.20382321842201
H           -8.63968176707460        4.36985048704842       -0.89918586239616
H           -7.17722737107892        2.40098579290430       -0.95913204392309
H           -5.89214060702198       -1.25224652600588       -1.39059462541820
H           -8.09963580188084       -2.30264358953607       -1.26242256327508
H           -9.78149448110973       -1.48142080873866        0.34998180664129
H           -9.23197199384400        0.41614084090278        1.83520669290421
H           -7.01185149820422        1.46447118374794        1.72888379237415
H           -2.25599643510984       -1.00350793621628       -1.80877615382266
H           -1.94496438927656       -3.43286630780686       -2.08878670112017

          :  Hamiltonian                  GFN2-xTB          :
         :: gradient norm              0.000100171489 Eh/a0 ::
         :: HOMO-LUMO gap              0.580314727170 eV    ::
         :: SCC energy              -139.104300409271 Eh    ::
         :: -> dispersion             -0.114104752966 Eh    ::
         :: -> Gsolv                  -0.053848250025 Eh    ::
         :: repulsion energy           2.298692391766 Eh    ::

    * Orbital Energies and Occupations

         #    Occupation            Energy/Eh            Energy/eV
      -------------------------------------------------------------
         1        2.0000           -0.8819266             -23.9984
       ...           ...                  ...                  ...
       114        2.0000           -0.4143971             -11.2763
       115        2.0000           -0.4139456             -11.2640
       116        2.0000           -0.4128336             -11.2338
       117        2.0000           -0.4117139             -11.2033
       118        2.0000           -0.4088571             -11.1256
       119        2.0000           -0.4081436             -11.1062
       120        2.0000           -0.4016296             -10.9289
       121        2.0000           -0.3934788             -10.7071
       122        2.0000           -0.3856520             -10.4941
       123        2.0000           -0.3848427             -10.4721
       124        1.9985           -0.3705586             -10.0834
       125        1.0015           -0.3582080              -9.7473
       126        1.0000           -0.2828383              -7.6964 (HOMO)
       127        0.0000           -0.2615121              -7.1161 (LUMO)
       128                         -0.2526423              -6.8747
       129                         -0.2511370              -6.8338
       130                         -0.2465563              -6.7091
       131                         -0.2332407              -6.3468
       132                         -0.2306308              -6.2758
       133                         -0.2294611              -6.2440
       134                         -0.2290470              -6.2327
       135                         -0.2250453              -6.1238
       136                         -0.2200984              -5.9892
       137                         -0.2181540              -5.9363
       ...                                ...                  ...
       238                          0.7370487              20.0561
      -------------------------------------------------------------
                  HL-Gap            0.0213261 Eh            0.5803 eV

     #   Z          covCN         q      C6AA      α(0)
     1   9 F        0.790    -0.232    11.571     4.018
     2   6 C        3.336     0.484    17.303     6.587
     3   9 F        0.791    -0.219    11.435     3.994
     4   9 F        0.791    -0.226    11.504     4.006
     5   6 C        2.974    -0.051    29.251     8.872
     6   6 C        2.916    -0.026    28.656     8.778
     7   6 C        2.919    -0.041    29.023     8.834
     8   6 C        2.909     0.060    26.657     8.466
     9   7 N        2.817    -0.043    22.073     6.978
    10   6 C        3.117     0.120    25.208     8.224
    11   6 C        2.969    -0.009    28.233     8.716
    12   6 C        2.921    -0.033    28.833     8.806
    13   6 C        2.915    -0.035    28.882     8.813
    14   6 C        2.971     0.005    27.908     8.665
    15   6 C        2.970     0.010    27.782     8.646
    16   6 C        2.922    -0.035    28.870     8.811
    17   6 C        2.916    -0.042    29.038     8.837
    18   6 C        2.912     0.056    26.748     8.481
    19   7 N        2.800    -0.021    21.653     6.911
    20   6 C        3.072     0.046    26.891     8.503
    21   6 C        2.909    -0.046    29.142     8.852
    22   6 C        2.923    -0.033    28.813     8.803
    23   6 C        2.920    -0.037    28.917     8.818
    24   6 C        2.912    -0.032    28.787     8.798
    25   6 C        3.065    -0.014    28.291     8.722
    26   6 C        3.065    -0.014    28.291     8.722
    27   6 C        2.912    -0.032    28.788     8.798
    28   6 C        2.920    -0.037    28.918     8.818
    29   6 C        2.923    -0.033    28.815     8.803
    30   6 C        2.909    -0.046    29.143     8.852
    31   6 C        3.072     0.046    26.891     8.503
    32   6 C        2.916    -0.042    29.038     8.837
    33   6 C        2.921    -0.035    28.864     8.810
    34   6 C        2.916    -0.034    28.853     8.808
    35   6 C        2.911    -0.042    29.043     8.837
    36   7 N        1.894    -0.303    28.712     7.944
    37   6 C        3.132     0.078    26.050     8.355
    38   6 C        2.974     0.009    27.823     8.652
    39   6 C        2.926    -0.027    28.665     8.780
    40   6 C        2.917    -0.028    28.694     8.784
    41   6 C        2.919    -0.027    28.673     8.781
    42   6 C        2.918    -0.028    28.710     8.787
    43   6 C        2.922    -0.032    28.808     8.802
    44   6 C        3.034     0.024    27.441     8.592
    45   6 C        2.969     0.004    27.929     8.669
    46   6 C        2.921    -0.034    28.847     8.808
    47   6 C        2.917    -0.028    28.703     8.785
    48   6 C        2.919    -0.030    28.740     8.791
    49   6 C        2.916    -0.028    28.690     8.783
    50   6 C        2.924    -0.032    28.802     8.801
    51   6 C        2.919    -0.040    28.995     8.830
    52   6 C        2.918    -0.025    28.629     8.774
    53   1 H        0.926     0.054     2.266     2.354
    54   1 H        0.926     0.052     2.300     2.372
    55   1 H        0.926     0.050     2.318     2.381
    56   1 H        0.926     0.041     2.439     2.442
    57   1 H        0.926     0.042     2.420     2.433
    58   1 H        0.926     0.043     2.409     2.427
    59   1 H        0.926     0.039     2.460     2.453
    60   1 H        0.926     0.037     2.490     2.468
    61   1 H        0.926     0.035     2.514     2.480
    62   1 H        0.926     0.037     2.484     2.465
    63   1 H        0.926     0.038     2.482     2.464
    64   1 H        0.926     0.035     2.517     2.481
    65   1 H        0.926     0.036     2.501     2.473
    66   1 H        0.926     0.038     2.472     2.459
    67   1 H        0.926     0.044     2.390     2.417
    68   1 H        0.926     0.045     2.380     2.413
    69   1 H        0.926     0.036     2.507     2.476
    70   1 H        0.926     0.026     2.643     2.542
    71   1 H        0.926     0.048     2.344     2.394
    72   1 H        0.926     0.040     2.443     2.444
    73   1 H        0.926     0.040     2.448     2.447
    74   1 H        0.926     0.038     2.473     2.459
    75   1 H        0.926     0.032     2.552     2.498
    76   1 H        0.926     0.027     2.623     2.533
    77   1 H        0.926     0.036     2.506     2.475
    78   1 H        0.926     0.038     2.469     2.457
    79   1 H        0.926     0.039     2.457     2.451
    80   1 H        0.926     0.034     2.527     2.486
    81   1 H        0.926     0.053     2.288     2.365
    82   1 H        0.926     0.052     2.299     2.371

molecular dipole:
                 x           y           z       tot (Debye)
 q only:        1.345       2.629       0.409
   full:        1.094       2.109       0.392       6.120

 projected vibrational frequencies (cm⁻¹)
eigval :       -0.00    -0.00    -0.00     0.00     0.00     0.00
eigval :        7.80     9.34    12.05    13.50    18.69    24.52
eigval :       32.06    36.49    40.07    54.47    58.81    61.44
eigval :       71.15    77.44    87.11    92.62   104.49   109.40
eigval :      114.13   118.76   135.37   145.46   156.76   162.60
eigval :      175.36   177.21   205.58   231.57   234.64   238.40
eigval :      244.57   265.63   270.40   276.00   286.44   313.26
eigval :      327.17   343.86   368.12   369.73   373.57   375.35
eigval :      377.57   382.68   386.19   389.58   394.56   401.36
eigval :      411.20   418.48   433.04   440.67   450.70   458.51
eigval :      464.50   493.95   501.61   507.11   516.22   517.31
eigval :      526.41   538.04   538.80   541.20   578.43   582.44
eigval :      583.90   589.23   593.19   594.54   610.93   613.72
eigval :      616.76   624.81   634.63   651.91   660.72   662.37
eigval :      674.20   675.18   675.42   677.84   684.26   685.59
eigval :      709.62   731.96   745.89   751.11   756.98   761.66
eigval :      769.64   779.37   783.76   800.93   806.11   818.86
eigval :      821.18   845.33   852.40   867.92   870.15   872.54
eigval :      874.35   893.27   895.67   900.96   902.93   903.79
eigval :      903.94   911.03   911.92   913.54   916.35   917.55
eigval :      919.01   924.81   925.41   927.24   929.31   930.47
eigval :      931.30   931.94   933.92   950.64   958.61   969.07
eigval :      988.31   997.99  1005.71  1010.45  1015.45  1040.80
eigval :     1059.30  1068.13  1068.51  1070.68  1078.52  1080.10
eigval :     1112.83  1117.22  1120.03  1123.50  1133.46  1141.72
eigval :     1144.60  1150.94  1162.06  1173.45  1177.67  1178.00
eigval :     1178.23  1178.61  1189.23  1196.07  1197.53  1201.38
eigval :     1209.62  1230.27  1237.68  1238.91  1245.17  1260.13
eigval :     1262.32  1269.46  1271.96  1278.37  1281.97  1286.22
eigval :     1292.69  1306.38  1316.91  1319.06  1319.89  1329.21
eigval :     1334.05  1348.29  1352.36  1356.22  1365.43  1390.56
eigval :     1398.45  1404.11  1416.39  1416.87  1421.19  1421.83
eigval :     1427.86  1429.76  1430.21  1451.29  1461.12  1462.47
eigval :     1468.50  1473.70  1477.30  1480.88  1481.71  1494.37
eigval :     1515.56  1540.85  1544.83  1567.31  1568.50  1570.06
eigval :     1577.57  1582.05  1583.72  1587.63  1595.33  1602.62
eigval :     3073.21  3075.14  3076.33  3076.48  3076.69  3077.20
eigval :     3080.90  3082.78  3083.63  3083.94  3084.77  3085.30
eigval :     3086.45  3088.48  3088.56  3091.32  3092.13  3092.51
eigval :     3093.10  3095.86  3097.36  3097.64  3098.02  3098.52
eigval :     3098.85  3102.70  3103.32  3105.87  3106.77  3109.73

   temp. (K)  partition function   enthalpy   heat capacity  entropy
                                   cal/mol     cal/K/mol   cal/K/mol   J/K/mol
 298.15  VIB  0.387E+21            24807.966    153.845    156.582
         ROT  0.167E+09              888.752      2.981     40.605
         INT  0.645E+29            25696.718    156.826    197.187
         TR   0.172E+29             1481.254      4.968     45.419
         TOT                       27177.9718   161.7941   242.6057  1015.0623

       T/K    H(0)-H(T)+PV         H(T)/Eh          T*S/Eh         G(T)/Eh
   ------------------------------------------------------------------------
    298.15    0.433109E-01    0.653916E+00    0.115270E+00    0.538646E+00
   ------------------------------------------------------------------------

         :::::::::::::::::::::::::::::::::::::::::::::::::::::
         ::                  THERMODYNAMIC                  ::
         :::::::::::::::::::::::::::::::::::::::::::::::::::::
         :: total free energy        -136.266961614814 Eh   ::
         ::.................................................::
         :: total energy             -136.805608013503 Eh   ::
         :: zero point energy           0.610605348166 Eh   ::
         :: G(RRHO) w/o ZPVE           -0.071958949477 Eh   ::
         :: G(RRHO) contrib.            0.538646398689 Eh   ::
         :::::::::::::::::::::::::::::::::::::::::::::::::::::

           -------------------------------------------------
          | TOTAL ENERGY             -136.805608013503 Eh   |
          | TOTAL ENTHALPY           -136.151691810382 Eh   |
          | TOTAL FREE ENERGY        -136.266961614814 Eh   |
          | GRADIENT NORM               0.000099283069 Eh/α |
          | HOMO-LUMO GAP               0.580313414538 eV   |
           -------------------------------------------------

 * finished run on 2025/07/18 at 12:17:24.414
