   * xtb version 6.7.1 (edcfbbe) compiled by 'albert@albert-system' on 2024-07-22

   ID    Z sym.   atoms
    1    9 F      1, 3, 4
    2    6 C      2, 5-8, 10-18, 20-35, 37-52
    3    7 N      9, 19, 36
    4    1 H      53-82

          program call               : xtb data2507/toluene/CzB-FMPIM/CzB-FMPIM_toluene_S0_crest.xyz --gfn 2 --gbsa toluene --ohess vtight --parallel 40 --molden --ceasefiles --namespace data2507/toluene/CzB-FMPIM/CzB-FMPIM_toluene_S0_finalOpt
      * Solvation model:               GBSA
        Solvent                        toluene
        Solvent mass                       9.2140E+01 g/mol
          :  Hamiltonian                  GFN2-xTB          :
 * total energy  :  -136.8890807 Eh     change       -0.5049742E-08 Eh
 * total energy  :  -136.8891475 Eh     change       -0.6682936E-04 Eh
 * total energy  :  -136.8891779 Eh     change       -0.3038553E-04 Eh
 * total energy  :  -136.8891872 Eh     change       -0.9337560E-05 Eh
 * total energy  :  -136.8891973 Eh     change       -0.1001878E-04 Eh
 * total energy  :  -136.8892026 Eh     change       -0.5375953E-05 Eh
 * total energy  :  -136.8892060 Eh     change       -0.3417310E-05 Eh
 * total energy  :  -136.8892086 Eh     change       -0.2518223E-05 Eh
 * total energy  :  -136.8892103 Eh     change       -0.1740091E-05 Eh
 * total energy  :  -136.8892117 Eh     change       -0.1382404E-05 Eh
 * total energy  :  -136.8892183 Eh     change       -0.6602918E-06 Eh
 * total energy  :  -136.8892190 Eh     change       -0.7152260E-06 Eh
 * total energy  :  -136.8892196 Eh     change       -0.6010268E-06 Eh
 * total energy  :  -136.8892201 Eh     change       -0.4459950E-06 Eh
 * total energy  :  -136.8892205 Eh     change       -0.4075335E-06 Eh
 * total energy  :  -136.8892207 Eh     change       -0.1751757E-06 Eh
 * total energy  :  -136.8892212 Eh     change       -0.5482501E-06 Eh
 * total energy  :  -136.8892216 Eh     change       -0.3925733E-06 Eh
 * total energy  :  -136.8892217 Eh     change       -0.9328519E-07 Eh
   *** GEOMETRY OPTIMIZATION CONVERGED AFTER 25 ITERATIONS ***

 final structure:
================
82
 xtb: 6.7.1 (edcfbbe)
F           -1.58479393295620       -5.57677118832044        0.01647873126709
C           -2.77610661710397       -5.22815408057582       -0.52202769569407
F           -3.68795479687710       -6.01547349032380        0.07069844453043
F           -2.71851956709562       -5.62300679921553       -1.80775320309889
C           -3.06107869400777       -3.76353685141937       -0.37290818328709
C           -3.89234732066131       -3.31118492357969        0.64400029900631
C           -4.12302684519789       -1.95642592685141        0.78542036490644
C           -3.52295292004854       -1.05327426678059       -0.08874016128984
N           -3.76349940690559        0.32060417259108        0.04533670630511
C           -2.83360554358050        1.33295465803903        0.10998937633433
C           -1.39171446446444        1.15464915286174        0.13433178664779
C           -0.59121205448506        2.14063328438943       -0.44489536302013
C            0.78217005849756        2.02235756322149       -0.43906523813212
C            1.40140785445254        0.91699682633167        0.14498241181556
C            2.86441827550245        0.78332897644205        0.13344803894533
C            3.46637193985089       -0.44958228736553       -0.11407752776433
C            4.84093001869931       -0.57463541565552       -0.14437341837126
C            5.64952557545535        0.53408965907916        0.09132902585461
N            7.04671200801437        0.41255400649493        0.06336850172928
C            7.91042769008100        1.20904786250905       -0.66216328806207
C            7.62899843360389        2.24318887143626       -1.54426042815533
C            8.69257217957512        2.86840716377585       -2.16671009130918
C           10.00837104236260        2.47523954383129       -1.92905037142293
C           10.29328546185235        1.43119675089575       -1.07150324862975
C            9.24066522729661        0.78605464414885       -0.43442466516813
C            9.16581138964338       -0.31987120007307        0.47920340980810
C           10.12088736638751       -1.13109521611177        1.07894232835748
C            9.70022467460818       -2.11629471077619        1.95017841888849
C            8.34730936672089       -2.28908632908747        2.23676323044285
C            7.37866849297646       -1.49520685432779        1.65264100065609
C            7.79332724773693       -0.51828315204888        0.75794876887624
C            5.05759548218617        1.76712837087240        0.35287521453977
C            3.68273222134432        1.88831712684274        0.36418390380300
C            0.59933854030491       -0.05320381307615        0.74417417313497
C           -0.77593892855213        0.06467231974036        0.74889153265387
N           -3.41931459808705        2.49956647578549        0.19182686104258
C           -4.76476623982052        2.27982372207594        0.18072377435071
C           -5.69785861183067        3.39781094454691        0.21396811289661
C           -5.30601964676070        4.58925051655720        0.82366122801458
C           -6.16498128084082        5.67070354668804        0.86520667891613
C           -7.42489598693768        5.58132398568476        0.29498281663090
C           -7.81522029754866        4.40691434270345       -0.32827788079925
C           -6.95940069746855        3.32209739511830       -0.37373483007437
C           -5.00759537074219        0.91968177983309        0.10293541513536
C           -6.25508951970417        0.16538643494744        0.06976691672658
C           -6.48202943364676       -0.80706332068319       -0.90303777248345
C           -7.67030155824392       -1.51437515962319       -0.91864143543100
C           -8.64515808327365       -1.26207016742321        0.03228987417142
C           -8.42910951856137       -0.29327467165082        0.99988498533693
C           -7.24334391817978        0.41607319077834        1.02167333785750
C           -2.69077177652014       -1.51382997497034       -1.10787316790509
C           -2.45491764414965       -2.86657119177440       -1.24647608364181
H           -4.35546034306356       -4.01393718956489        1.31883744636952
H           -4.76289104429561       -1.59599191195486        1.57543257711565
H           -1.07140234237556        2.99271421849014       -0.90099544656977
H            1.38478298673435        2.78301612308282       -0.91257505655897
H            2.85027046648964       -1.31349653289193       -0.31534653413272
H            5.29660745206100       -1.52827066378697       -0.36635197682910
H            6.61239047880729        2.54462939042876       -1.74718974003903
H            8.49997119000765        3.67860254419982       -2.85506886129202
H           10.81285756043608        2.99145325842834       -2.43238925712384
H           11.31210493458297        1.11675980948758       -0.89997195454165
H           11.17042882587438       -0.98749488323574        0.86903878739489
H           10.42708483674610       -2.75893421800041        2.42530079060749
H            8.04960052064500       -3.05888668352939        2.93406307453913
H            6.33466279629195       -1.62648820466137        1.89415957817712
H            5.68195406200677        2.62368900018671        0.55940685519851
H            3.23554029449206        2.84628087974515        0.58419827719076
H            1.06015102235193       -0.89686609003183        1.23647426336715
H           -1.36939729763035       -0.68427584645243        1.25215145091370
H           -4.32015983681838        4.64661980904199        1.25974679939273
H           -5.85230267785346        6.58746042967476        1.34437869693414
H           -8.09785709062369        6.42580853554933        0.32933074582032
H           -8.79114889479221        4.33694910777498       -0.78726658066135
H           -7.26464723807479        2.41677105181669       -0.87714549220381
H           -5.73337638711357       -0.99693421034724       -1.65900641564118
H           -7.83602508501471       -2.26299415103982       -1.67960245585300
H           -9.57181966863073       -1.81628370844183        0.01785594146047
H           -9.18729144491969       -0.09099182523565        1.74208625217269
H           -7.07182991171448        1.17139594821884        1.77475282000524
H           -2.23287098123253       -0.80903606125594       -1.78448336710433
H           -1.81425488107188       -3.23001600570848       -2.03486923635216

          :  Hamiltonian                  GFN2-xTB          :
         :: gradient norm              0.000183525144 Eh/a0 ::
         :: HOMO-LUMO gap              2.220324052486 eV    ::
         :: SCC energy              -139.208260171135 Eh    ::
         :: -> dispersion             -0.113858047407 Eh    ::
         :: -> Gsolv                  -0.053442000081 Eh    ::
         :: repulsion energy           2.319038483265 Eh    ::

    * Orbital Energies and Occupations

         #    Occupation            Energy/Eh            Energy/eV
      -------------------------------------------------------------
         1        2.0000           -0.8903584             -24.2279
       ...           ...                  ...                  ...
       113        2.0000           -0.4176190             -11.3640
       114        2.0000           -0.4151244             -11.2961
       115        2.0000           -0.4135212             -11.2525
       116        2.0000           -0.4131292             -11.2418
       117        2.0000           -0.4129214             -11.2362
       118        2.0000           -0.4058324             -11.0433
       119        2.0000           -0.4045674             -11.0088
       120        2.0000           -0.4021036             -10.9418
       121        2.0000           -0.3951423             -10.7524
       122        2.0000           -0.3847183             -10.4687
       123        2.0000           -0.3779774             -10.2853
       124        2.0000           -0.3691093             -10.0440
       125        2.0000           -0.3608970              -9.8205 (HOMO)
       126                         -0.2793016              -7.6002 (LUMO)
       127                         -0.2640277              -7.1846
       128                         -0.2622931              -7.1374
       129                         -0.2499284              -6.8009
       130                         -0.2443079              -6.6480
       131                         -0.2316842              -6.3044
       132                         -0.2312630              -6.2930
       133                         -0.2302846              -6.2664
       134                         -0.2287769              -6.2253
       135                         -0.2213823              -6.0241
       136                         -0.2203600              -5.9963
       ...                                ...                  ...
       238                          0.7449345              20.2707
      -------------------------------------------------------------
                  HL-Gap            0.0815954 Eh            2.2203 eV

     #   Z          covCN         q      C6AA      α(0)
     1   9 F        0.791    -0.221    11.455     3.998
     2   6 C        3.336     0.487    17.273     6.582
     3   9 F        0.791    -0.213    11.370     3.983
     4   9 F        0.791    -0.216    11.400     3.988
     5   6 C        2.976    -0.026    28.645     8.779
     6   6 C        2.919    -0.019    28.472     8.750
     7   6 C        2.922    -0.032    28.791     8.799
     8   6 C        2.912     0.079    26.244     8.400
     9   7 N        2.849    -0.038    21.971     6.962
    10   6 C        3.149     0.125    25.015     8.181
    11   6 C        2.974    -0.004    28.113     8.697
    12   6 C        2.925    -0.029    28.726     8.789
    13   6 C        2.923    -0.032    28.804     8.801
    14   6 C        2.976     0.013    27.709     8.635
    15   6 C        2.976     0.008    27.832     8.654
    16   6 C        2.924    -0.033    28.823     8.804
    17   6 C        2.920    -0.043    29.062     8.840
    18   6 C        2.912     0.063    26.594     8.456
    19   7 N        2.802    -0.046    22.120     6.985
    20   6 C        3.076     0.047    26.862     8.498
    21   6 C        2.909    -0.052    29.290     8.874
    22   6 C        2.924    -0.035    28.875     8.812
    23   6 C        2.919    -0.043    29.063     8.841
    24   6 C        2.912    -0.035    28.871     8.811
    25   6 C        3.067    -0.019    28.407     8.740
    26   6 C        3.067    -0.019    28.407     8.740
    27   6 C        2.912    -0.035    28.872     8.811
    28   6 C        2.919    -0.043    29.065     8.841
    29   6 C        2.924    -0.035    28.877     8.812
    30   6 C        2.909    -0.052    29.291     8.875
    31   6 C        3.075     0.047    26.862     8.498
    32   6 C        2.920    -0.043    29.056     8.840
    33   6 C        2.924    -0.033    28.814     8.803
    34   6 C        2.923    -0.034    28.851     8.808
    35   6 C        2.920    -0.037    28.919     8.819
    36   7 N        1.912    -0.301    28.657     7.937
    37   6 C        3.161     0.055    26.442     8.406
    38   6 C        2.973     0.007    27.862     8.658
    39   6 C        2.927    -0.031    28.771     8.796
    40   6 C        2.918    -0.030    28.761     8.794
    41   6 C        2.919    -0.032    28.807     8.801
    42   6 C        2.919    -0.031    28.770     8.796
    43   6 C        2.923    -0.038    28.949     8.823
    44   6 C        3.063     0.013    27.657     8.624
    45   6 C        2.971     0.006    27.895     8.663
    46   6 C        2.924    -0.036    28.895     8.815
    47   6 C        2.918    -0.029    28.731     8.790
    48   6 C        2.919    -0.030    28.741     8.791
    49   6 C        2.918    -0.027    28.688     8.783
    50   6 C        2.925    -0.032    28.808     8.802
    51   6 C        2.922    -0.032    28.794     8.800
    52   6 C        2.920    -0.018    28.451     8.747
    53   1 H        0.926     0.072     2.065     2.247
    54   1 H        0.926     0.068     2.108     2.270
    55   1 H        0.926     0.049     2.333     2.388
    56   1 H        0.926     0.045     2.388     2.417
    57   1 H        0.926     0.043     2.416     2.430
    58   1 H        0.926     0.043     2.415     2.430
    59   1 H        0.926     0.031     2.578     2.511
    60   1 H        0.926     0.030     2.587     2.515
    61   1 H        0.926     0.027     2.625     2.533
    62   1 H        0.926     0.029     2.593     2.518
    63   1 H        0.926     0.030     2.592     2.518
    64   1 H        0.926     0.027     2.627     2.535
    65   1 H        0.926     0.029     2.594     2.519
    66   1 H        0.926     0.030     2.586     2.515
    67   1 H        0.926     0.043     2.406     2.425
    68   1 H        0.926     0.044     2.392     2.419
    69   1 H        0.926     0.041     2.439     2.442
    70   1 H        0.926     0.028     2.615     2.529
    71   1 H        0.926     0.044     2.392     2.418
    72   1 H        0.926     0.033     2.544     2.494
    73   1 H        0.926     0.032     2.557     2.501
    74   1 H        0.926     0.031     2.573     2.508
    75   1 H        0.926     0.026     2.637     2.540
    76   1 H        0.926     0.026     2.644     2.543
    77   1 H        0.926     0.036     2.509     2.477
    78   1 H        0.926     0.038     2.480     2.463
    79   1 H        0.926     0.038     2.471     2.458
    80   1 H        0.926     0.034     2.534     2.490
    81   1 H        0.926     0.067     2.124     2.279
    82   1 H        0.926     0.070     2.084     2.258

molecular dipole:
                 x           y           z       tot (Debye)
 q only:       -0.833       0.907       0.147
   full:       -1.027       0.456       0.110       2.868

 projected vibrational frequencies (cm⁻¹)
eigval :       -0.00    -0.00    -0.00     0.00     0.00     0.00
eigval :        4.37     9.67    12.12    13.33    19.00    23.75
eigval :       33.55    34.22    37.45    49.74    54.75    61.39
eigval :       67.14    77.60    81.34    85.44   101.61   105.38
eigval :      107.98   113.96   125.90   141.57   148.52   163.61
eigval :      173.94   189.18   203.25   229.85   232.42   239.66
eigval :      251.98   267.45   270.14   274.11   284.84   322.03
eigval :      339.09   364.32   370.38   371.31   374.03   375.76
eigval :      380.17   383.29   387.13   395.34   403.61   410.79
eigval :      413.54   421.91   433.36   445.39   466.46   476.53
eigval :      490.01   503.97   512.88   518.99   519.81   525.80
eigval :      534.12   540.79   544.64   555.61   582.13   586.05
eigval :      586.85   596.34   599.20   600.91   615.21   624.77
eigval :      629.07   636.62   655.89   665.72   668.87   673.76
eigval :      680.56   683.45   687.14   690.96   701.38   707.98
eigval :      708.92   733.20   754.99   757.37   762.99   768.15
eigval :      768.55   779.31   795.75   809.10   825.66   833.42
eigval :      864.18   868.88   871.23   872.34   875.71   877.76
eigval :      879.32   897.47   899.56   900.44   901.86   902.54
eigval :      913.36   916.47   918.77   921.93   923.83   925.66
eigval :      926.74   927.91   928.92   930.08   931.82   933.14
eigval :      934.22   941.39   953.60   974.33   984.75   992.53
eigval :     1008.83  1011.09  1018.06  1032.33  1037.66  1067.67
eigval :     1068.62  1070.69  1078.16  1080.43  1082.20  1106.37
eigval :     1116.29  1116.92  1120.73  1132.98  1138.46  1141.13
eigval :     1150.24  1161.76  1174.27  1177.24  1179.31  1180.35
eigval :     1180.83  1187.26  1194.28  1196.11  1199.88  1203.06
eigval :     1210.52  1235.26  1241.43  1249.43  1262.56  1263.97
eigval :     1268.06  1270.81  1280.53  1281.98  1290.70  1300.51
eigval :     1300.53  1312.83  1313.38  1316.39  1318.55  1321.19
eigval :     1328.55  1355.60  1358.55  1360.32  1366.05  1388.73
eigval :     1395.52  1409.39  1411.32  1427.23  1427.35  1428.06
eigval :     1431.71  1450.93  1465.10  1474.15  1482.29  1486.70
eigval :     1486.73  1499.60  1535.60  1555.05  1558.58  1564.71
eigval :     1572.63  1573.25  1576.87  1580.07  1585.87  1587.57
eigval :     1588.14  1595.05  1596.91  1598.02  1599.40  1612.74
eigval :     3066.68  3070.25  3070.64  3070.72  3071.13  3074.99
eigval :     3076.19  3076.99  3077.45  3080.01  3080.15  3081.73
eigval :     3081.79  3084.56  3085.11  3085.27  3085.57  3089.41
eigval :     3089.85  3090.94  3091.37  3093.06  3094.22  3094.26
eigval :     3096.13  3099.09  3099.94  3102.18  3109.13  3111.96

   temp. (K)  partition function   enthalpy   heat capacity  entropy
                                   cal/mol     cal/K/mol   cal/K/mol   J/K/mol
 298.15  VIB  0.958E+21            24624.825    151.670    156.647
         ROT  0.162E+09              888.752      2.981     40.551
         INT  0.156E+30            25513.577    154.651    197.198
         TR   0.172E+29             1481.254      4.968     45.419
         TOT                       26994.8312   159.6187   242.6169  1015.1092

       T/K    H(0)-H(T)+PV         H(T)/Eh          T*S/Eh         G(T)/Eh
   ------------------------------------------------------------------------
    298.15    0.430190E-01    0.657393E+00    0.115275E+00    0.542118E+00
   ------------------------------------------------------------------------

         :::::::::::::::::::::::::::::::::::::::::::::::::::::
         ::                  THERMODYNAMIC                  ::
         :::::::::::::::::::::::::::::::::::::::::::::::::::::
         :: total free energy        -136.347103376197 Eh   ::
         ::.................................................::
         :: total energy             -136.889221684466 Eh   ::
         :: zero point energy           0.614374437904 Eh   ::
         :: G(RRHO) w/o ZPVE           -0.072256129634 Eh   ::
         :: G(RRHO) contrib.            0.542118308269 Eh   ::
         :::::::::::::::::::::::::::::::::::::::::::::::::::::

           -------------------------------------------------
          | TOTAL ENERGY             -136.889221684466 Eh   |
          | TOTAL ENTHALPY           -136.231828244790 Eh   |
          | TOTAL FREE ENERGY        -136.347103376197 Eh   |
          | GRADIENT NORM               0.000183507171 Eh/α |
          | HOMO-LUMO GAP               2.220322674536 eV   |
           -------------------------------------------------

 * finished run on 2025/07/18 at 12:17:14.665
