   * xtb version 6.7.1 (edcfbbe) compiled by 'albert@albert-system' on 2024-07-22

   ID    Z sym.   atoms
    1    9 F      1, 3, 4
    2    6 C      2, 5-8, 10-18, 20-35, 37-52
    3    7 N      9, 19, 36
    4    1 H      53-82

          program call               : xtb data2507/toluene/CzB-FMPIM/CzB-FMPIM_toluene_T1_crest.xyz --gfn 2 --uhf 2 --gbsa toluene --ohess vtight --parallel 40 --molden --ceasefiles --namespace data2507/toluene/CzB-FMPIM/CzB-FMPIM_toluene_T1_finalOpt
      * Solvation model:               GBSA
        Solvent                        toluene
        Solvent mass                       9.2140E+01 g/mol
          :  Hamiltonian                  GFN2-xTB          :
 * total energy  :  -136.8054697 Eh     change       -0.1580304E-08 Eh
 * total energy  :  -136.8055379 Eh     change       -0.6825474E-04 Eh
 * total energy  :  -136.8055677 Eh     change       -0.2978037E-04 Eh
 * total energy  :  -136.8055736 Eh     change       -0.5833136E-05 Eh
 * total energy  :  -136.8055783 Eh     change       -0.4761413E-05 Eh
 * total energy  :  -136.8055821 Eh     change       -0.3741701E-05 Eh
 * total energy  :  -136.8055850 Eh     change       -0.2893259E-05 Eh
 * total energy  :  -136.8055867 Eh     change       -0.1699210E-05 Eh
 * total energy  :  -136.8055881 Eh     change       -0.1490371E-05 Eh
 * total energy  :  -136.8055896 Eh     change       -0.1474543E-05 Eh
 * total energy  :  -136.8055951 Eh     change       -0.9168688E-06 Eh
 * total energy  :  -136.8055957 Eh     change       -0.6797817E-06 Eh
 * total energy  :  -136.8055963 Eh     change       -0.5123783E-06 Eh
 * total energy  :  -136.8055967 Eh     change       -0.4468066E-06 Eh
 * total energy  :  -136.8055971 Eh     change       -0.3967729E-06 Eh
 * total energy  :  -136.8055973 Eh     change       -0.2500649E-06 Eh
 * total energy  :  -136.8055976 Eh     change       -0.2463939E-06 Eh
 * total energy  :  -136.8055979 Eh     change       -0.2850769E-06 Eh
 * total energy  :  -136.8055979 Eh     change       -0.2432833E-07 Eh
   *** GEOMETRY OPTIMIZATION CONVERGED AFTER 22 ITERATIONS ***

 final structure:
================
82
 xtb: 6.7.1 (edcfbbe)
F           -3.65678518935474       -6.07209863593965        0.43524021939826
C           -3.16921554641573       -5.33508675964230       -0.57745409026307
F           -3.79681587222354       -5.79470534626631       -1.69223145535348
F           -1.88090401373828       -5.71981397961413       -0.72672964216237
C           -3.32251565855989       -3.86639465652927       -0.38755427981035
C           -4.14831693247895       -3.35287552513130        0.61513903719529
C           -4.29127880497701       -1.99283211387507        0.75622898529444
C           -3.60739461550543       -1.11545345848965       -0.09962267051696
N           -3.76064449186944        0.25864923896347        0.02603108729450
C           -2.74598492840910        1.23556199390375        0.00427763576357
C           -1.35770658965472        1.04549360195917        0.06683860047569
C           -0.51995536999894        2.17151394487378       -0.19490300442787
C            0.83530107629174        2.07225217671770       -0.16822689398365
C            1.48820154204806        0.84604714020724        0.12860116034559
C            2.91861895371220        0.72646348417980        0.11859798903466
C            3.55116430502694       -0.51724525311299       -0.09905837123514
C            4.91754830840919       -0.63668971274204       -0.11612095238771
C            5.73235790371013        0.48380378494820        0.08729273742213
N            7.12072935475883        0.36536060550918        0.07100978218366
C            7.99464773779223        1.18951633924719       -0.61358778755630
C            7.72393083552489        2.24667967039154       -1.47228712019235
C            8.79613993588739        2.89230714678659       -2.06022639574643
C           10.10803817401384        2.49436112005560       -1.81400633058676
C           10.38250089894296        1.42144739115818       -0.98550291155517
C            9.32248650768341        0.75849970316719       -0.38425282799513
C            9.23639967016585       -0.38231879595727        0.48839306002119
C           10.18461805401065       -1.20946003238597        1.07254965352804
C            9.75341755764952       -2.22522413337324        1.90631266663564
C            8.39852428937606       -2.40631644171932        2.17359499567138
C            7.43571376404376       -1.59333557317144        1.60409381367334
C            7.86008636328604       -0.59185157597575        0.74085122202586
C            5.12549487356088        1.72656589590030        0.30717640376419
C            3.75886898058746        1.84310722487159        0.32027533534087
C            0.65407418083714       -0.25322973020457        0.45484884927156
C           -0.70511757897266       -0.16522093126433        0.43713676855035
N           -3.29673728012321        2.46254647253470        0.02561877197248
C           -4.61282953955286        2.31601224630432        0.12641311450453
C           -5.49215042408321        3.47342708391972        0.13698034941976
C           -5.04273804158119        4.65655087175555        0.72738632884530
C           -5.84494326072613        5.78046827445679        0.74152544779398
C           -7.10188224836663        5.74580312133440        0.15678106823636
C           -7.54556305831060        4.58335559627169       -0.45433297210481
C           -6.75003643404328        3.45342480637090       -0.46796914857253
C           -4.95602423455067        0.93601832956167        0.14341157844749
C           -6.25978177903688        0.32782382122866        0.20386508347919
C           -6.61487831932345       -0.74780040366409       -0.62328298111260
C           -7.87883647246375       -1.29613241323290       -0.55227440530757
C           -8.81315190022680       -0.79786556943144        0.34457444042450
C           -8.47602455998305        0.27017231356862        1.16494217441726
C           -7.21853941052291        0.83151759161968        1.09663011876802
C           -2.78087655432788       -1.64115354615204       -1.10787955220124
C           -2.64299078854103       -3.00000962518257       -1.25079033842943
H           -4.66375326093512       -4.02549393422093        1.28290790923181
H           -4.91534062801272       -1.59446758861086        1.54034537208204
H           -1.00666079654711        3.10095253355057       -0.44525717324670
H            1.42789183218797        2.93708099635317       -0.42384526888805
H            2.95002737349349       -1.38898559853614       -0.30572583673809
H            5.37569997279640       -1.59158709942579       -0.32736702381261
H            6.71077088544751        2.54855874549839       -1.68831137563325
H            8.61128197802393        3.71974465037164       -2.72921277254910
H           10.91942647167256        3.02568305058411       -2.28901738512106
H           11.39872939168404        1.10071678089804       -0.81310544581966
H           11.23642860397487       -1.05738781020199        0.88319333016187
H           10.47557497638689       -2.88220367122579        2.36802969388963
H            8.09273577267913       -3.19568044017171        2.84437458854254
H            6.39080645400986       -1.72825464593864        1.83705869796972
H            5.74513937745504        2.58839899812472        0.50592563965764
H            3.32119789706384        2.80448245408422        0.53838729001916
H            1.10688271403253       -1.17820644092551        0.77919966253122
H           -1.29078162910993       -1.00973238527100        0.76332382415834
H           -4.06115149619815        4.66852053742811        1.17618426293077
H           -5.49112207706360        6.68752377009269        1.20958792274501
H           -7.72998668696391        6.62437061847599        0.16915877157427
H           -8.51613766192854        4.55777882479001       -0.92810242997464
H           -7.09289473345587        2.55971773093171       -0.96724996868240
H           -5.90634393395268       -1.12494453370183       -1.34566399681770
H           -8.13948257299210       -2.11688242172839       -1.20453061054270
H           -9.79820236197514       -1.23592946445014        0.40068528697939
H           -9.19875892072680        0.66260773802244        1.86509914897590
H           -6.95308367230556        1.65327444086481        1.74515455427986
H           -2.26596187359524       -0.96765955371294       -1.77532783422594
H           -2.01732459374407       -3.40710536505573       -2.03036984467769

          :  Hamiltonian                  GFN2-xTB          :
         :: gradient norm              0.000072107050 Eh/a0 ::
         :: HOMO-LUMO gap              0.583392357855 eV    ::
         :: SCC energy              -139.104428434035 Eh    ::
         :: -> dispersion             -0.114113883325 Eh    ::
         :: -> Gsolv                  -0.053857763229 Eh    ::
         :: repulsion energy           2.298830526286 Eh    ::

    * Orbital Energies and Occupations

         #    Occupation            Energy/Eh            Energy/eV
      -------------------------------------------------------------
         1        2.0000           -0.8819254             -23.9984
       ...           ...                  ...                  ...
       114        2.0000           -0.4143849             -11.2760
       115        2.0000           -0.4140192             -11.2660
       116        2.0000           -0.4128369             -11.2339
       117        2.0000           -0.4117133             -11.2033
       118        2.0000           -0.4088576             -11.1256
       119        2.0000           -0.4081628             -11.1067
       120        2.0000           -0.4016052             -10.9282
       121        2.0000           -0.3935878             -10.7101
       122        2.0000           -0.3856560             -10.4942
       123        2.0000           -0.3848100             -10.4712
       124        1.9985           -0.3705484             -10.0831
       125        1.0015           -0.3581983              -9.7471
       126        1.0000           -0.2828202              -7.6959 (HOMO)
       127        0.0000           -0.2613812              -7.1125 (LUMO)
       128                         -0.2525854              -6.8732
       129                         -0.2511325              -6.8337
       130                         -0.2465055              -6.7078
       131                         -0.2332770              -6.3478
       132                         -0.2306346              -6.2759
       133                         -0.2294929              -6.2448
       134                         -0.2290801              -6.2336
       135                         -0.2250421              -6.1237
       136                         -0.2201605              -5.9909
       137                         -0.2181837              -5.9371
       ...                                ...                  ...
       238                          0.7370712              20.0567
      -------------------------------------------------------------
                  HL-Gap            0.0214390 Eh            0.5834 eV

     #   Z          covCN         q      C6AA      α(0)
     1   9 F        0.791    -0.219    11.433     3.994
     2   6 C        3.336     0.484    17.303     6.587
     3   9 F        0.790    -0.232    11.570     4.018
     4   9 F        0.791    -0.226    11.507     4.007
     5   6 C        2.974    -0.051    29.253     8.872
     6   6 C        2.916    -0.026    28.658     8.779
     7   6 C        2.919    -0.041    29.025     8.835
     8   6 C        2.909     0.060    26.659     8.466
     9   7 N        2.817    -0.043    22.074     6.978
    10   6 C        3.116     0.120    25.211     8.224
    11   6 C        2.969    -0.009    28.231     8.715
    12   6 C        2.921    -0.033    28.834     8.806
    13   6 C        2.915    -0.035    28.881     8.812
    14   6 C        2.971     0.005    27.907     8.665
    15   6 C        2.970     0.010    27.781     8.646
    16   6 C        2.922    -0.035    28.868     8.811
    17   6 C        2.916    -0.042    29.039     8.837
    18   6 C        2.912     0.056    26.745     8.480
    19   7 N        2.800    -0.021    21.653     6.911
    20   6 C        3.072     0.046    26.892     8.503
    21   6 C        2.909    -0.046    29.143     8.852
    22   6 C        2.923    -0.033    28.813     8.803
    23   6 C        2.920    -0.037    28.917     8.818
    24   6 C        2.912    -0.032    28.787     8.798
    25   6 C        3.065    -0.014    28.291     8.722
    26   6 C        3.065    -0.014    28.291     8.722
    27   6 C        2.912    -0.032    28.788     8.798
    28   6 C        2.920    -0.037    28.918     8.818
    29   6 C        2.923    -0.033    28.815     8.803
    30   6 C        2.909    -0.046    29.144     8.852
    31   6 C        3.071     0.046    26.892     8.503
    32   6 C        2.916    -0.042    29.039     8.837
    33   6 C        2.921    -0.035    28.862     8.810
    34   6 C        2.916    -0.034    28.852     8.808
    35   6 C        2.911    -0.042    29.045     8.837
    36   7 N        1.893    -0.303    28.711     7.944
    37   6 C        3.132     0.079    26.048     8.355
    38   6 C        2.974     0.009    27.823     8.652
    39   6 C        2.926    -0.027    28.665     8.780
    40   6 C        2.917    -0.028    28.694     8.784
    41   6 C        2.919    -0.027    28.674     8.781
    42   6 C        2.918    -0.028    28.709     8.786
    43   6 C        2.922    -0.032    28.806     8.802
    44   6 C        3.034     0.024    27.441     8.592
    45   6 C        2.969     0.004    27.930     8.669
    46   6 C        2.921    -0.034    28.848     8.808
    47   6 C        2.917    -0.028    28.703     8.785
    48   6 C        2.919    -0.030    28.741     8.791
    49   6 C        2.916    -0.028    28.690     8.783
    50   6 C        2.924    -0.032    28.802     8.801
    51   6 C        2.919    -0.040    28.995     8.830
    52   6 C        2.918    -0.025    28.629     8.774
    53   1 H        0.926     0.055     2.264     2.353
    54   1 H        0.926     0.052     2.301     2.372
    55   1 H        0.926     0.050     2.316     2.380
    56   1 H        0.926     0.041     2.440     2.443
    57   1 H        0.926     0.042     2.418     2.432
    58   1 H        0.926     0.043     2.407     2.426
    59   1 H        0.926     0.039     2.459     2.452
    60   1 H        0.926     0.037     2.490     2.468
    61   1 H        0.926     0.035     2.514     2.480
    62   1 H        0.926     0.037     2.485     2.465
    63   1 H        0.926     0.037     2.482     2.464
    64   1 H        0.926     0.035     2.518     2.481
    65   1 H        0.926     0.036     2.501     2.473
    66   1 H        0.926     0.038     2.472     2.458
    67   1 H        0.926     0.045     2.389     2.417
    68   1 H        0.926     0.045     2.380     2.413
    69   1 H        0.926     0.036     2.507     2.476
    70   1 H        0.926     0.026     2.639     2.540
    71   1 H        0.926     0.048     2.346     2.395
    72   1 H        0.926     0.040     2.442     2.444
    73   1 H        0.926     0.040     2.448     2.447
    74   1 H        0.926     0.038     2.473     2.459
    75   1 H        0.926     0.032     2.554     2.499
    76   1 H        0.926     0.027     2.624     2.533
    77   1 H        0.926     0.036     2.507     2.476
    78   1 H        0.926     0.038     2.470     2.458
    79   1 H        0.926     0.039     2.457     2.451
    80   1 H        0.926     0.034     2.528     2.486
    81   1 H        0.926     0.053     2.287     2.365
    82   1 H        0.926     0.051     2.303     2.373

molecular dipole:
                 x           y           z       tot (Debye)
 q only:        1.489       2.613       0.443
   full:        1.225       2.099       0.427       6.270

 projected vibrational frequencies (cm⁻¹)
eigval :       -0.00     0.00     0.00     0.00     0.00     0.00
eigval :        8.97     9.91    11.97    14.59    19.03    24.41
eigval :       33.08    38.35    40.52    54.52    58.78    61.73
eigval :       73.12    80.12    87.88    94.23   105.81   109.03
eigval :      114.35   119.09   137.32   149.44   157.48   163.19
eigval :      174.89   177.00   206.12   232.06   235.12   238.83
eigval :      244.00   265.76   272.03   276.76   286.93   313.71
eigval :      326.12   345.21   368.58   370.72   373.79   374.96
eigval :      378.33   384.08   385.99   390.51   393.37   401.92
eigval :      411.17   420.19   433.76   440.91   449.93   458.71
eigval :      464.84   494.43   501.84   507.70   516.31   517.52
eigval :      526.18   538.44   539.29   541.30   578.55   582.60
eigval :      584.54   589.39   593.26   594.52   610.82   613.83
eigval :      616.67   624.90   634.52   652.03   661.17   662.53
eigval :      674.20   674.76   675.75   678.42   684.85   685.92
eigval :      710.38   732.31   746.06   751.90   756.97   762.31
eigval :      769.74   781.36   783.72   800.70   807.11   817.87
eigval :      821.31   846.52   853.56   868.50   871.94   873.40
eigval :      875.42   894.56   895.69   903.00   904.24   904.63
eigval :      905.81   911.75   912.48   913.92   916.49   918.41
eigval :      919.98   925.39   926.52   928.18   930.37   931.23
eigval :      932.11   932.51   934.40   952.06   958.73   969.16
eigval :      988.02   997.93  1005.82  1010.40  1014.62  1041.48
eigval :     1059.92  1068.20  1068.33  1072.36  1078.67  1080.39
eigval :     1112.91  1117.61  1120.28  1123.75  1133.35  1142.94
eigval :     1145.03  1150.55  1162.87  1174.56  1178.16  1178.39
eigval :     1178.82  1179.30  1189.66  1196.36  1198.04  1202.12
eigval :     1209.77  1229.97  1237.95  1239.94  1245.01  1259.88
eigval :     1263.29  1269.10  1272.19  1278.86  1282.23  1286.35
eigval :     1293.23  1306.59  1317.01  1319.17  1319.90  1329.29
eigval :     1334.12  1348.34  1352.55  1356.25  1365.72  1390.45
eigval :     1398.64  1404.15  1416.38  1417.08  1421.26  1421.79
eigval :     1427.89  1429.72  1430.39  1451.31  1461.34  1462.60
eigval :     1468.44  1473.75  1477.48  1480.80  1481.71  1494.92
eigval :     1516.00  1540.67  1544.75  1567.33  1568.53  1570.33
eigval :     1577.57  1582.02  1583.77  1587.82  1595.44  1602.84
eigval :     3073.90  3075.17  3076.56  3076.65  3077.64  3077.89
eigval :     3080.98  3082.94  3083.75  3084.06  3084.84  3085.44
eigval :     3087.05  3088.18  3088.66  3091.49  3092.38  3092.68
eigval :     3094.07  3095.94  3097.61  3098.17  3098.30  3098.54
eigval :     3098.86  3102.35  3103.61  3106.02  3107.17  3109.95

   temp. (K)  partition function   enthalpy   heat capacity  entropy
                                   cal/mol     cal/K/mol   cal/K/mol   J/K/mol
 298.15  VIB  0.235E+21            24766.283    153.859    155.967
         ROT  0.167E+09              888.752      2.981     40.609
         INT  0.393E+29            25655.035    156.840    196.577
         TR   0.172E+29             1481.254      4.968     45.419
         TOT                       27136.2894   161.8079   241.9959  1012.5108

       T/K    H(0)-H(T)+PV         H(T)/Eh          T*S/Eh         G(T)/Eh
   ------------------------------------------------------------------------
    298.15    0.432444E-01    0.654061E+00    0.114980E+00    0.539081E+00
   ------------------------------------------------------------------------

         :::::::::::::::::::::::::::::::::::::::::::::::::::::
         ::                  THERMODYNAMIC                  ::
         :::::::::::::::::::::::::::::::::::::::::::::::::::::
         :: total free energy        -136.266516524134 Eh   ::
         ::.................................................::
         :: total energy             -136.805597906246 Eh   ::
         :: zero point energy           0.610817002923 Eh   ::
         :: G(RRHO) w/o ZPVE           -0.071735620810 Eh   ::
         :: G(RRHO) contrib.            0.539081382113 Eh   ::
         :::::::::::::::::::::::::::::::::::::::::::::::::::::

           -------------------------------------------------
          | TOTAL ENERGY             -136.805597906246 Eh   |
          | TOTAL ENTHALPY           -136.151536473547 Eh   |
          | TOTAL FREE ENERGY        -136.266516524134 Eh   |
          | GRADIENT NORM               0.000070343776 Eh/α |
          | HOMO-LUMO GAP               0.583384780602 eV   |
           -------------------------------------------------

 * finished run on 2025/07/18 at 12:21:30.457
