   * xtb version 6.7.1 (edcfbbe) compiled by 'albert@albert-system' on 2024-07-22

   ID    Z sym.   atoms
    1    8 O      1, 3, 15
    2   16 S      2
    3    6 C      4-7, 9-14, 16-35, 37-42
    4    7 N      8, 36
    5    1 H      43-66

          program call               : xtb data2507/toluene/3CP-DPS-PXZ/3CP-DPS-PXZ_toluene_S0_crest.xyz --gfn 2 --gbsa toluene --ohess vtight --parallel 40 --molden --ceasefiles --namespace data2507/toluene/3CP-DPS-PXZ/3CP-DPS-PXZ_toluene_S0_finalOpt
      * Solvation model:               GBSA
        Solvent                        toluene
        Solvent mass                       9.2140E+01 g/mol
          :  Hamiltonian                  GFN2-xTB          :
 * total energy  :  -110.6963048 Eh     change       -0.9702319E-09 Eh
 * total energy  :  -110.6964314 Eh     change       -0.1266239E-03 Eh
 * total energy  :  -110.6965169 Eh     change       -0.8540529E-04 Eh
 * total energy  :  -110.6965535 Eh     change       -0.3669733E-04 Eh
 * total energy  :  -110.6965826 Eh     change       -0.2901252E-04 Eh
 * total energy  :  -110.6966210 Eh     change       -0.3843571E-04 Eh
 * total energy  :  -110.6966522 Eh     change       -0.3121122E-04 Eh
 * total energy  :  -110.6966802 Eh     change       -0.2801935E-04 Eh
 * total energy  :  -110.6967291 Eh     change       -0.4890487E-04 Eh
 * total energy  :  -110.6967676 Eh     change       -0.3849359E-04 Eh
 * total energy  :  -110.6986633 Eh     change       -0.7525318E-06 Eh
 * total energy  :  -110.6986641 Eh     change       -0.7267031E-06 Eh
 * total energy  :  -110.6986648 Eh     change       -0.7801480E-06 Eh
 * total energy  :  -110.6986658 Eh     change       -0.9388505E-06 Eh
 * total energy  :  -110.6986670 Eh     change       -0.1218051E-05 Eh
 * total energy  :  -110.6986686 Eh     change       -0.1588477E-05 Eh
 * total energy  :  -110.6986704 Eh     change       -0.1831912E-05 Eh
 * total energy  :  -110.6986723 Eh     change       -0.1862967E-05 Eh
 * total energy  :  -110.6986723 Eh     change       -0.6568172E-08 Eh
   *** GEOMETRY OPTIMIZATION CONVERGED AFTER 122 ITERATIONS ***

 final structure:
================
66
 xtb: 6.7.1 (edcfbbe)
O           -0.27310035793107        4.17342910639599       -1.31496540278529
S           -0.35392933565040        3.48551461757813       -0.04189260771606
O           -0.46645678811517        4.32363655581796        1.13456088431389
C            1.08115521385814        2.41679915988292        0.12048541105158
C            1.17294531817104        1.61602162640953        1.24494458524039
C            2.20776502566231        0.70625008539544        1.34702520867128
C            3.14284230588052        0.59549191759437        0.31660672564755
N            4.16395492120546       -0.37180416861583        0.40040540041802
C            3.84029327390159       -1.73380544660485        0.41921626582870
C            2.53301736992043       -2.18935268272597        0.29665067913131
C            2.24803330736734       -3.54660641897122        0.31198738544395
C            3.26463915047393       -4.47185582712318        0.43926522181888
C            4.57818627179289       -4.03479745371847        0.53080394183734
C            4.86704640889389       -2.68229807300955        0.51377610900152
O            6.19475609465059       -2.32953647417656        0.57721615148942
C            6.49723607026198       -0.98890785076996        0.52572918565017
C            7.83662784810851       -0.64866748462741        0.57591918873563
C            8.22168489900070        0.68409771469562        0.56093377840286
C            7.25636597148379        1.66971597438103        0.51139683859489
C            5.91187971914950        1.33317015735442        0.45882173684903
C            5.51085150444854        0.00300978231492        0.44361903042871
C            3.04889682334539        1.42423969103718       -0.80066298655250
C            2.01221354656709        2.33526644841210       -0.89728289072654
C           -1.71493581552304        2.32282360983970       -0.06713985430268
C           -2.85339271630313        2.57565977560177        0.68952259514185
C           -3.90265392118117        1.67769793528751        0.70221103205767
C           -3.77069084361416        0.51172916764832       -0.04588423900227
C           -2.60931945874794        0.26451079494031       -0.82695997111170
C           -1.57434222769487        1.18743780665469       -0.83784108340218
C           -2.81338587121421       -1.00187418183924       -1.47066104086355
C           -2.03460112724401       -1.78092979771946       -2.31882959575105
C           -2.53569430271237       -2.99562773079964       -2.74127479003048
C           -3.78998659209310       -3.43985244477373       -2.32360043710426
C           -4.58070625692019       -2.68399390954924       -1.47945608268815
C           -4.08890596527424       -1.45455807893062       -1.06225011230852
N           -4.65105500910332       -0.52750796822751       -0.20490185091096
C           -5.91478039995757       -0.64064666139496        0.40798454563261
C           -6.03136316140642       -0.53216604997309        1.78970404205249
C           -7.27501697140460       -0.64199357391653        2.38585071581504
C           -8.40183574784793       -0.87018001270749        1.61292537291258
C           -8.28431687372435       -0.98278136139484        0.23708566026018
C           -7.04616835282125       -0.86543031484858       -0.36903563179413
H            0.43651873604514        1.71867571864915        2.02636222817292
H            2.29584155321193        0.07084400789298        2.21514552980507
H            1.72876438639897       -1.47999323879857        0.18300339104892
H            1.22240955204930       -3.86928816399654        0.21927132026896
H            3.04957039022931       -5.52861758101732        0.45659809090270
H            5.39862347533156       -4.73046110413548        0.61178404632913
H            8.56341150998259       -1.44378622512862        0.63271099759672
H            9.26892816828573        0.93959671198680        0.59813851118533
H            7.53818884983625        2.71145802636634        0.51758777173693
H            5.16797852200162        2.11392894617397        0.43857669471439
H            3.77435293105943        1.33634145392534       -1.59508595714506
H            1.89786541699576        2.97582924173827       -1.75811121526442
H           -2.88795507443850        3.48788098100595        1.26434068643870
H           -4.79556262047507        1.87926161799224        1.27265271675012
H           -0.68381588952797        1.03439736488878       -1.42634048988539
H           -1.05912686923436       -1.44090767924548       -2.63170643284161
H           -1.94800630589112       -3.61809766236834       -3.39941219425341
H           -4.14930156788275       -4.39961797216740       -2.66438293306897
H           -5.54339427470432       -3.04239900756894       -1.14879131658629
H           -5.14738457692320       -0.37204366483548        2.38870360632789
H           -7.36202432332818       -0.55665809001640        3.45882906995395
H           -9.37012643955573       -0.95916004168537        2.08197338505869
H           -9.16103135641502       -1.15719565022483       -0.36875998210245
H           -6.95108963507434       -0.93568188429483       -1.44231816496746

          :  Hamiltonian                  GFN2-xTB          :
         :: gradient norm              0.000054299724 Eh/a0 ::
         :: HOMO-LUMO gap              2.202649234738 eV    ::
         :: SCC energy              -112.562714037186 Eh    ::
         :: -> dispersion             -0.093158282827 Eh    ::
         :: -> Gsolv                  -0.053318188012 Eh    ::
         :: repulsion energy           1.864041743175 Eh    ::

    * Orbital Energies and Occupations

         #    Occupation            Energy/Eh            Energy/eV
      -------------------------------------------------------------
         1        2.0000           -0.7740530             -21.0631
       ...           ...                  ...                  ...
        89        2.0000           -0.4291141             -11.6768
        90        2.0000           -0.4279895             -11.6462
        91        2.0000           -0.4263738             -11.6022
        92        2.0000           -0.4220281             -11.4840
        93        2.0000           -0.4181531             -11.3785
        94        2.0000           -0.4165394             -11.3346
        95        2.0000           -0.4154925             -11.3061
        96        2.0000           -0.4152926             -11.3007
        97        2.0000           -0.4089637             -11.1285
        98        2.0000           -0.3933971             -10.7049
        99        2.0000           -0.3932373             -10.7005
       100        2.0000           -0.3757510             -10.2247
       101        2.0000           -0.3474852              -9.4556 (HOMO)
       102                         -0.2665393              -7.2529 (LUMO)
       103                         -0.2612001              -7.1076
       104                         -0.2537639              -6.9053
       105                         -0.2481085              -6.7514
       106                         -0.2408763              -6.5546
       107                         -0.2368526              -6.4451
       108                         -0.2350209              -6.3952
       109                         -0.2322693              -6.3204
       110                         -0.2177787              -5.9261
       111                         -0.2096302              -5.7043
       112                         -0.1991039              -5.4179
       ...                                ...                  ...
       197                          1.1704064              31.8484
      -------------------------------------------------------------
                  HL-Gap            0.0809459 Eh            2.2026 eV

     #   Z          covCN         q      C6AA      α(0)
     1   8 O        0.860    -0.582    25.683     6.795
     2  16 S        3.826     0.935   108.548    17.535
     3   8 O        0.860    -0.580    25.628     6.787
     4   6 C        2.970    -0.074    29.834     8.959
     5   6 C        2.961    -0.026    28.638     8.778
     6   6 C        2.923    -0.034    28.854     8.809
     7   6 C        2.920     0.073    26.358     8.419
     8   7 N        2.751    -0.066    22.528     7.049
     9   6 C        2.921     0.040    27.102     8.537
    10   6 C        2.923    -0.061    29.514     8.909
    11   6 C        2.919    -0.038    28.949     8.823
    12   6 C        2.919    -0.040    28.990     8.829
    13   6 C        2.919    -0.057    29.418     8.894
    14   6 C        2.882     0.124    25.283     8.243
    15   8 O        1.708    -0.269    18.456     5.800
    16   6 C        2.882     0.123    25.289     8.244
    17   6 C        2.919    -0.057    29.422     8.895
    18   6 C        2.919    -0.040    28.997     8.830
    19   6 C        2.919    -0.038    28.952     8.824
    20   6 C        2.923    -0.061    29.510     8.908
    21   6 C        2.920     0.040    27.094     8.536
    22   6 C        2.923    -0.035    28.875     8.812
    23   6 C        2.950    -0.022    28.562     8.766
    24   6 C        2.972    -0.084    30.108     9.001
    25   6 C        2.956    -0.029    28.729     8.791
    26   6 C        2.911    -0.045    29.126     8.850
    27   6 C        3.074     0.052    26.762     8.482
    28   6 C        3.073    -0.010    28.190     8.705
    29   6 C        2.961    -0.035    28.877     8.814
    30   6 C        3.064    -0.016    28.336     8.729
    31   6 C        2.912    -0.031    28.782     8.797
    32   6 C        2.920    -0.038    28.949     8.823
    33   6 C        2.924    -0.030    28.758     8.794
    34   6 C        2.909    -0.047    29.174     8.857
    35   6 C        3.081     0.048    26.844     8.494
    36   7 N        2.803    -0.028    21.780     6.931
    37   6 C        2.913     0.060    26.649     8.465
    38   6 C        2.922    -0.041    29.026     8.835
    39   6 C        2.920    -0.026    28.657     8.779
    40   6 C        2.919    -0.030    28.753     8.793
    41   6 C        2.920    -0.026    28.657     8.779
    42   6 C        2.922    -0.040    28.992     8.830
    43   1 H        0.926     0.058     2.223     2.332
    44   1 H        0.926     0.068     2.104     2.268
    45   1 H        0.926     0.040     2.450     2.448
    46   1 H        0.926     0.045     2.388     2.417
    47   1 H        0.926     0.045     2.390     2.417
    48   1 H        0.926     0.050     2.321     2.382
    49   1 H        0.926     0.050     2.319     2.381
    50   1 H        0.926     0.044     2.401     2.423
    51   1 H        0.926     0.042     2.421     2.433
    52   1 H        0.926     0.039     2.465     2.455
    53   1 H        0.926     0.067     2.116     2.275
    54   1 H        0.926     0.064     2.147     2.291
    55   1 H        0.926     0.051     2.307     2.375
    56   1 H        0.926     0.057     2.236     2.339
    57   1 H        0.926     0.044     2.393     2.419
    58   1 H        0.926     0.038     2.478     2.461
    59   1 H        0.926     0.038     2.476     2.461
    60   1 H        0.926     0.040     2.444     2.445
    61   1 H        0.926     0.041     2.438     2.442
    62   1 H        0.926     0.045     2.384     2.414
    63   1 H        0.926     0.044     2.390     2.418
    64   1 H        0.926     0.043     2.405     2.425
    65   1 H        0.926     0.045     2.387     2.416
    66   1 H        0.926     0.046     2.368     2.406

molecular dipole:
                 x           y           z       tot (Debye)
 q only:       -1.575      -3.273       0.300
   full:       -1.607      -2.957       0.321       8.593

 projected vibrational frequencies (cm⁻¹)
eigval :       -0.00    -0.00    -0.00     0.00     0.00     0.00
eigval :        3.66     7.00    12.58    30.85    35.19    43.90
eigval :       51.73    52.50    62.67    67.17    79.46    97.46
eigval :      109.13   115.75   118.79   149.24   155.18   172.89
eigval :      196.18   206.01   217.68   241.09   248.81   255.26
eigval :      259.49   272.29   272.81   304.55   339.81   348.17
eigval :      364.73   367.04   375.59   379.08   391.99   398.02
eigval :      405.35   412.56   422.48   427.86   429.67   446.10
eigval :      447.84   474.13   486.33   503.09   510.95   522.47
eigval :      524.57   538.13   549.38   559.49   570.36   586.32
eigval :      588.26   591.41   599.66   603.53   612.52   641.64
eigval :      656.96   661.39   662.48   671.58   677.39   686.85
eigval :      709.23   716.82   727.14   763.26   776.98   780.71
eigval :      781.12   798.53   802.68   815.40   820.29   853.50
eigval :      865.28   866.77   868.98   871.95   879.76   881.34
eigval :      898.87   899.33   900.39   903.88   907.21   911.56
eigval :      913.58   914.92   917.16   917.94   922.27   922.90
eigval :      923.97   932.42   932.52   933.66   996.98  1002.92
eigval :     1015.13  1064.42  1068.28  1077.42  1088.90  1091.14
eigval :     1093.71  1106.16  1109.13  1115.36  1115.43  1121.64
eigval :     1122.48  1140.41  1166.55  1173.26  1174.03  1175.31
eigval :     1176.94  1178.33  1184.16  1185.00  1194.11  1197.82
eigval :     1215.47  1218.58  1237.69  1239.98  1246.72  1259.42
eigval :     1270.20  1273.49  1302.20  1302.71  1304.41  1314.50
eigval :     1314.80  1331.14  1350.88  1352.27  1355.25  1367.51
eigval :     1393.37  1413.40  1421.85  1426.31  1432.96  1439.67
eigval :     1456.24  1462.21  1478.68  1479.84  1482.03  1501.05
eigval :     1561.88  1566.21  1567.10  1572.65  1579.10  1580.27
eigval :     1583.15  1586.71  1587.87  1592.17  1601.24  1607.74
eigval :     3078.51  3079.16  3081.36  3084.19  3087.64  3089.12
eigval :     3089.33  3092.03  3093.12  3094.31  3095.04  3096.26
eigval :     3096.95  3097.65  3098.37  3099.38  3100.64  3103.80
eigval :     3104.08  3104.69  3106.53  3106.64  3109.21  3111.26

   temp. (K)  partition function   enthalpy   heat capacity  entropy
                                   cal/mol     cal/K/mol   cal/K/mol   J/K/mol
 298.15  VIB  0.591E+16            19367.648    123.077    121.832
         ROT  0.625E+08              888.752      2.981     38.653
         INT  0.369E+24            20256.400    126.058    160.484
         TR   0.130E+29             1481.254      4.968     44.858
         TOT                       21737.6540   131.0262   205.3420   859.1508

       T/K    H(0)-H(T)+PV         H(T)/Eh          T*S/Eh         G(T)/Eh
   ------------------------------------------------------------------------
    298.15    0.346412E-01    0.525750E+00    0.975646E-01    0.428186E+00
   ------------------------------------------------------------------------

         :::::::::::::::::::::::::::::::::::::::::::::::::::::
         ::                  THERMODYNAMIC                  ::
         :::::::::::::::::::::::::::::::::::::::::::::::::::::
         :: total free energy        -110.270486493061 Eh   ::
         ::.................................................::
         :: total energy             -110.698672296546 Eh   ::
         :: zero point energy           0.491109238137 Eh   ::
         :: G(RRHO) w/o ZPVE           -0.062923434653 Eh   ::
         :: G(RRHO) contrib.            0.428185803485 Eh   ::
         :::::::::::::::::::::::::::::::::::::::::::::::::::::

           -------------------------------------------------
          | TOTAL ENERGY             -110.698672296546 Eh   |
          | TOTAL ENTHALPY           -110.172921901801 Eh   |
          | TOTAL FREE ENERGY        -110.270486493061 Eh   |
          | GRADIENT NORM               0.000054281032 Eh/α |
          | HOMO-LUMO GAP               2.202648720245 eV   |
           -------------------------------------------------

 * finished run on 2025/07/20 at 14:13:53.091
