   * xtb version 6.7.1 (edcfbbe) compiled by 'albert@albert-system' on 2024-07-22

   ID    Z sym.   atoms
    1    8 O      1, 3, 15
    2   16 S      2
    3    6 C      4-7, 9-14, 16-35, 37-42
    4    7 N      8, 36
    5    1 H      43-66

          program call               : xtb data2507/toluene/3CP-DPS-PXZ/3CP-DPS-PXZ_toluene_S0_finalOpt.xtbopt.xyz --gfn 2 --uhf 2 --gbsa toluene --ohess vtight --parallel 40 --molden --ceasefiles --namespace data2507/toluene/3CP-DPS-PXZ/3CP-DPS-PXZ_toluene_T1_preOpt
      * Solvation model:               GBSA
        Solvent                        toluene
        Solvent mass                       9.2140E+01 g/mol
          :  Hamiltonian                  GFN2-xTB          :
 * total energy  :  -110.5971273 Eh     change       -0.8042704E-08 Eh
 * total energy  :  -110.6022648 Eh     change       -0.5137499E-02 Eh
 * total energy  :  -110.6039965 Eh     change       -0.1731742E-02 Eh
 * total energy  :  -110.6041110 Eh     change       -0.1144436E-03 Eh
 * total energy  :  -110.6041967 Eh     change       -0.8573684E-04 Eh
 * total energy  :  -110.6042427 Eh     change       -0.4597360E-04 Eh
 * total energy  :  -110.6043044 Eh     change       -0.6171807E-04 Eh
 * total energy  :  -110.6043550 Eh     change       -0.5060615E-04 Eh
 * total energy  :  -110.6043744 Eh     change       -0.1937766E-04 Eh
 * total energy  :  -110.6044079 Eh     change       -0.3354275E-04 Eh
 * total energy  :  -110.6045098 Eh     change       -0.1181102E-05 Eh
 * total energy  :  -110.6045110 Eh     change       -0.1257781E-05 Eh
 * total energy  :  -110.6045118 Eh     change       -0.8381518E-06 Eh
 * total energy  :  -110.6045125 Eh     change       -0.6023280E-06 Eh
 * total energy  :  -110.6045131 Eh     change       -0.6710011E-06 Eh
 * total energy  :  -110.6045139 Eh     change       -0.8147380E-06 Eh
 * total energy  :  -110.6045147 Eh     change       -0.7131650E-06 Eh
 * total energy  :  -110.6045152 Eh     change       -0.5167193E-06 Eh
 * total energy  :  -110.6045152 Eh     change       -0.1493223E-07 Eh
   *** GEOMETRY OPTIMIZATION CONVERGED AFTER 44 ITERATIONS ***

 final structure:
================
66
 xtb: 6.7.1 (edcfbbe)
O           -0.26390954518713        4.18098468985031       -1.35807970897676
S           -0.32627671646168        3.50027824624586       -0.07501629371767
O           -0.47597512749079        4.34919244483772        1.09486040078766
C            1.10564602712761        2.47402284930956        0.09783953955042
C            1.33242640378849        1.83471051906580        1.32112867570530
C            2.34045329075349        0.90877945992997        1.42866389834711
C            3.13060491545179        0.60780281096864        0.30784188756115
N            4.14233254067458       -0.38616948394879        0.40365853243621
C            3.78657417557515       -1.70942319185641        0.43041977489054
C            2.45705799067440       -2.14616527820371        0.32865306540774
C            2.15506436338622       -3.48299000397026        0.36618799972897
C            3.17815629367741       -4.44965505544529        0.50657199099963
C            4.49229638685900       -4.05555799321686        0.59162432895382
C            4.82414205728376       -2.70291472243697        0.55068349703931
O            6.12457315672395       -2.35358266760243        0.61483730533192
C            6.46271186371861       -1.04964445752367        0.56732743303157
C            7.81165421304339       -0.70579777941313        0.63201091593733
C            8.19195355383309        0.61459611144800        0.60405105921675
C            7.21437257984194        1.63329683922415        0.52060175036571
C            5.88095867758495        1.31911607775118        0.45759641641993
C            5.46074624878142       -0.01866079644760        0.46542189330206
C            2.91138903421878        1.26351957755830       -0.91401656757738
C            1.89786605206659        2.18466316913241       -1.01673051008765
C           -1.68801753322985        2.33443959205467       -0.10064445787673
C           -2.80166198235140        2.55535364997434        0.70322692561981
C           -3.84280729972987        1.64736007206881        0.73179230701535
C           -3.73016274184604        0.50330125848715       -0.05041295581608
C           -2.59425542474751        0.28466316776230       -0.87618314684964
C           -1.56587766694779        1.21488491214911       -0.89770803737174
C           -2.81341467736943       -0.96423707199958       -1.54818154459153
C           -2.05841852447652       -1.71476138061334       -2.44229489598514
C           -2.56699298757608       -2.91950515657942       -2.88527477906491
C           -3.80474685826835       -3.38265606202459       -2.44165119163296
C           -4.57186976533507       -2.65533939279922       -1.55080560426515
C           -4.07371964111393       -1.43571850966366       -1.11362050699580
N           -4.61233380391243       -0.53842203912830       -0.21100416480856
C           -5.85666250448363       -0.67256578383657        0.43266006466367
C           -5.93971821545631       -0.58076302418728        1.81849859931410
C           -7.16589927835365       -0.71084082976741        2.44543663466759
C           -8.31039918349232       -0.94330998164384        1.70006299697391
C           -8.22704067582032       -1.03978545900059        0.32047625654706
C           -7.00687937805907       -0.90089639849654       -0.31624291556166
H            0.70619215348693        2.09228116666577        2.16034359106080
H            2.53250470970971        0.40472557458775        2.36359894810820
H            1.67451497900571       -1.41209662032619        0.21781338052584
H            1.12878080781228       -3.80307881775760        0.28457737748055
H            2.92314485490530       -5.49625389374824        0.53805421950618
H            5.29297632691447       -4.77221289429636        0.68674971188450
H            8.53606000629170       -1.50170321508571        0.70598613424187
H            9.23557049034759        0.87928605600886        0.65187565649597
H            7.52358182504125        2.66603975808730        0.51103680360613
H            5.13579208289609        2.09726475409912        0.40260932791567
H            3.53318663999157        1.02677322529309       -1.76397411485355
H            1.69004720430581        2.70489668602174       -1.93867632619332
H           -2.82469318735463        3.45501623998877        1.29834744803713
H           -4.71647693560130        1.82925889789600        1.33795849537948
H           -0.69265190265171        1.08227295450674       -1.51656311898244
H           -1.09496546389145       -1.35942893645397       -2.77504139782049
H           -1.99795469477006       -3.51828571927426       -3.58088238873619
H           -4.17115313688243       -4.33378142750326       -2.79903060490901
H           -5.52120209021894       -3.02972712451984       -1.19968794708933
H           -5.04216058914179       -0.41822867252565        2.39629756747815
H           -7.22534255353135       -0.63785648678969        3.52130441359548
H           -9.26518811785852       -1.04809971703233        2.19301478004806
H           -9.11735009619745       -1.21686554967677       -0.26457841238966
H           -6.93987563255119       -0.95611629945135       -1.39255289298346

          :  Hamiltonian                  GFN2-xTB          :
         :: gradient norm              0.000079405854 Eh/a0 ::
         :: HOMO-LUMO gap              0.019050537928 eV    ::
         :: SCC energy              -112.448307253939 Eh    ::
         :: -> dispersion             -0.093024141483 Eh    ::
         :: -> Gsolv                  -0.057074388163 Eh    ::
         :: repulsion energy           1.843792072337 Eh    ::

    * Orbital Energies and Occupations

         #    Occupation            Energy/Eh            Energy/eV
      -------------------------------------------------------------
         1        2.0000           -0.7610882             -20.7103
       ...           ...                  ...                  ...
        90        2.0000           -0.4246144             -11.5543
        91        2.0000           -0.4239499             -11.5363
        92        2.0000           -0.4227436             -11.5034
        93        2.0000           -0.4174130             -11.3584
        94        2.0000           -0.4153256             -11.3016
        95        2.0000           -0.4142399             -11.2720
        96        2.0000           -0.4123350             -11.2202
        97        2.0000           -0.4066085             -11.0644
        98        2.0000           -0.3985741             -10.8458
        99        2.0000           -0.3882452             -10.5647
       100        1.9998           -0.3710480             -10.0967
       101        1.0002           -0.3551927              -9.6653
       102        0.5862           -0.2604770              -7.0879 (HOMO)
       103        0.4041           -0.2597770              -7.0689 (LUMO)
       104        0.0097           -0.2557553              -6.9595
       105                         -0.2418459              -6.5810
       106                         -0.2397880              -6.5250
       107                         -0.2376714              -6.4674
       108                         -0.2335238              -6.3545
       109                         -0.2328112              -6.3351
       110                         -0.2238569              -6.0915
       111                         -0.2124506              -5.7811
       112                         -0.2043282              -5.5601
       113                         -0.1946988              -5.2980
       ...                                ...                  ...
       197                          1.1598478              31.5611
      -------------------------------------------------------------
                  HL-Gap            0.0006999 Eh            0.0190 eV

     #   Z          covCN         q      C6AA      α(0)
     1   8 O        0.860    -0.593    25.943     6.829
     2  16 S        3.830     0.900   109.561    17.617
     3   8 O        0.860    -0.590    25.876     6.820
     4   6 C        2.967    -0.094    30.353     9.037
     5   6 C        2.959    -0.034    28.855     8.811
     6   6 C        2.917    -0.037    28.929     8.820
     7   6 C        2.929     0.031    27.319     8.572
     8   7 N        2.750     0.023    20.840     6.780
     9   6 C        2.928     0.026    27.428     8.589
    10   6 C        2.912    -0.046    29.142     8.852
    11   6 C        2.914    -0.038    28.938     8.821
    12   6 C        2.915    -0.036    28.891     8.814
    13   6 C        2.909    -0.050    29.247     8.868
    14   6 C        2.884     0.119    25.374     8.258
    15   8 O        1.710    -0.185    17.100     5.583
    16   6 C        2.884     0.119    25.375     8.258
    17   6 C        2.909    -0.050    29.251     8.868
    18   6 C        2.915    -0.036    28.888     8.814
    19   6 C        2.914    -0.038    28.949     8.823
    20   6 C        2.912    -0.046    29.139     8.852
    21   6 C        2.927     0.027    27.412     8.586
    22   6 C        2.916    -0.039    28.962     8.825
    23   6 C        2.953    -0.032    28.794     8.801
    24   6 C        2.970    -0.084    30.089     8.998
    25   6 C        2.956    -0.032    28.808     8.803
    26   6 C        2.910    -0.048    29.183     8.858
    27   6 C        3.073     0.049    26.820     8.491
    28   6 C        3.071    -0.013    28.259     8.716
    29   6 C        2.958    -0.037    28.906     8.819
    30   6 C        3.064    -0.017    28.358     8.732
    31   6 C        2.912    -0.033    28.829     8.804
    32   6 C        2.920    -0.040    28.988     8.829
    33   6 C        2.924    -0.032    28.809     8.802
    34   6 C        2.909    -0.049    29.222     8.864
    35   6 C        3.078     0.048    26.846     8.495
    36   7 N        2.802    -0.033    21.885     6.948
    37   6 C        2.913     0.061    26.629     8.462
    38   6 C        2.922    -0.042    29.042     8.837
    39   6 C        2.920    -0.027    28.675     8.781
    40   6 C        2.919    -0.031    28.785     8.798
    41   6 C        2.920    -0.027    28.675     8.781
    42   6 C        2.922    -0.041    29.015     8.833
    43   1 H        0.926     0.044     2.397     2.421
    44   1 H        0.926     0.054     2.268     2.355
    45   1 H        0.926     0.050     2.320     2.382
    46   1 H        0.926     0.051     2.311     2.377
    47   1 H        0.926     0.053     2.279     2.361
    48   1 H        0.926     0.061     2.191     2.314
    49   1 H        0.926     0.061     2.188     2.313
    50   1 H        0.926     0.053     2.285     2.364
    51   1 H        0.926     0.049     2.332     2.388
    52   1 H        0.926     0.049     2.326     2.385
    53   1 H        0.926     0.054     2.273     2.358
    54   1 H        0.926     0.049     2.331     2.388
    55   1 H        0.926     0.044     2.390     2.418
    56   1 H        0.926     0.051     2.313     2.378
    57   1 H        0.926     0.041     2.437     2.441
    58   1 H        0.926     0.035     2.511     2.478
    59   1 H        0.926     0.036     2.506     2.476
    60   1 H        0.926     0.038     2.479     2.462
    61   1 H        0.926     0.038     2.478     2.462
    62   1 H        0.926     0.043     2.407     2.426
    63   1 H        0.926     0.043     2.410     2.428
    64   1 H        0.926     0.042     2.421     2.433
    65   1 H        0.926     0.043     2.405     2.425
    66   1 H        0.926     0.045     2.389     2.417

molecular dipole:
                 x           y           z       tot (Debye)
 q only:        0.977      -4.744       0.588
   full:        0.891      -4.414       0.618      11.552

 projected vibrational frequencies (cm⁻¹)
eigval :       -0.00    -0.00    -0.00     0.00     0.00     0.00
eigval :       -3.89     6.93    10.60    28.68    30.47    36.83
eigval :       42.90    51.27    66.56    76.06    77.64    95.29
eigval :       97.66   107.32   115.53   141.37   152.14   167.00
eigval :      185.70   205.21   213.70   232.25   239.82   252.84
eigval :      255.63   268.53   270.59   310.51   330.80   343.77
eigval :      363.56   367.29   371.65   375.41   377.88   390.96
eigval :      393.78   405.99   408.11   410.77   425.37   436.84
eigval :      440.36   450.31   459.39   475.62   497.05   509.82
eigval :      514.25   528.80   535.18   554.08   566.38   574.60
eigval :      586.40   590.67   594.57   600.74   611.48   621.65
eigval :      627.54   634.21   637.19   649.16   669.91   674.28
eigval :      701.64   707.40   724.25   743.54   746.00   762.43
eigval :      771.66   779.89   786.42   800.56   815.79   840.68
eigval :      842.41   843.73   844.33   865.99   868.74   879.70
eigval :      885.12   889.84   891.12   891.64   892.10   895.34
eigval :      895.95   897.60   900.24   903.29   904.39   910.24
eigval :      919.59   921.82   930.93   932.05   978.41   996.12
eigval :     1014.32  1037.81  1046.62  1053.16  1060.16  1067.01
eigval :     1078.81  1086.20  1112.02  1115.89  1116.14  1120.01
eigval :     1120.85  1139.76  1157.75  1158.47  1166.48  1168.23
eigval :     1172.90  1176.16  1180.08  1183.98  1185.72  1195.26
eigval :     1213.40  1216.28  1223.75  1236.04  1244.12  1256.25
eigval :     1266.89  1273.03  1298.19  1300.12  1308.26  1315.20
eigval :     1318.91  1336.97  1338.09  1351.66  1354.05  1356.46
eigval :     1363.55  1372.03  1405.56  1410.16  1411.72  1418.00
eigval :     1423.27  1424.68  1433.00  1445.59  1449.41  1455.93
eigval :     1464.46  1474.51  1479.14  1481.03  1491.45  1526.40
eigval :     1534.29  1564.10  1579.10  1582.33  1589.14  1593.13
eigval :     3076.00  3078.70  3079.95  3082.18  3087.59  3089.41
eigval :     3089.52  3090.37  3092.30  3093.08  3096.34  3097.51
eigval :     3098.41  3098.63  3098.91  3099.61  3100.26  3101.75
eigval :     3103.08  3103.93  3106.83  3108.13  3114.80  3115.76

   temp. (K)  partition function   enthalpy   heat capacity  entropy
                                   cal/mol     cal/K/mol   cal/K/mol   J/K/mol
 298.15  VIB  0.184E+17            19763.574    124.885    124.314
         ROT  0.622E+08              888.752      2.981     38.643
         INT  0.114E+25            20652.327    127.866    162.957
         TR   0.130E+29             1481.254      4.968     44.858
         TOT                       22133.5805   132.8341   207.8150   869.4979

       T/K    H(0)-H(T)+PV         H(T)/Eh          T*S/Eh         G(T)/Eh
   ------------------------------------------------------------------------
    298.15    0.352721E-01    0.521219E+00    0.987396E-01    0.422480E+00
   ------------------------------------------------------------------------

         :::::::::::::::::::::::::::::::::::::::::::::::::::::
         ::                  THERMODYNAMIC                  ::
         :::::::::::::::::::::::::::::::::::::::::::::::::::::
         :: total free energy        -110.182035545038 Eh   ::
         ::.................................................::
         :: total energy             -110.604515185919 Eh   ::
         :: zero point energy           0.485947137160 Eh   ::
         :: G(RRHO) w/o ZPVE           -0.063467496279 Eh   ::
         :: G(RRHO) contrib.            0.422479640882 Eh   ::
         :::::::::::::::::::::::::::::::::::::::::::::::::::::

           -------------------------------------------------
          | TOTAL ENERGY             -110.604515185919 Eh   |
          | TOTAL ENTHALPY           -110.083295943066 Eh   |
          | TOTAL FREE ENERGY        -110.182035545038 Eh   |
          | GRADIENT NORM               0.000079978433 Eh/α |
          | HOMO-LUMO GAP               0.019045835043 eV   |
           -------------------------------------------------

 * finished run on 2025/07/20 at 14:13:59.003
