   * xtb version 6.7.1 (edcfbbe) compiled by 'albert@albert-system' on 2024-07-22

   ID    Z sym.   atoms
    1    8 O      1, 3, 15
    2   16 S      2
    3    6 C      4-7, 9-14, 16-35, 37-42
    4    7 N      8, 36
    5    1 H      43-66

          program call               : xtb data2507/toluene/3CP-DPS-PXZ/3CP-DPS-PXZ_toluene_T1_crest.xyz --gfn 2 --uhf 2 --gbsa toluene --ohess vtight --parallel 40 --molden --ceasefiles --namespace data2507/toluene/3CP-DPS-PXZ/3CP-DPS-PXZ_toluene_T1_finalOpt
      * Solvation model:               GBSA
        Solvent                        toluene
        Solvent mass                       9.2140E+01 g/mol
          :  Hamiltonian                  GFN2-xTB          :
 * total energy  :  -110.6030923 Eh     change       -0.2196967E-07 Eh
 * total energy  :  -110.6033254 Eh     change       -0.2330199E-03 Eh
 * total energy  :  -110.6034782 Eh     change       -0.1527980E-03 Eh
 * total energy  :  -110.6035012 Eh     change       -0.2301488E-04 Eh
 * total energy  :  -110.6035372 Eh     change       -0.3600323E-04 Eh
 * total energy  :  -110.6035556 Eh     change       -0.1841939E-04 Eh
 * total energy  :  -110.6035895 Eh     change       -0.3393204E-04 Eh
 * total energy  :  -110.6036327 Eh     change       -0.4319331E-04 Eh
 * total energy  :  -110.6036529 Eh     change       -0.2020609E-04 Eh
 * total energy  :  -110.6036796 Eh     change       -0.2662879E-04 Eh
 * total energy  :  -110.6049502 Eh     change       -0.7912335E-06 Eh
 * total energy  :  -110.6049508 Eh     change       -0.6636593E-06 Eh
 * total energy  :  -110.6049514 Eh     change       -0.5173803E-06 Eh
 * total energy  :  -110.6049520 Eh     change       -0.6465815E-06 Eh
 * total energy  :  -110.6049530 Eh     change       -0.9971864E-06 Eh
 * total energy  :  -110.6049546 Eh     change       -0.1589561E-05 Eh
 * total energy  :  -110.6049562 Eh     change       -0.1568440E-05 Eh
 * total energy  :  -110.6049572 Eh     change       -0.9880631E-06 Eh
 * total energy  :  -110.6049572 Eh     change       -0.9563792E-08 Eh
   *** GEOMETRY OPTIMIZATION CONVERGED AFTER 68 ITERATIONS ***

 final structure:
================
66
 xtb: 6.7.1 (edcfbbe)
O           -0.29305330600116        4.08453747974551       -1.99204422780977
S           -0.31797553281106        3.61091419327841       -0.61780432364458
O           -0.43396303124165        4.62640620789783        0.41484482732861
C            1.11087832923435        2.60827897613499       -0.32953789543573
C            1.44304825699071        2.25644479788922        0.98167089883682
C            2.40432860087530        1.30330057941421        1.21167170175987
C            3.03024819149535        0.67248801335437        0.12358988553922
N            3.97131157263275       -0.36777648773154        0.34556911925352
C            3.61771986026436       -1.66103366583065        0.06444420749573
C            2.32123029167933       -2.03068285955523       -0.32904505876560
C            2.02729878196073       -3.33531368801609       -0.62815343142554
C            3.02420298125658       -4.33560759611698       -0.54966564928045
C            4.29859201934535       -4.00970181488897       -0.14820601560783
C            4.61767956614720       -2.69314766983472        0.17393659675855
O            5.86969702221017       -2.41157524045883        0.58775119422252
C            6.19132851259495       -1.14176827482078        0.90626909789951
C            7.49166291599422       -0.87000107388236        1.33015573773631
C            7.86358970078798        0.41571729662836        1.64115269626544
C            6.93445609625161        1.47270665886219        1.51717023938620
C            5.65234191914358        1.23029766632867        1.09158736226588
C            5.23493561046072       -0.07258761010139        0.78914726865338
C            2.70580882629231        1.03762320515012       -1.19142006384225
C            1.75258651330382        1.99976097962177       -1.41420776747552
C           -1.65345250168177        2.43757793220530       -0.42396008745718
C           -2.56918287003732        2.59164314420149        0.61376675625740
C           -3.54716563872946        1.64379926424253        0.83937003425680
C           -3.57966918622592        0.52943442583088        0.00675552752224
C           -2.62077457384363        0.35643741510016       -1.02753383925904
C           -1.65603737922645        1.32657963894195       -1.24557213891175
C           -2.90332736668747       -0.91290664997566       -1.63617108068747
C           -2.32231590344149       -1.62246235517045       -2.68029505737405
C           -2.86563485943019       -2.84242852334542       -3.03139698400546
C           -3.98230124087126       -3.34767892733033       -2.36722830900968
C           -4.57498917722866       -2.66159260017441       -1.32417072382539
C           -4.01786819985398       -1.44644194969725       -0.94865639363751
N           -4.41334240994274       -0.56391053127194        0.03827534413734
C           -5.49646204986611       -0.74958201329188        0.91675923969825
C           -5.60074391715684       -1.92319936409452        1.65719865912838
C           -6.67246740600218       -2.10528395941933        2.51245215444939
C           -7.63745049593689       -1.11979949620458        2.64313192872922
C           -7.53018941048045        0.05175776746823        1.91120261527195
C           -6.46763143987211        0.23865391670909        1.04555519898385
H            0.93041149206059        2.75183311373408        1.79092576627059
H            2.67106613764675        1.01650900501659        2.21749253537346
H            1.55792018940969       -1.27060637863400       -0.38645312428104
H            1.02605668633197       -3.60450036747905       -0.92427589231571
H            2.77863167132969       -5.35529650137483       -0.79707550640918
H            5.07333759329610       -4.75577095166208       -0.06563481769660
H            8.18489196254245       -1.69317825897690        1.40297684828445
H            8.86806432036877        0.62377754119400        1.97179216294331
H            7.23985931177133        2.47922544089652        1.75345289969406
H            4.94873887749958        2.04068402617496        0.98321360128083
H            3.20968431291770        0.55571587727598       -2.01577711329420
H            1.48232195121193        2.31442088344686       -2.40987157718066
H           -2.48959561785133        3.47443814119886        1.22896691979258
H           -4.25440360799087        1.76190749250023        1.64550515993975
H           -0.91982212886913        1.23348504950366       -2.02760938883784
H           -1.46808212878469       -1.22057888402980       -3.20382926682175
H           -2.42891975720318       -3.41176655781766       -3.83845767851558
H           -4.39537616061630       -4.29650912764008       -2.67653188534787
H           -5.44798652339757       -3.05438893100039       -0.82602105491574
H           -4.83572280905055       -2.67977075611137        1.56706004752790
H           -6.74996695376164       -3.01791654451799        3.08465479833094
H           -8.47073671613722       -1.26391780819851        3.31426846061215
H           -8.28134887796789        0.82174975541187        2.00774982371781
H           -6.38934426593802        1.14196023752775        0.45895165874227

          :  Hamiltonian                  GFN2-xTB          :
         :: gradient norm              0.000068470965 Eh/a0 ::
         :: HOMO-LUMO gap              0.040326221716 eV    ::
         :: SCC energy              -112.449202071457 Eh    ::
         :: -> dispersion             -0.093192914439 Eh    ::
         :: -> Gsolv                  -0.057418274942 Eh    ::
         :: repulsion energy           1.844244909328 Eh    ::

    * Orbital Energies and Occupations

         #    Occupation            Energy/Eh            Energy/eV
      -------------------------------------------------------------
         1        2.0000           -0.7617057             -20.7271
       ...           ...                  ...                  ...
        90        2.0000           -0.4245605             -11.5529
        91        2.0000           -0.4244849             -11.5508
        92        2.0000           -0.4227446             -11.5035
        93        2.0000           -0.4165416             -11.3347
        94        2.0000           -0.4145423             -11.2803
        95        2.0000           -0.4138804             -11.2623
        96        2.0000           -0.4120113             -11.2114
        97        2.0000           -0.4070207             -11.0756
        98        2.0000           -0.3972951             -10.8110
        99        2.0000           -0.3878695             -10.5545
       100        1.9995           -0.3704807             -10.0813
       101        1.0005           -0.3561434              -9.6912
       102        0.6848           -0.2617684              -7.1231 (HOMO)
       103        0.3135           -0.2602867              -7.0828 (LUMO)
       104        0.0018           -0.2550131              -6.9393
       105                         -0.2409972              -6.5579
       106                         -0.2400527              -6.5322
       107                         -0.2371733              -6.4538
       108                         -0.2330460              -6.3415
       109                         -0.2324924              -6.3264
       110                         -0.2247463              -6.1157
       111                         -0.2132731              -5.8035
       112                         -0.2036486              -5.5416
       113                         -0.1942665              -5.2863
       ...                                ...                  ...
       197                          1.1592378              31.5445
      -------------------------------------------------------------
                  HL-Gap            0.0014817 Eh            0.0403 eV

     #   Z          covCN         q      C6AA      α(0)
     1   8 O        0.860    -0.592    25.915     6.825
     2  16 S        3.835     0.896   109.695    17.628
     3   8 O        0.860    -0.588    25.835     6.815
     4   6 C        2.967    -0.095    30.390     9.042
     5   6 C        2.958    -0.034    28.842     8.809
     6   6 C        2.916    -0.039    28.971     8.826
     7   6 C        2.930     0.030    27.333     8.574
     8   7 N        2.750     0.024    20.825     6.778
     9   6 C        2.928     0.025    27.436     8.590
    10   6 C        2.912    -0.046    29.133     8.851
    11   6 C        2.914    -0.037    28.912     8.817
    12   6 C        2.916    -0.036    28.892     8.814
    13   6 C        2.909    -0.050    29.242     8.867
    14   6 C        2.884     0.120    25.359     8.256
    15   8 O        1.710    -0.185    17.094     5.582
    16   6 C        2.884     0.120    25.353     8.255
    17   6 C        2.909    -0.050    29.247     8.868
    18   6 C        2.915    -0.034    28.846     8.807
    19   6 C        2.914    -0.038    28.938     8.821
    20   6 C        2.912    -0.046    29.134     8.851
    21   6 C        2.926     0.028    27.369     8.579
    22   6 C        2.917    -0.037    28.932     8.820
    23   6 C        2.956    -0.034    28.836     8.808
    24   6 C        2.970    -0.087    30.169     9.009
    25   6 C        2.956    -0.034    28.851     8.810
    26   6 C        2.910    -0.048    29.185     8.858
    27   6 C        3.072     0.048    26.860     8.498
    28   6 C        3.070    -0.013    28.265     8.717
    29   6 C        2.961    -0.037    28.911     8.819
    30   6 C        3.064    -0.016    28.356     8.732
    31   6 C        2.912    -0.033    28.825     8.804
    32   6 C        2.920    -0.040    28.997     8.831
    33   6 C        2.924    -0.032    28.804     8.801
    34   6 C        2.909    -0.049    29.224     8.864
    35   6 C        3.077     0.048    26.847     8.495
    36   7 N        2.801    -0.034    21.891     6.949
    37   6 C        2.913     0.061    26.629     8.462
    38   6 C        2.922    -0.041    29.026     8.835
    39   6 C        2.920    -0.027    28.680     8.782
    40   6 C        2.919    -0.032    28.791     8.799
    41   6 C        2.920    -0.027    28.675     8.781
    42   6 C        2.922    -0.042    29.040     8.837
    43   1 H        0.926     0.045     2.383     2.414
    44   1 H        0.926     0.055     2.261     2.352
    45   1 H        0.926     0.050     2.322     2.383
    46   1 H        0.926     0.052     2.301     2.372
    47   1 H        0.926     0.054     2.271     2.356
    48   1 H        0.926     0.061     2.182     2.310
    49   1 H        0.926     0.062     2.174     2.306
    50   1 H        0.926     0.054     2.266     2.354
    51   1 H        0.926     0.050     2.314     2.379
    52   1 H        0.926     0.052     2.300     2.372
    53   1 H        0.926     0.053     2.287     2.365
    54   1 H        0.926     0.047     2.355     2.400
    55   1 H        0.926     0.045     2.382     2.413
    56   1 H        0.926     0.050     2.323     2.384
    57   1 H        0.926     0.041     2.433     2.439
    58   1 H        0.926     0.035     2.513     2.479
    59   1 H        0.926     0.035     2.509     2.477
    60   1 H        0.926     0.038     2.479     2.462
    61   1 H        0.926     0.038     2.476     2.461
    62   1 H        0.926     0.046     2.370     2.407
    63   1 H        0.926     0.044     2.399     2.422
    64   1 H        0.926     0.042     2.426     2.435
    65   1 H        0.926     0.042     2.426     2.435
    66   1 H        0.926     0.041     2.435     2.440

molecular dipole:
                 x           y           z       tot (Debye)
 q only:        1.242      -4.901       1.412
   full:        1.154      -4.566       1.385      12.478

 projected vibrational frequencies (cm⁻¹)
eigval :       -0.00    -0.00    -0.00    -0.00     0.00     0.00
eigval :        5.68     8.49    10.90    30.27    33.05    44.19
eigval :       49.02    55.01    60.39    75.61    79.93    94.21
eigval :       98.48   115.39   117.39   139.64   153.50   176.06
eigval :      189.00   203.75   211.52   231.01   241.63   253.35
eigval :      263.36   270.82   275.08   308.11   330.56   339.46
eigval :      361.25   370.90   374.16   380.21   382.36   392.19
eigval :      394.26   404.49   409.39   411.60   423.79   436.22
eigval :      441.77   451.89   461.75   471.18   498.57   508.27
eigval :      514.25   529.76   535.54   552.34   566.39   574.68
eigval :      586.88   590.71   595.23   600.60   611.13   622.38
eigval :      629.18   635.06   637.63   650.17   668.23   674.31
eigval :      702.89   707.06   723.47   740.39   747.95   760.13
eigval :      774.89   783.42   787.56   800.49   819.54   841.30
eigval :      841.70   846.34   846.95   865.10   869.85   879.76
eigval :      885.69   889.01   891.32   892.43   893.02   896.46
eigval :      897.16   899.38   902.66   904.88   907.01   912.61
eigval :      922.02   922.38   930.40   932.57   978.73   996.51
eigval :     1014.21  1039.90  1047.22  1053.33  1063.90  1068.77
eigval :     1078.50  1083.28  1113.50  1115.42  1116.48  1120.32
eigval :     1121.30  1140.40  1158.16  1160.25  1167.26  1169.30
eigval :     1174.67  1176.91  1178.19  1187.05  1187.63  1195.46
eigval :     1215.62  1223.30  1224.63  1236.82  1245.54  1255.61
eigval :     1267.11  1272.82  1300.37  1307.02  1307.80  1315.31
eigval :     1321.74  1337.87  1342.51  1351.83  1353.07  1361.31
eigval :     1365.21  1371.62  1405.09  1412.28  1413.30  1417.17
eigval :     1421.91  1423.13  1432.33  1445.39  1447.76  1450.17
eigval :     1465.70  1472.00  1477.82  1480.80  1493.86  1523.05
eigval :     1557.47  1564.55  1578.33  1582.99  1589.52  1597.97
eigval :     3076.59  3077.80  3079.76  3082.46  3084.98  3087.30
eigval :     3088.36  3090.59  3091.77  3092.24  3097.01  3098.18
eigval :     3098.74  3099.05  3100.91  3101.18  3101.40  3102.10
eigval :     3103.34  3104.42  3108.22  3108.42  3115.47  3116.27

   temp. (K)  partition function   enthalpy   heat capacity  entropy
                                   cal/mol     cal/K/mol   cal/K/mol   J/K/mol
 298.15  VIB  0.586E+16            19689.977    125.087    123.255
         ROT  0.613E+08              888.752      2.981     38.615
         INT  0.359E+24            20578.730    128.067    161.870
         TR   0.130E+29             1481.254      4.968     44.858
         TOT                       22059.9834   133.0356   206.7274   864.9476

       T/K    H(0)-H(T)+PV         H(T)/Eh          T*S/Eh         G(T)/Eh
   ------------------------------------------------------------------------
    298.15    0.351548E-01    0.521485E+00    0.982229E-01    0.423262E+00
   ------------------------------------------------------------------------

         :::::::::::::::::::::::::::::::::::::::::::::::::::::
         ::                  THERMODYNAMIC                  ::
         :::::::::::::::::::::::::::::::::::::::::::::::::::::
         :: total free energy        -110.181694999990 Eh   ::
         ::.................................................::
         :: total energy             -110.604957166159 Eh   ::
         :: zero point energy           0.486330225603 Eh   ::
         :: G(RRHO) w/o ZPVE           -0.063068059435 Eh   ::
         :: G(RRHO) contrib.            0.423262166168 Eh   ::
         :::::::::::::::::::::::::::::::::::::::::::::::::::::

           -------------------------------------------------
          | TOTAL ENERGY             -110.604957166159 Eh   |
          | TOTAL ENTHALPY           -110.083472119245 Eh   |
          | TOTAL FREE ENERGY        -110.181694999990 Eh   |
          | GRADIENT NORM               0.000068066191 Eh/α |
          | HOMO-LUMO GAP               0.040318649687 eV   |
           -------------------------------------------------

 * finished run on 2025/07/20 at 14:22:54.548
