   * xtb version 6.7.1 (edcfbbe) compiled by 'albert@albert-system' on 2024-07-22

   ID    Z sym.   atoms
    1    8 O      1, 3, 15
    2   16 S      2
    3    6 C      4-7, 9-14, 16-35, 37-42
    4    7 N      8, 36
    5    1 H      43-66

          program call               : xtb data2507/toluene/3CP-DPS-PXZ/3CP-DPS-PXZ.xyz --gfn 2 --gbsa toluene --ohess vtight --parallel 40 --molden --ceasefiles --namespace data2507/toluene/3CP-DPS-PXZ/3CP-DPS-PXZ_toluene_S0_preOpt
      * Solvation model:               GBSA
        Solvent                        toluene
        Solvent mass                       9.2140E+01 g/mol
          :  Hamiltonian                  GFN2-xTB          :
 * total energy  :  -110.6812223 Eh     change       -0.7107417E-09 Eh
 * total energy  :  -110.6930112 Eh     change       -0.1178894E-01 Eh
 * total energy  :  -110.6960316 Eh     change       -0.3020379E-02 Eh
 * total energy  :  -110.6966804 Eh     change       -0.6487580E-03 Eh
 * total energy  :  -110.6971002 Eh     change       -0.4198551E-03 Eh
 * total energy  :  -110.6972718 Eh     change       -0.1715503E-03 Eh
 * total energy  :  -110.6974076 Eh     change       -0.1358477E-03 Eh
 * total energy  :  -110.6975219 Eh     change       -0.1142958E-03 Eh
 * total energy  :  -110.6976278 Eh     change       -0.1058506E-03 Eh
 * total energy  :  -110.6977178 Eh     change       -0.9006111E-04 Eh
 * total energy  :  -110.6987914 Eh     change       -0.4070551E-06 Eh
 * total energy  :  -110.6987919 Eh     change       -0.4962605E-06 Eh
 * total energy  :  -110.6987925 Eh     change       -0.6300521E-06 Eh
 * total energy  :  -110.6987932 Eh     change       -0.7478124E-06 Eh
 * total energy  :  -110.6987941 Eh     change       -0.8255993E-06 Eh
 * total energy  :  -110.6987950 Eh     change       -0.9486588E-06 Eh
 * total energy  :  -110.6987962 Eh     change       -0.1164125E-05 Eh
 * total energy  :  -110.6987974 Eh     change       -0.1212720E-05 Eh
 * total energy  :  -110.6987974 Eh     change       -0.1518669E-07 Eh
   *** GEOMETRY OPTIMIZATION CONVERGED AFTER 94 ITERATIONS ***

 final structure:
================
66
 xtb: 6.7.1 (edcfbbe)
O           -0.01362771216589        3.05103085123707       -3.32204482286910
S           -0.02171379844896        3.10679512582089       -1.87425198990009
O            0.04383978932301        4.42115568606003       -1.26798469548394
C            1.35794869105782        2.13094330635865       -1.26536513523287
C            1.82348397250492        2.34795105504158        0.01838057520936
C            2.85197292946732        1.56626968817738        0.51087505906528
C            3.41096698342331        0.56748226461310       -0.28677745870808
N            4.45959735714034       -0.23054629231176        0.21216491688324
C            4.29763532558151       -1.61424282530911        0.34658133315629
C            3.09094381597977       -2.25038726694043        0.08126957658740
C            2.96260176892065       -3.62330595789114        0.23076663021221
C            4.03300431622571       -4.38233301145644        0.65940685949940
C            5.23482933212383       -3.75843175488805        0.96077538408274
C            5.36660299151542       -2.38939432697271        0.81513222829001
O            6.57826675228072       -1.84179082048980        1.16567303188036
C            6.72064344754772       -0.48069588375821        1.03107645309229
C            7.94906946137809        0.05433290888606        1.37357960847759
C            8.18328787153327        1.41476386194951        1.23656265251810
C            7.18630961161184        2.22820841258768        0.73662608266297
C            5.95246443478482        1.69614296050718        0.39281109734776
C            5.69056690691020        0.34100286078688        0.55421302904372
C            2.93212457667855        0.36224815492653       -1.58082947344043
C            1.90065086142896        1.14373379080306       -2.06685363366825
C           -1.46197395231740        2.24431185723114       -1.26129561100925
C           -2.05218161151344        2.67350892664146       -0.07694940991603
C           -3.14003792776844        2.00581742776779        0.44774109984252
C           -3.61129987381552        0.88977726556548       -0.23775301630898
C           -3.01356101044072        0.46435426657073       -1.45514556733793
C           -1.92154883021726        1.15072362092006       -1.96505609413787
C           -3.76961080782563       -0.67057008785180       -1.90357268799679
C           -3.66838831126107       -1.51434701722790       -3.00371420380085
C           -4.57514499378682       -2.54770774486473       -3.12661471245868
C           -5.56454455417921       -2.75326643296490       -2.16557460001531
C           -5.68486004099813       -1.92801667838484       -1.06401153124420
C           -4.78857433649484       -0.87454470793631       -0.94496399999329
N           -4.67544735870115        0.07554095535477        0.05256215665720
C           -5.52369261929908        0.19451666217891        1.17142233344447
C           -4.98573554400631        0.22531916607283        2.45368654128468
C           -5.82348932450575        0.34619861512856        3.54811094764571
C           -7.19519989248355        0.42736838804537        3.37187111423111
C           -7.73054231619288        0.39207654539940        2.09460176445093
C           -6.90039254590116        0.28065839905906        0.99339496990164
H            1.38120039291743        3.13328328994713        0.61034815910335
H            3.22501722645159        1.72015374197952        1.51208553346095
H            2.24119300374665       -1.66841904904844       -0.23855754302672
H            2.01463503559590       -4.09006141698717        0.01140339017219
H            3.94148015949283       -5.45100446195787        0.77306887637342
H            6.08539262619526       -4.31787423364405        1.31734883124452
H            8.71212605269785       -0.61357401173527        1.74149679458382
H            9.14343419798324        1.82335997526802        1.50934424033168
H            7.35842886323630        3.28541552403361        0.60492682441266
H            5.19029346684367        2.34197207041052       -0.01360144874610
H            3.37572606842194       -0.40374505575606       -2.19866212553893
H            1.52377582280690        1.01979869361812       -3.06972235935352
H           -1.65000136971710        3.55195044355750        0.40209985794054
H           -3.61518903963438        2.34746271735639        1.35368391646761
H           -1.44764425656281        0.87151319978975       -2.89201458582377
H           -2.89488442089529       -1.36052312766944       -3.74053770458466
H           -4.51734622310178       -3.21361407661405       -3.97472149433892
H           -6.25151319611391       -3.57805729379822       -2.28450501751029
H           -6.44553018312097       -2.10225439014604       -0.31864770825723
H           -3.91723408873938        0.14398573962299        2.58615651305852
H           -5.40281870552521        0.36995413909220        4.54238192704979
H           -7.84597240435349        0.51817806803268        4.22845631073919
H           -8.79894315413480        0.45891223642313        1.95290538339247
H           -7.31086670958812        0.27053406376610       -0.00526337309082

          :  Hamiltonian                  GFN2-xTB          :
         :: gradient norm              0.000091011011 Eh/a0 ::
         :: HOMO-LUMO gap              2.156595928299 eV    ::
         :: SCC energy              -112.563367475277 Eh    ::
         :: -> dispersion             -0.091769834570 Eh    ::
         :: -> Gsolv                  -0.053137214846 Eh    ::
         :: repulsion energy           1.864570063487 Eh    ::

    * Orbital Energies and Occupations

         #    Occupation            Energy/Eh            Energy/eV
      -------------------------------------------------------------
         1        2.0000           -0.7732707             -21.0418
       ...           ...                  ...                  ...
        89        2.0000           -0.4287138             -11.6659
        90        2.0000           -0.4278576             -11.6426
        91        2.0000           -0.4261577             -11.5963
        92        2.0000           -0.4216968             -11.4750
        93        2.0000           -0.4182014             -11.3798
        94        2.0000           -0.4165298             -11.3344
        95        2.0000           -0.4154852             -11.3059
        96        2.0000           -0.4152289             -11.2990
        97        2.0000           -0.4074665             -11.0877
        98        2.0000           -0.3932248             -10.7002
        99        2.0000           -0.3928954             -10.6912
       100        2.0000           -0.3756025             -10.2207
       101        2.0000           -0.3474328              -9.4541 (HOMO)
       102                         -0.2681792              -7.2975 (LUMO)
       103                         -0.2605592              -7.0902
       104                         -0.2523611              -6.8671
       105                         -0.2459335              -6.6922
       106                         -0.2409221              -6.5558
       107                         -0.2367011              -6.4410
       108                         -0.2350388              -6.3957
       109                         -0.2322878              -6.3209
       110                         -0.2177908              -5.9264
       111                         -0.2094795              -5.7002
       112                         -0.1988638              -5.4114
       ...                                ...                  ...
       197                          1.1617126              31.6118
      -------------------------------------------------------------
                  HL-Gap            0.0792536 Eh            2.1566 eV

     #   Z          covCN         q      C6AA      α(0)
     1   8 O        0.860    -0.580    25.623     6.787
     2  16 S        3.826     0.930   108.693    17.547
     3   8 O        0.860    -0.579    25.609     6.785
     4   6 C        2.970    -0.076    29.893     8.968
     5   6 C        2.956    -0.025    28.620     8.775
     6   6 C        2.923    -0.036    28.885     8.814
     7   6 C        2.920     0.073    26.371     8.421
     8   7 N        2.751    -0.067    22.529     7.049
     9   6 C        2.921     0.040    27.098     8.537
    10   6 C        2.923    -0.061    29.514     8.909
    11   6 C        2.919    -0.038    28.954     8.824
    12   6 C        2.919    -0.040    28.994     8.830
    13   6 C        2.919    -0.057    29.421     8.895
    14   6 C        2.882     0.124    25.285     8.244
    15   8 O        1.708    -0.269    18.454     5.800
    16   6 C        2.882     0.124    25.287     8.244
    17   6 C        2.919    -0.057    29.422     8.895
    18   6 C        2.919    -0.040    28.995     8.830
    19   6 C        2.919    -0.038    28.952     8.824
    20   6 C        2.923    -0.061    29.511     8.909
    21   6 C        2.920     0.040    27.093     8.536
    22   6 C        2.923    -0.035    28.880     8.813
    23   6 C        2.954    -0.024    28.600     8.772
    24   6 C        2.972    -0.086    30.159     9.008
    25   6 C        2.961    -0.033    28.818     8.805
    26   6 C        2.911    -0.046    29.139     8.852
    27   6 C        3.075     0.052    26.764     8.482
    28   6 C        3.072    -0.011    28.206     8.708
    29   6 C        2.957    -0.032    28.790     8.801
    30   6 C        3.065    -0.015    28.327     8.728
    31   6 C        2.912    -0.031    28.781     8.797
    32   6 C        2.920    -0.038    28.952     8.824
    33   6 C        2.924    -0.031    28.763     8.795
    34   6 C        2.909    -0.047    29.179     8.857
    35   6 C        3.080     0.048    26.847     8.495
    36   7 N        2.803    -0.028    21.782     6.932
    37   6 C        2.914     0.060    26.648     8.465
    38   6 C        2.922    -0.041    29.027     8.835
    39   6 C        2.920    -0.026    28.658     8.779
    40   6 C        2.919    -0.030    28.753     8.793
    41   6 C        2.920    -0.026    28.657     8.779
    42   6 C        2.922    -0.040    28.992     8.830
    43   1 H        0.926     0.062     2.172     2.305
    44   1 H        0.926     0.067     2.115     2.274
    45   1 H        0.926     0.040     2.446     2.446
    46   1 H        0.926     0.044     2.397     2.421
    47   1 H        0.926     0.044     2.392     2.419
    48   1 H        0.926     0.050     2.321     2.382
    49   1 H        0.926     0.050     2.317     2.380
    50   1 H        0.926     0.044     2.398     2.421
    51   1 H        0.926     0.042     2.419     2.432
    52   1 H        0.926     0.039     2.464     2.454
    53   1 H        0.926     0.067     2.123     2.279
    54   1 H        0.926     0.063     2.163     2.300
    55   1 H        0.926     0.053     2.278     2.360
    56   1 H        0.926     0.057     2.234     2.337
    57   1 H        0.926     0.052     2.296     2.370
    58   1 H        0.926     0.038     2.480     2.463
    59   1 H        0.926     0.037     2.486     2.466
    60   1 H        0.926     0.040     2.448     2.447
    61   1 H        0.926     0.041     2.438     2.442
    62   1 H        0.926     0.045     2.378     2.412
    63   1 H        0.926     0.045     2.386     2.415
    64   1 H        0.926     0.043     2.403     2.424
    65   1 H        0.926     0.045     2.389     2.417
    66   1 H        0.926     0.046     2.372     2.409

molecular dipole:
                 x           y           z       tot (Debye)
 q only:       -1.696      -2.542       2.092
   full:       -1.696      -2.292       1.985       8.830

 projected vibrational frequencies (cm⁻¹)
eigval :       -0.00    -0.00    -0.00     0.00     0.00     0.00
eigval :      -10.34     6.49     9.35    25.98    31.96    46.55
eigval :       47.84    55.77    59.14    63.19    80.05    96.48
eigval :      115.07   115.62   120.10   138.85   157.57   177.99
eigval :      193.82   197.49   219.88   237.78   245.82   258.65
eigval :      263.64   269.82   283.11   308.18   336.50   348.10
eigval :      365.38   371.87   372.95   380.02   389.92   399.65
eigval :      404.35   407.85   421.26   425.62   428.97   444.25
eigval :      448.50   474.91   482.06   504.49   508.87   517.40
eigval :      521.40   537.94   548.12   560.22   569.83   585.98
eigval :      587.75   590.90   600.52   603.28   611.92   642.30
eigval :      656.24   659.20   661.45   671.86   676.88   685.54
eigval :      709.30   716.92   725.79   762.92   776.14   778.72
eigval :      779.17   798.38   803.26   813.52   822.35   853.43
eigval :      865.00   866.83   868.25   872.36   878.03   881.49
eigval :      896.85   897.78   898.24   903.53   907.64   910.97
eigval :      912.33   914.21   915.43   916.07   921.88   922.49
eigval :      925.67   928.34   933.17   933.63   996.91  1002.54
eigval :     1014.58  1061.79  1067.29  1078.15  1088.45  1090.67
eigval :     1091.88  1105.58  1109.37  1113.84  1114.98  1121.43
eigval :     1121.77  1139.95  1165.28  1170.75  1173.59  1174.22
eigval :     1177.07  1177.76  1184.67  1185.83  1194.15  1197.87
eigval :     1212.45  1217.99  1237.05  1239.46  1246.60  1259.11
eigval :     1269.62  1272.87  1301.81  1302.94  1303.70  1314.71
eigval :     1314.78  1330.82  1350.64  1352.05  1354.19  1367.76
eigval :     1393.48  1413.87  1421.51  1426.16  1432.52  1439.45
eigval :     1456.05  1462.53  1478.56  1479.25  1481.90  1500.50
eigval :     1561.54  1565.85  1567.08  1572.73  1578.91  1579.53
eigval :     1582.86  1586.29  1587.56  1592.07  1600.98  1607.52
eigval :     3078.27  3080.10  3082.19  3084.56  3087.32  3088.95
eigval :     3089.80  3092.26  3093.73  3093.94  3094.44  3096.53
eigval :     3097.37  3097.92  3098.50  3099.88  3104.81  3105.22
eigval :     3106.23  3107.78  3108.92  3109.41  3110.42  3110.45

   temp. (K)  partition function   enthalpy   heat capacity  entropy
                                   cal/mol     cal/K/mol   cal/K/mol   J/K/mol
 298.15  VIB  0.420E+16            19394.675    123.017    121.412
         ROT  0.688E+08              888.752      2.981     38.845
         INT  0.289E+24            20283.427    125.998    160.258
         TR   0.130E+29             1481.254      4.968     44.858
         TOT                       21764.6812   130.9660   205.1152   858.2019

       T/K    H(0)-H(T)+PV         H(T)/Eh          T*S/Eh         G(T)/Eh
   ------------------------------------------------------------------------
    298.15    0.346842E-01    0.525646E+00    0.974568E-01    0.428190E+00
   ------------------------------------------------------------------------

         :::::::::::::::::::::::::::::::::::::::::::::::::::::
         ::                  THERMODYNAMIC                  ::
         :::::::::::::::::::::::::::::::::::::::::::::::::::::
         :: total free energy        -110.270607829185 Eh   ::
         ::.................................................::
         :: total energy             -110.698797413989 Eh   ::
         :: zero point energy           0.490962199537 Eh   ::
         :: G(RRHO) w/o ZPVE           -0.062772614732 Eh   ::
         :: G(RRHO) contrib.            0.428189584805 Eh   ::
         :::::::::::::::::::::::::::::::::::::::::::::::::::::

           -------------------------------------------------
          | TOTAL ENERGY             -110.698797413989 Eh   |
          | TOTAL ENTHALPY           -110.173150987148 Eh   |
          | TOTAL FREE ENERGY        -110.270607829185 Eh   |
          | GRADIENT NORM               0.000091029221 Eh/α |
          | HOMO-LUMO GAP               2.156599534136 eV   |
           -------------------------------------------------

 * finished run on 2025/07/20 at 14:06:19.252
