   * xtb version 6.7.1 (edcfbbe) compiled by 'albert@albert-system' on 2024-07-22

   ID    Z sym.   atoms
    1    6 C      1-5, 7-9, 11-16, 18-24, 26, 28-33, 36
    2    7 N      6, 10, 25, 27, 34, 35
    3    8 O      17
    4    1 H      37-54

          program call               : xtb data2507/toluene/DPP-PXZ/DPP-PXZ_toluene_S0_finalOpt.xtbopt.xyz --gfn 2 --uhf 2 --gbsa toluene --ohess vtight --parallel 40 --molden --ceasefiles --namespace data2507/toluene/DPP-PXZ/DPP-PXZ_toluene_T1_preOpt
      * Solvation model:               GBSA
        Solvent                        toluene
        Solvent mass                       9.2140E+01 g/mol
          :  Hamiltonian                  GFN2-xTB          :
 * total energy  :   -92.8941676 Eh     change       -0.1780251E-08 Eh
 * total energy  :   -92.8977954 Eh     change       -0.3627838E-02 Eh
 * total energy  :   -92.8991351 Eh     change       -0.1339670E-02 Eh
 * total energy  :   -92.8993481 Eh     change       -0.2129947E-03 Eh
 * total energy  :   -92.8994879 Eh     change       -0.1398221E-03 Eh
 * total energy  :   -92.8995309 Eh     change       -0.4303708E-04 Eh
 * total energy  :   -92.8995804 Eh     change       -0.4949048E-04 Eh
 * total energy  :   -92.8996298 Eh     change       -0.4931773E-04 Eh
 * total energy  :   -92.8996649 Eh     change       -0.3516307E-04 Eh
 * total energy  :   -92.8996829 Eh     change       -0.1796979E-04 Eh
 * total energy  :   -92.8998055 Eh     change       -0.2052556E-05 Eh
 * total energy  :   -92.8998065 Eh     change       -0.9665287E-06 Eh
 * total energy  :   -92.8998071 Eh     change       -0.5813160E-06 Eh
 * total energy  :   -92.8998076 Eh     change       -0.5816956E-06 Eh
 * total energy  :   -92.8998084 Eh     change       -0.7331864E-06 Eh
 * total energy  :   -92.8998094 Eh     change       -0.1023402E-05 Eh
 * total energy  :   -92.8998103 Eh     change       -0.9177160E-06 Eh
 * total energy  :   -92.8998107 Eh     change       -0.4021925E-06 Eh
 * total energy  :   -92.8998108 Eh     change       -0.6292896E-07 Eh
   *** GEOMETRY OPTIMIZATION CONVERGED AFTER 37 ITERATIONS ***

 final structure:
================
54
 xtb: 6.7.1 (edcfbbe)
C           -5.72592105386485        2.18942590464130       -2.59560606129643
C           -4.76573064388097        3.00707803443182       -2.01704212837333
C           -3.74097199471558        2.42579228454086       -1.29305992211618
C           -3.72490726771586        1.03730991126278       -1.16001666839553
C           -2.65346866404171        0.36822704583911       -0.41640761050695
N           -1.40146008837921        0.74157131485620       -0.64623463438962
C           -0.38318360864326        0.07786276062550       -0.09095507942348
C            0.94646956082446        0.41046194092344       -0.31048390206493
C            1.95719131307547       -0.38502931059156        0.25075443914558
N            3.31848877709184       -0.07552691381634        0.06788314299252
C            4.15547580002216       -0.95257039187988       -0.61856229992473
C            3.67197502937582       -2.08559927067666       -1.26804323412384
C            4.53213716637291       -2.92951606852451       -1.94849913196988
C            5.88850094289206       -2.65575946606209       -2.00067765669973
C            6.38456027250221       -1.52166313767300       -1.37989326530644
C            5.52910505121637       -0.67097126183718       -0.69863124166671
O            6.07939507468579        0.44452989147090       -0.12999223205139
C            5.24779278438315        1.29508449480865        0.54483612599574
C            5.82281094285417        2.41531457158270        1.12248981922710
C            5.04091382318535        3.31020572118799        1.83368581954609
C            3.68403254820360        3.07463020733297        1.97473590926436
C            3.10255950265789        1.95718960631866        1.40113605221743
C            3.86881396369947        1.05668906598061        0.66580480871926
C            1.58403445442474       -1.49229097899983        0.99935574905262
N            0.32047856879491       -1.82114810242617        1.21326444306125
C           -0.67113716448773       -1.08907294175568        0.73112088514830
N           -1.92956044433841       -1.38899241778449        1.00523792589817
C           -2.92932407304393       -0.66667489469556        0.49118176532957
C           -4.28434065950999       -0.93923030815564        0.94822402410766
C           -4.65139674516608       -2.23233174931891        1.33544524959643
C           -5.94530583069752       -2.45191191355467        1.76483775932972
C           -6.83087603495006       -1.38252566170472        1.80743627565715
C           -6.36203692782316       -0.13324441990081        1.42928802795958
N           -5.12890687968836        0.08957823831893        1.01658925538594
N           -4.63207539682893        0.25209333213315       -1.73505294166480
C           -5.60181636712735        0.81810660168590       -2.42895829595811
H           -6.54351725633640        2.60145783647283       -3.16536632064385
H           -4.81453629473372        4.08023186602434       -2.13113487616112
H           -2.96721354186285        3.01550641599679       -0.82728836491121
H            1.18962517600340        1.25039610147292       -0.94111350677794
H            2.61543372867948       -2.30156975863416       -1.23973653452857
H            4.13318755426257       -3.80262406956356       -2.44042121894618
H            6.55931683476971       -3.31510426833124       -2.52755194924025
H            7.43307113257773       -1.27258971958060       -1.41205135071764
H            6.88449057997532        2.56189769630957        1.00498164743081
H            5.49420416570584        4.18034409018058        2.28065260615903
H            3.06782205501224        3.75825607175357        2.53728874658375
H            2.04698561925310        1.77571359958963        1.52722511854021
H            2.32120671678256       -2.13995416496809        1.45235748715172
H           -3.91976165660279       -3.02315042401740        1.28544973362257
H           -6.26238338785368       -3.44064766669230        2.06304091460226
H           -7.85084703289344       -1.51148834069704        2.13257076935899
H           -6.99962485054671        0.74150461147043        1.46243763674489
H           -6.30975137830283        0.13025886399825       -2.87400499529972

          :  Hamiltonian                  GFN2-xTB          :
         :: gradient norm              0.000164365120 Eh/a0 ::
         :: HOMO-LUMO gap              0.959768741914 eV    ::
         :: SCC energy               -94.450091204650 Eh    ::
         :: -> dispersion             -0.073776353079 Eh    ::
         :: -> Gsolv                  -0.048235590978 Eh    ::
         :: repulsion energy           1.550280420433 Eh    ::

    * Orbital Energies and Occupations

         #    Occupation            Energy/Eh            Energy/eV
      -------------------------------------------------------------
         1        2.0000           -0.7512178             -20.4417
       ...           ...                  ...                  ...
        74        2.0000           -0.4358635             -11.8605
        75        2.0000           -0.4342363             -11.8162
        76        2.0000           -0.4328587             -11.7787
        77        2.0000           -0.4303885             -11.7115
        78        2.0000           -0.4218141             -11.4781
        79        2.0000           -0.4137188             -11.2579
        80        2.0000           -0.4095341             -11.1440
        81        2.0000           -0.4067258             -11.0676
        82        2.0000           -0.3813110             -10.3760
        83        2.0000           -0.3800598             -10.3420
        84        1.9884           -0.3645929              -9.9211
        85        1.0116           -0.3561504              -9.6913
        86        1.0000           -0.3176917              -8.6448 (HOMO)
        87                         -0.2824207              -7.6851 (LUMO)
        88                         -0.2572967              -7.0014
        89                         -0.2559765              -6.9655
        90                         -0.2539967              -6.9116
        91                         -0.2465505              -6.7090
        92                         -0.2433530              -6.6220
        93                         -0.2408278              -6.5533
        94                         -0.2304600              -6.2711
        95                         -0.2261736              -6.1545
        96                         -0.2133773              -5.8063
        97                         -0.1763224              -4.7980
       ...                                ...                  ...
       162                          0.6630158              18.0416
      -------------------------------------------------------------
                  HL-Gap            0.0352710 Eh            0.9598 eV

     #   Z          covCN         q      C6AA      α(0)
     1   6 C        2.914    -0.041    29.031     8.835
     2   6 C        2.928    -0.010    28.274     8.720
     3   6 C        2.918    -0.041    29.024     8.834
     4   6 C        2.969     0.110    25.579     8.296
     5   6 C        2.943     0.100    25.777     8.327
     6   7 N        1.849    -0.271    27.897     7.828
     7   6 C        2.944     0.086    26.093     8.378
     8   6 C        2.923    -0.071    29.778     8.949
     9   6 C        2.914     0.040    27.099     8.536
    10   7 N        2.751    -0.043    22.072     6.978
    11   6 C        2.923     0.042    27.068     8.532
    12   6 C        2.922    -0.053    29.305     8.877
    13   6 C        2.918    -0.032    28.792     8.799
    14   6 C        2.919    -0.031    28.775     8.797
    15   6 C        2.918    -0.052    29.294     8.876
    16   6 C        2.884     0.129    25.179     8.226
    17   8 O        1.709    -0.235    17.898     5.712
    18   6 C        2.884     0.129    25.179     8.226
    19   6 C        2.918    -0.052    29.298     8.876
    20   6 C        2.919    -0.031    28.778     8.797
    21   6 C        2.918    -0.032    28.803     8.801
    22   6 C        2.922    -0.053    29.307     8.878
    23   6 C        2.924     0.043    27.042     8.528
    24   6 C        2.889     0.037    27.177     8.547
    25   7 N        1.845    -0.247    27.303     7.744
    26   6 C        2.915     0.183    24.082     8.047
    27   7 N        1.853    -0.266    27.774     7.811
    28   6 C        2.945     0.092    25.954     8.356
    29   6 C        2.966     0.102    25.741     8.322
    30   6 C        2.919    -0.042    29.040     8.837
    31   6 C        2.927    -0.011    28.298     8.724
    32   6 C        2.914    -0.043    29.071     8.841
    33   6 C        2.905     0.063    26.580     8.454
    34   7 N        1.843    -0.259    27.597     7.785
    35   7 N        1.843    -0.254    27.470     7.768
    36   6 C        2.908     0.064    26.573     8.453
    37   1 H        0.926     0.055     2.262     2.352
    38   1 H        0.926     0.056     2.245     2.343
    39   1 H        0.926     0.046     2.372     2.409
    40   1 H        0.926     0.058     2.220     2.330
    41   1 H        0.926     0.040     2.442     2.444
    42   1 H        0.926     0.056     2.250     2.345
    43   1 H        0.926     0.060     2.194     2.316
    44   1 H        0.926     0.066     2.125     2.279
    45   1 H        0.926     0.066     2.126     2.280
    46   1 H        0.926     0.060     2.198     2.318
    47   1 H        0.926     0.055     2.261     2.351
    48   1 H        0.926     0.041     2.432     2.439
    49   1 H        0.926     0.054     2.269     2.355
    50   1 H        0.926     0.050     2.317     2.380
    51   1 H        0.926     0.055     2.264     2.353
    52   1 H        0.926     0.053     2.284     2.363
    53   1 H        0.925     0.040     2.448     2.447
    54   1 H        0.925     0.043     2.414     2.429

molecular dipole:
                 x           y           z       tot (Debye)
 q only:        1.594       0.653      -0.323
   full:        1.386       0.824      -0.382       4.213

 projected vibrational frequencies (cm⁻¹)
eigval :       -0.00    -0.00    -0.00     0.00     0.00     0.00
eigval :        8.77    19.60    22.62    30.20    41.07    49.83
eigval :       56.59    59.74    77.19    83.17   113.22   136.07
eigval :      139.98   155.38   178.92   207.66   219.26   246.53
eigval :      255.71   256.50   267.94   297.82   303.50   340.64
eigval :      353.46   367.90   377.26   388.66   397.92   408.30
eigval :      427.92   431.20   453.01   456.81   463.78   502.79
eigval :      509.19   516.94   525.99   541.04   557.21   564.19
eigval :      573.62   580.49   590.18   599.11   614.24   620.03
eigval :      649.55   665.78   668.50   672.56   692.51   704.18
eigval :      705.67   708.65   726.67   765.36   769.94   771.41
eigval :      780.35   780.89   786.50   834.71   836.79   853.40
eigval :      855.95   866.78   872.41   882.60   884.81   901.35
eigval :      905.00   911.97   912.77   915.55   915.96   919.91
eigval :      927.64   929.88   942.99   987.12  1004.70  1015.46
eigval :     1084.63  1086.13  1086.37  1087.73  1105.26  1111.59
eigval :     1113.74  1116.66  1129.47  1155.23  1156.09  1160.69
eigval :     1170.67  1170.86  1180.38  1197.59  1206.21  1232.48
eigval :     1234.78  1238.53  1240.72  1244.36  1255.67  1269.74
eigval :     1283.76  1285.01  1291.48  1297.84  1308.61  1318.24
eigval :     1327.06  1340.01  1360.80  1383.14  1398.95  1409.04
eigval :     1412.96  1417.20  1432.50  1438.58  1443.04  1449.78
eigval :     1463.07  1479.28  1485.46  1510.67  1540.60  1549.50
eigval :     1560.16  1565.72  1565.86  1568.58  1576.86  1586.75
eigval :     3047.09  3049.30  3069.58  3075.59  3076.04  3095.75
eigval :     3095.79  3098.19  3100.18  3100.97  3101.25  3102.41
eigval :     3102.81  3103.16  3108.54  3109.76  3115.74  3116.32

   temp. (K)  partition function   enthalpy   heat capacity  entropy
                                   cal/mol     cal/K/mol   cal/K/mol   J/K/mol
 298.15  VIB  0.167E+13            15683.971     99.934     97.156
         ROT  0.364E+08              888.752      2.981     37.579
         INT  0.608E+20            16572.724    102.915    134.735
         TR   0.975E+28             1481.254      4.968     44.289
         TOT                       18053.9777   107.8833   179.0238   749.0357

       T/K    H(0)-H(T)+PV         H(T)/Eh          T*S/Eh         G(T)/Eh
   ------------------------------------------------------------------------
    298.15    0.287708E-01    0.420775E+00    0.850600E-01    0.335715E+00
   ------------------------------------------------------------------------

         :::::::::::::::::::::::::::::::::::::::::::::::::::::
         ::                  THERMODYNAMIC                  ::
         :::::::::::::::::::::::::::::::::::::::::::::::::::::
         :: total free energy         -92.564095762623 Eh   ::
         ::.................................................::
         :: total energy              -92.899810785342 Eh   ::
         :: zero point energy           0.392004176714 Eh   ::
         :: G(RRHO) w/o ZPVE           -0.056289153995 Eh   ::
         :: G(RRHO) contrib.            0.335715022719 Eh   ::
         :::::::::::::::::::::::::::::::::::::::::::::::::::::

           -------------------------------------------------
          | TOTAL ENERGY              -92.899810785342 Eh   |
          | TOTAL ENTHALPY            -92.479035763827 Eh   |
          | TOTAL FREE ENERGY         -92.564095762623 Eh   |
          | GRADIENT NORM               0.000165732536 Eh/α |
          | HOMO-LUMO GAP               0.959772113511 eV   |
           -------------------------------------------------

 * finished run on 2025/07/20 at 19:00:13.643
