   * xtb version 6.7.1 (edcfbbe) compiled by 'albert@albert-system' on 2024-07-22

   ID    Z sym.   atoms
    1    6 C      1-5, 7-9, 11-16, 18-24, 26, 28-33, 36
    2    7 N      6, 10, 25, 27, 34, 35
    3    8 O      17
    4    1 H      37-54

          program call               : xtb data2507/toluene/DPP-PXZ/DPP-PXZ_toluene_S0_crest.xyz --gfn 2 --gbsa toluene --ohess vtight --parallel 40 --molden --ceasefiles --namespace data2507/toluene/DPP-PXZ/DPP-PXZ_toluene_S0_finalOpt
      * Solvation model:               GBSA
        Solvent                        toluene
        Solvent mass                       9.2140E+01 g/mol
          :  Hamiltonian                  GFN2-xTB          :
 * total energy  :   -92.9376062 Eh     change       -0.2273197E-08 Eh
 * total energy  :   -92.9376891 Eh     change       -0.8297781E-04 Eh
 * total energy  :   -92.9377327 Eh     change       -0.4359577E-04 Eh
 * total energy  :   -92.9377547 Eh     change       -0.2197797E-04 Eh
 * total energy  :   -92.9377698 Eh     change       -0.1508260E-04 Eh
 * total energy  :   -92.9377913 Eh     change       -0.2149069E-04 Eh
 * total energy  :   -92.9378022 Eh     change       -0.1095965E-04 Eh
 * total energy  :   -92.9378094 Eh     change       -0.7152870E-05 Eh
 * total energy  :   -92.9378136 Eh     change       -0.4170368E-05 Eh
 * total energy  :   -92.9378160 Eh     change       -0.2424562E-05 Eh
 * total energy  :   -92.9378194 Eh     change       -0.8298637E-06 Eh
 * total energy  :   -92.9378201 Eh     change       -0.7129561E-06 Eh
 * total energy  :   -92.9378208 Eh     change       -0.6840736E-06 Eh
 * total energy  :   -92.9378214 Eh     change       -0.5881335E-06 Eh
 * total energy  :   -92.9378218 Eh     change       -0.3951708E-06 Eh
 * total energy  :   -92.9378221 Eh     change       -0.2835093E-06 Eh
 * total energy  :   -92.9378223 Eh     change       -0.2827685E-06 Eh
 * total energy  :   -92.9378226 Eh     change       -0.2599542E-06 Eh
 * total energy  :   -92.9378226 Eh     change       -0.3382354E-07 Eh
   *** GEOMETRY OPTIMIZATION CONVERGED AFTER 21 ITERATIONS ***

 final structure:
================
54
 xtb: 6.7.1 (edcfbbe)
C           -5.75581299731810        2.19228898090596       -2.49842094460152
C           -4.77273308910334        3.01738654714496       -1.97318407066801
C           -3.72077884689883        2.44395068680669       -1.28008008494866
C           -3.70450262893286        1.05946707949750       -1.12537203738849
C           -2.61676828697642        0.38978585128543       -0.40417087182344
N           -1.38860467917008        0.79174857578724       -0.62027938236087
C           -0.38562189405988        0.06585536660684       -0.08052191784272
C            0.95258522884612        0.44743262223829       -0.26008731833109
C            1.94333163743260       -0.39483458398660        0.20455774891103
N            3.30192718823644       -0.08704005236484        0.08261479829688
C            4.16714723758991       -0.98054584124377       -0.56715709651795
C            3.70224740796444       -2.10369989814951       -1.24197386706609
C            4.58199660663038       -2.96585348997591       -1.87783294408102
C            5.93950809484023       -2.71028160093109       -1.86794827341817
C            6.41549516579021       -1.57096185703266       -1.23845397996269
C            5.54042378374449       -0.70799559443842       -0.60157185564281
O            6.08124146201953        0.41668060705418       -0.03307938022364
C            5.21998960967376        1.31038482814151        0.55155708358382
C            5.78583722928676        2.45129842972387        1.09450808429110
C            4.99416342598688        3.38534862590173        1.74307740033348
C            3.63632779613571        3.16053000237768        1.85863699850392
C            3.06479222898819        2.02200950732850        1.31175186461886
C            3.83843390486559        1.08959889660931        0.63095600527595
C            1.55023512224144       -1.60633095003586        0.83124009208860
N            0.31742063752721       -1.96690667599400        1.03202070090059
C           -0.66555253539103       -1.14915181001368        0.61069448612607
N           -1.92937791953055       -1.48412861700260        0.90922507734406
C           -2.89214992738420       -0.71064488624953        0.46763104252961
C           -4.25740148368175       -0.96843358901586        0.93289097162782
C           -4.71311224185357       -2.27059684565960        1.13160060639822
C           -6.00999149382363       -2.45401242045758        1.57827044927891
C           -6.79680492715957       -1.33810999693858        1.82280960503829
C           -6.23993647989500       -0.08441687634937        1.61390699570642
N           -5.00728042985984        0.10455453308296        1.18041797640488
N           -4.64012745637819        0.26430883800846       -1.64108444070638
C           -5.63280499698891        0.82327556731957       -2.30832154966799
H           -6.59269074830121        2.59626264280498       -3.04547163628729
H           -4.82311457365664        4.08827024929246       -2.10426731643576
H           -2.92819203978627        3.03747424863054       -0.85343612359202
H            1.17679514017919        1.37038471701325       -0.77378196423016
H            2.64288860957126       -2.30639389018599       -1.27781797153334
H            4.19169516030217       -3.83393222521958       -2.38554389649285
H            6.62808564667486       -3.37978586835453       -2.35795326218194
H            7.46581797732814       -1.32694711122294       -1.23220024133027
H            6.85248788059282        2.58132027734006        1.00384338944391
H            5.44266939345555        4.27205011701866        2.16148167685439
H            3.00667402557256        3.86573203766989        2.37833632866645
H            2.00607302865395        1.85462396797414        1.43215650854565
H            2.30634167249439       -2.28503575436888        1.20638755632860
H           -4.05298612482400       -3.09870168817536        0.92985812317394
H           -6.39964567713261       -3.44885866295737        1.73598541652506
H           -7.81252046410471       -1.43478583095309        2.17193196962555
H           -6.80235857528441        0.82087783002811        1.80415045242526
H           -6.36174881842945        0.13099711278387       -2.70996884421205

          :  Hamiltonian                  GFN2-xTB          :
         :: gradient norm              0.000095792126 Eh/a0 ::
         :: HOMO-LUMO gap              0.899954548523 eV    ::
         :: SCC energy               -94.485976282210 Eh    ::
         :: -> dispersion             -0.073958328370 Eh    ::
         :: -> Gsolv                  -0.046313677305 Eh    ::
         :: repulsion energy           1.548153653252 Eh    ::

    * Orbital Energies and Occupations

         #    Occupation            Energy/Eh            Energy/eV
      -------------------------------------------------------------
         1        2.0000           -0.7411376             -20.1674
       ...           ...                  ...                  ...
        73        2.0000           -0.4423655             -12.0374
        74        2.0000           -0.4412896             -12.0081
        75        2.0000           -0.4363801             -11.8745
        76        2.0000           -0.4305373             -11.7155
        77        2.0000           -0.4266414             -11.6095
        78        2.0000           -0.4241789             -11.5425
        79        2.0000           -0.4188345             -11.3971
        80        2.0000           -0.4149367             -11.2910
        81        2.0000           -0.4015851             -10.9277
        82        2.0000           -0.3876301             -10.5480
        83        2.0000           -0.3869256             -10.5288
        84        2.0000           -0.3697765             -10.0621
        85        2.0000           -0.3569451              -9.7130 (HOMO)
        86                         -0.3238723              -8.8130 (LUMO)
        87                         -0.2912050              -7.9241
        88                         -0.2628052              -7.1513
        89                         -0.2614022              -7.1131
        90                         -0.2539201              -6.9095
        91                         -0.2498494              -6.7987
        92                         -0.2486388              -6.7658
        93                         -0.2409104              -6.5555
        94                         -0.2372821              -6.4568
        95                         -0.2260156              -6.1502
        96                         -0.2080858              -5.6623
       ...                                ...                  ...
       162                          0.6641365              18.0721
      -------------------------------------------------------------
                  HL-Gap            0.0330728 Eh            0.9000 eV

     #   Z          covCN         q      C6AA      α(0)
     1   6 C        2.914    -0.038    28.944     8.822
     2   6 C        2.928    -0.008    28.230     8.713
     3   6 C        2.918    -0.039    28.969     8.826
     4   6 C        2.971     0.103    25.719     8.319
     5   6 C        2.961     0.111    25.542     8.290
     6   7 N        1.847    -0.268    27.822     7.817
     7   6 C        2.968     0.075    26.328     8.416
     8   6 C        2.923    -0.049    29.216     8.864
     9   6 C        2.914     0.055    26.770     8.484
    10   7 N        2.749    -0.066    22.527     7.049
    11   6 C        2.922     0.038    27.152     8.545
    12   6 C        2.923    -0.057    29.419     8.895
    13   6 C        2.919    -0.036    28.903     8.816
    14   6 C        2.919    -0.036    28.886     8.814
    15   6 C        2.919    -0.055    29.361     8.886
    16   6 C        2.884     0.126    25.243     8.237
    17   8 O        1.709    -0.255    18.229     5.765
    18   6 C        2.884     0.125    25.249     8.238
    19   6 C        2.920    -0.055    29.356     8.885
    20   6 C        2.919    -0.036    28.898     8.815
    21   6 C        2.919    -0.037    28.911     8.817
    22   6 C        2.923    -0.058    29.440     8.898
    23   6 C        2.918     0.039    27.131     8.542
    24   6 C        2.908     0.057    26.713     8.475
    25   7 N        1.841    -0.246    27.269     7.739
    26   6 C        2.960     0.169    24.361     8.096
    27   7 N        1.852    -0.255    27.481     7.770
    28   6 C        2.964     0.110    25.567     8.294
    29   6 C        2.971     0.101    25.759     8.325
    30   6 C        2.918    -0.038    28.952     8.824
    31   6 C        2.927    -0.008    28.224     8.712
    32   6 C        2.914    -0.038    28.934     8.821
    33   6 C        2.908     0.064    26.574     8.453
    34   7 N        1.843    -0.258    27.553     7.779
    35   7 N        1.844    -0.257    27.541     7.778
    36   6 C        2.909     0.064    26.566     8.452
    37   1 H        0.926     0.059     2.212     2.326
    38   1 H        0.926     0.060     2.197     2.318
    39   1 H        0.926     0.052     2.298     2.371
    40   1 H        0.926     0.066     2.131     2.283
    41   1 H        0.926     0.033     2.551     2.497
    42   1 H        0.926     0.050     2.322     2.383
    43   1 H        0.926     0.054     2.270     2.356
    44   1 H        0.926     0.060     2.199     2.319
    45   1 H        0.926     0.060     2.202     2.320
    46   1 H        0.926     0.053     2.277     2.360
    47   1 H        0.926     0.049     2.336     2.390
    48   1 H        0.926     0.034     2.534     2.489
    49   1 H        0.925     0.062     2.175     2.306
    50   1 H        0.926     0.056     2.252     2.347
    51   1 H        0.926     0.061     2.193     2.316
    52   1 H        0.926     0.059     2.208     2.324
    53   1 H        0.925     0.045     2.382     2.413
    54   1 H        0.925     0.045     2.378     2.411

molecular dipole:
                 x           y           z       tot (Debye)
 q only:       -0.265       0.556      -0.292
   full:       -0.470       0.822      -0.417       2.629

 projected vibrational frequencies (cm⁻¹)
eigval :       -0.00    -0.00    -0.00    -0.00     0.00     0.00
eigval :       14.20    19.78    25.60    28.38    41.70    49.20
eigval :       60.19    63.71    78.01    81.49   117.24   137.18
eigval :      140.48   156.95   182.05   212.80   224.22   247.01
eigval :      253.44   261.78   271.28   297.90   311.07   336.31
eigval :      354.09   370.43   375.55   392.84   396.41   401.18
eigval :      429.27   431.25   446.38   457.97   460.56   505.45
eigval :      508.13   519.75   525.22   551.94   564.40   566.35
eigval :      577.59   592.76   594.32   603.26   622.46   627.41
eigval :      660.89   662.57   673.47   690.42   707.23   709.53
eigval :      719.13   730.73   761.49   767.94   778.07   779.86
eigval :      781.69   793.38   843.95   847.08   855.38   867.73
eigval :      869.11   874.02   884.81   888.24   897.73   903.21
eigval :      911.06   911.27   914.35   917.20   917.71   921.88
eigval :      929.45   934.14   963.31   994.48  1003.03  1026.85
eigval :     1087.07  1088.37  1088.92  1089.31  1105.03  1107.86
eigval :     1113.29  1116.95  1123.92  1154.82  1157.05  1160.08
eigval :     1171.06  1181.96  1192.52  1200.90  1205.69  1230.68
eigval :     1239.55  1242.19  1245.42  1260.08  1263.74  1274.53
eigval :     1285.02  1291.89  1300.70  1308.03  1315.22  1326.91
eigval :     1341.00  1371.49  1399.32  1401.43  1412.95  1417.79
eigval :     1423.83  1430.40  1440.07  1453.86  1458.60  1473.44
eigval :     1491.16  1508.00  1517.31  1555.05  1557.27  1567.73
eigval :     1570.50  1571.27  1576.08  1579.48  1587.39  1596.82
eigval :     3051.66  3053.03  3054.02  3080.35  3080.72  3088.79
eigval :     3090.52  3092.13  3098.25  3099.93  3101.88  3102.16
eigval :     3105.57  3105.95  3106.50  3110.23  3113.38  3114.45

   temp. (K)  partition function   enthalpy   heat capacity  entropy
                                   cal/mol     cal/K/mol   cal/K/mol   J/K/mol
 298.15  VIB  0.754E+12            15541.470     99.114     95.839
         ROT  0.361E+08              888.752      2.981     37.564
         INT  0.272E+20            16430.222    102.094    133.403
         TR   0.975E+28             1481.254      4.968     44.289
         TOT                       17911.4763   107.0626   177.6913   743.4603

       T/K    H(0)-H(T)+PV         H(T)/Eh          T*S/Eh         G(T)/Eh
   ------------------------------------------------------------------------
    298.15    0.285438E-01    0.422803E+00    0.844269E-01    0.338376E+00
   ------------------------------------------------------------------------

         :::::::::::::::::::::::::::::::::::::::::::::::::::::
         ::                  THERMODYNAMIC                  ::
         :::::::::::::::::::::::::::::::::::::::::::::::::::::
         :: total free energy         -92.599446321706 Eh   ::
         ::.................................................::
         :: total energy              -92.937822632181 Eh   ::
         :: zero point energy           0.394259420278 Eh   ::
         :: G(RRHO) w/o ZPVE           -0.055883109803 Eh   ::
         :: G(RRHO) contrib.            0.338376310475 Eh   ::
         :::::::::::::::::::::::::::::::::::::::::::::::::::::

           -------------------------------------------------
          | TOTAL ENERGY              -92.937822632181 Eh   |
          | TOTAL ENTHALPY            -92.515019457611 Eh   |
          | TOTAL FREE ENERGY         -92.599446321706 Eh   |
          | GRADIENT NORM               0.000095772650 Eh/α |
          | HOMO-LUMO GAP               0.899957147352 eV   |
           -------------------------------------------------

 * finished run on 2025/07/20 at 19:00:10.075
