   * xtb version 6.7.1 (edcfbbe) compiled by 'albert@albert-system' on 2024-07-22

   ID    Z sym.   atoms
    1    6 C      1-5, 7-9, 11-16, 18-24, 26, 28-33, 36
    2    7 N      6, 10, 25, 27, 34, 35
    3    8 O      17
    4    1 H      37-54

          program call               : xtb data2507/toluene/DPP-PXZ/DPP-PXZ.xyz --gfn 2 --gbsa toluene --ohess vtight --parallel 40 --molden --ceasefiles --namespace data2507/toluene/DPP-PXZ/DPP-PXZ_toluene_S0_preOpt
      * Solvation model:               GBSA
        Solvent                        toluene
        Solvent mass                       9.2140E+01 g/mol
          :  Hamiltonian                  GFN2-xTB          :
 * total energy  :   -92.9138412 Eh     change       -0.3003009E-08 Eh
 * total energy  :   -92.9276029 Eh     change       -0.1376163E-01 Eh
 * total energy  :   -92.9321830 Eh     change       -0.4580099E-02 Eh
 * total energy  :   -92.9331823 Eh     change       -0.9993765E-03 Eh
 * total energy  :   -92.9342047 Eh     change       -0.1022308E-02 Eh
 * total energy  :   -92.9345920 Eh     change       -0.3872940E-03 Eh
 * total energy  :   -92.9349834 Eh     change       -0.3914081E-03 Eh
 * total energy  :   -92.9354184 Eh     change       -0.4350815E-03 Eh
 * total energy  :   -92.9358840 Eh     change       -0.4655577E-03 Eh
 * total energy  :   -92.9362495 Eh     change       -0.3655098E-03 Eh
 * total energy  :   -92.9377919 Eh     change       -0.3552480E-06 Eh
 * total energy  :   -92.9377922 Eh     change       -0.3588079E-06 Eh
 * total energy  :   -92.9377926 Eh     change       -0.3320502E-06 Eh
 * total energy  :   -92.9377929 Eh     change       -0.2958454E-06 Eh
 * total energy  :   -92.9377931 Eh     change       -0.2601589E-06 Eh
 * total energy  :   -92.9377933 Eh     change       -0.2291761E-06 Eh
 * total energy  :   -92.9377935 Eh     change       -0.1823741E-06 Eh
 * total energy  :   -92.9377937 Eh     change       -0.1276568E-06 Eh
 * total energy  :   -92.9377937 Eh     change       -0.8040531E-07 Eh
   *** GEOMETRY OPTIMIZATION CONVERGED AFTER 63 ITERATIONS ***

 final structure:
================
54
 xtb: 6.7.1 (edcfbbe)
C           -5.64074950268241        1.40101429925587       -3.03544931824063
C           -4.63356722849370        2.32138241261909       -2.78717724027254
C           -3.59364141809820        1.96163382766099       -1.94771911837588
C           -3.61238794590438        0.69167647564360       -1.37488011349099
C           -2.53756221389038        0.25126631638703       -0.47880391969685
N           -1.30122532074559        0.53020568070143       -0.81129407476402
C           -0.31235948967980       -0.01091451952505       -0.06742028935902
C            1.03370365959017        0.26145493507847       -0.35570403521777
C            2.00623104335727       -0.41063356405092        0.35796011682933
N            3.37153086648397       -0.18616626840888        0.15569921488896
C            4.21737257042195       -1.26078251040290       -0.15843221354204
C            3.72484442676631       -2.52326992537322       -0.46908612696365
C            4.58509670079317       -3.56525246569871       -0.77853254511238
C            5.95086975355725       -3.35886935073909       -0.80287639827606
C            6.45589177841095       -2.09511387309881       -0.54075365174038
C            5.60009724230352       -1.05202221829179       -0.23136298447203
O            6.16913384832409        0.17783911058616       -0.02232277130575
C            5.32789960122581        1.23478337695217        0.21788383780489
C            5.92328566854560        2.47323464447089        0.38625658122007
C            5.15257299379796        3.58738978715997        0.67664266919709
C            3.78530441161113        3.44891167638257        0.81401347186870
C            3.18424393350559        2.21175259218788        0.64018452377264
C            3.93757726350643        1.08924573369995        0.31797823596785
C            1.58744808833856       -1.35247326154235        1.33407009354669
N            0.34778295530936       -1.59977968897750        1.63682146993661
C           -0.61743629656412       -0.93333052638050        0.97578824902874
N           -1.88665401299556       -1.12161620737202        1.36495233354353
C           -2.83372580827291       -0.50558935671770        0.69834297390028
C           -4.20026903550076       -0.57073146876606        1.22247142785538
C           -4.67439167097261       -1.72935804136758        1.83575339788132
C           -5.97001495614791       -1.73524062705647        2.32167695949786
C           -6.73824335273567       -0.58784040958323        2.18929318394023
C           -6.16429021803597        0.51939111569435        1.58091671804750
N           -4.93164774847300        0.53676601706492        1.10797218299484
N           -4.57081393423973       -0.19865636154992       -1.62348984869483
C           -5.55226035342875        0.15407345984605       -2.43328254015203
H           -6.46897744144178        1.63901267014717       -3.68366653439895
H           -4.65695031857340        3.30078179559052       -3.24183938943773
H           -2.78280971688678        2.63582874770302       -1.72269415068520
H            1.27688723280478        0.96589012381715       -1.13715728488629
H            2.65931400051298       -2.69505106041015       -0.47395112947516
H            4.17384253645050       -4.53605649579987       -1.00670574375941
H            6.62421080242945       -4.16727509817494       -1.03871441408584
H            7.51432215136457       -1.89184497059702       -0.57535901650272
H            6.99576161370413        2.53709525090604        0.29390524566794
H            5.62403273396615        4.54862111712070        0.80417044952892
H            3.17076542663361        4.30038794651559        1.06137038001061
H            2.11783782181925        2.12197715759443        0.77397230239249
H            2.32925501341142       -1.89645518821557        1.90570309763419
H           -4.02812737590560       -2.58877860893062        1.91396175347361
H           -6.37289550890360       -2.61762013544272        2.79659344153334
H           -7.75250927953525       -0.54765951098804        2.55334983550841
H           -6.71270045541280        1.44569286336525        1.46568055307225
H           -6.30090853542817       -0.60892842069050       -2.60471084762359

          :  Hamiltonian                  GFN2-xTB          :
         :: gradient norm              0.000036478835 Eh/a0 ::
         :: HOMO-LUMO gap              0.902947020167 eV    ::
         :: SCC energy               -94.485963302415 Eh    ::
         :: -> dispersion             -0.073936293758 Eh    ::
         :: -> Gsolv                  -0.046270319870 Eh    ::
         :: repulsion energy           1.548169571108 Eh    ::

    * Orbital Energies and Occupations

         #    Occupation            Energy/Eh            Energy/eV
      -------------------------------------------------------------
         1        2.0000           -0.7412116             -20.1694
       ...           ...                  ...                  ...
        73        2.0000           -0.4422923             -12.0354
        74        2.0000           -0.4412607             -12.0073
        75        2.0000           -0.4363892             -11.8748
        76        2.0000           -0.4304310             -11.7126
        77        2.0000           -0.4266706             -11.6103
        78        2.0000           -0.4242299             -11.5439
        79        2.0000           -0.4188750             -11.3982
        80        2.0000           -0.4149021             -11.2901
        81        2.0000           -0.4016277             -10.9288
        82        2.0000           -0.3875498             -10.5458
        83        2.0000           -0.3867727             -10.5246
        84        2.0000           -0.3697326             -10.0609
        85        2.0000           -0.3569964              -9.7144 (HOMO)
        86                         -0.3238137              -8.8114 (LUMO)
        87                         -0.2911361              -7.9222
        88                         -0.2626219              -7.1463
        89                         -0.2613196              -7.1109
        90                         -0.2538457              -6.9075
        91                         -0.2499161              -6.8006
        92                         -0.2485550              -6.7635
        93                         -0.2409491              -6.5566
        94                         -0.2372349              -6.4555
        95                         -0.2260902              -6.1522
        96                         -0.2081807              -5.6649
       ...                                ...                  ...
       162                          0.6642175              18.0743
      -------------------------------------------------------------
                  HL-Gap            0.0331828 Eh            0.9029 eV

     #   Z          covCN         q      C6AA      α(0)
     1   6 C        2.914    -0.038    28.944     8.822
     2   6 C        2.928    -0.008    28.230     8.713
     3   6 C        2.918    -0.039    28.968     8.826
     4   6 C        2.971     0.103    25.715     8.318
     5   6 C        2.961     0.111    25.544     8.290
     6   7 N        1.848    -0.268    27.822     7.817
     7   6 C        2.968     0.075    26.328     8.416
     8   6 C        2.923    -0.049    29.222     8.865
     9   6 C        2.914     0.055    26.770     8.484
    10   7 N        2.749    -0.066    22.527     7.049
    11   6 C        2.922     0.038    27.154     8.545
    12   6 C        2.923    -0.057    29.412     8.894
    13   6 C        2.919    -0.036    28.903     8.816
    14   6 C        2.919    -0.036    28.884     8.813
    15   6 C        2.919    -0.055    29.362     8.886
    16   6 C        2.884     0.126    25.242     8.237
    17   8 O        1.709    -0.255    18.228     5.764
    18   6 C        2.884     0.125    25.250     8.238
    19   6 C        2.920    -0.055    29.355     8.885
    20   6 C        2.919    -0.036    28.898     8.815
    21   6 C        2.919    -0.037    28.911     8.817
    22   6 C        2.923    -0.058    29.443     8.898
    23   6 C        2.918     0.039    27.130     8.541
    24   6 C        2.908     0.058    26.710     8.474
    25   7 N        1.841    -0.246    27.268     7.739
    26   6 C        2.960     0.169    24.361     8.096
    27   7 N        1.853    -0.255    27.482     7.770
    28   6 C        2.964     0.110    25.577     8.295
    29   6 C        2.971     0.101    25.764     8.326
    30   6 C        2.918    -0.038    28.952     8.824
    31   6 C        2.927    -0.008    28.224     8.712
    32   6 C        2.914    -0.038    28.933     8.820
    33   6 C        2.908     0.064    26.574     8.453
    34   7 N        1.843    -0.257    27.547     7.778
    35   7 N        1.843    -0.257    27.534     7.777
    36   6 C        2.909     0.064    26.566     8.452
    37   1 H        0.926     0.059     2.213     2.326
    38   1 H        0.926     0.060     2.199     2.319
    39   1 H        0.926     0.051     2.302     2.373
    40   1 H        0.926     0.066     2.129     2.282
    41   1 H        0.926     0.032     2.553     2.499
    42   1 H        0.926     0.050     2.321     2.382
    43   1 H        0.926     0.054     2.269     2.355
    44   1 H        0.926     0.060     2.199     2.319
    45   1 H        0.926     0.060     2.201     2.320
    46   1 H        0.926     0.053     2.277     2.360
    47   1 H        0.926     0.049     2.336     2.390
    48   1 H        0.926     0.034     2.529     2.487
    49   1 H        0.925     0.062     2.180     2.309
    50   1 H        0.926     0.056     2.249     2.345
    51   1 H        0.926     0.060     2.193     2.316
    52   1 H        0.926     0.059     2.208     2.324
    53   1 H        0.925     0.045     2.382     2.413
    54   1 H        0.925     0.045     2.377     2.411

molecular dipole:
                 x           y           z       tot (Debye)
 q only:       -0.238       0.446      -0.442
   full:       -0.432       0.663      -0.639       2.586

 projected vibrational frequencies (cm⁻¹)
eigval :       -0.00    -0.00    -0.00    -0.00     0.00     0.00
eigval :       14.08    19.34    27.97    29.09    41.00    48.58
eigval :       58.96    63.01    76.38    80.17   116.57   137.26
eigval :      140.24   156.65   181.96   212.58   223.95   245.99
eigval :      252.95   261.66   271.10   298.48   310.10   336.42
eigval :      352.90   369.73   374.77   392.24   395.89   401.13
eigval :      429.47   429.93   446.17   459.02   460.57   505.79
eigval :      508.19   519.49   525.40   551.90   564.37   566.31
eigval :      577.48   592.65   594.41   603.06   622.13   627.78
eigval :      661.32   663.58   673.88   689.57   707.49   709.71
eigval :      718.44   730.75   761.20   767.62   779.08   779.97
eigval :      781.74   793.69   843.87   847.26   855.54   868.52
eigval :      869.12   875.08   885.26   885.53   899.29   903.88
eigval :      911.88   912.05   915.21   916.36   918.62   923.12
eigval :      929.57   932.58   963.30   994.69  1003.37  1027.35
eigval :     1086.86  1088.09  1088.27  1089.09  1104.81  1108.24
eigval :     1113.22  1116.22  1123.82  1154.71  1156.08  1160.65
eigval :     1172.48  1182.49  1193.42  1201.06  1207.15  1230.44
eigval :     1240.60  1244.02  1246.87  1260.00  1264.16  1275.24
eigval :     1285.14  1292.05  1301.08  1308.58  1315.37  1326.91
eigval :     1341.06  1371.31  1399.61  1401.06  1413.02  1418.05
eigval :     1424.38  1431.13  1440.36  1453.69  1458.81  1473.34
eigval :     1490.99  1507.71  1517.21  1554.92  1557.20  1567.96
eigval :     1570.47  1571.41  1576.07  1579.40  1587.55  1596.85
eigval :     3052.26  3053.68  3053.95  3079.27  3080.48  3088.34
eigval :     3089.69  3092.57  3098.50  3100.48  3102.16  3102.72
eigval :     3104.47  3105.80  3106.29  3107.90  3114.16  3114.72

   temp. (K)  partition function   enthalpy   heat capacity  entropy
                                   cal/mol     cal/K/mol   cal/K/mol   J/K/mol
 298.15  VIB  0.773E+12            15550.986     99.074     95.934
         ROT  0.361E+08              888.752      2.981     37.565
         INT  0.279E+20            16439.739    102.055    133.499
         TR   0.975E+28             1481.254      4.968     44.289
         TOT                       17920.9926   107.0231   177.7873   743.8621

       T/K    H(0)-H(T)+PV         H(T)/Eh          T*S/Eh         G(T)/Eh
   ------------------------------------------------------------------------
    298.15    0.285589E-01    0.422825E+00    0.844725E-01    0.338353E+00
   ------------------------------------------------------------------------

         :::::::::::::::::::::::::::::::::::::::::::::::::::::
         ::                  THERMODYNAMIC                  ::
         :::::::::::::::::::::::::::::::::::::::::::::::::::::
         :: total free energy         -92.599441138642 Eh   ::
         ::.................................................::
         :: total energy              -92.937793733446 Eh   ::
         :: zero point energy           0.394266167058 Eh   ::
         :: G(RRHO) w/o ZPVE           -0.055913572254 Eh   ::
         :: G(RRHO) contrib.            0.338352594804 Eh   ::
         :::::::::::::::::::::::::::::::::::::::::::::::::::::

           -------------------------------------------------
          | TOTAL ENERGY              -92.937793733446 Eh   |
          | TOTAL ENTHALPY            -92.514968646845 Eh   |
          | TOTAL FREE ENERGY         -92.599441138642 Eh   |
          | GRADIENT NORM               0.000036442711 Eh/α |
          | HOMO-LUMO GAP               0.902949589092 eV   |
           -------------------------------------------------

 * finished run on 2025/07/20 at 18:58:14.830
