   * xtb version 6.7.1 (edcfbbe) compiled by 'albert@albert-system' on 2024-07-22

   ID    Z sym.   atoms
    1    6 C      1-5, 7-9, 11-16, 18-24, 26, 28-33, 36
    2    7 N      6, 10, 25, 27, 34, 35
    3    8 O      17
    4    1 H      37-54

          program call               : xtb data2507/toluene/DPP-PXZ/DPP-PXZ_toluene_T1_crest.xyz --gfn 2 --uhf 2 --gbsa toluene --ohess vtight --parallel 40 --molden --ceasefiles --namespace data2507/toluene/DPP-PXZ/DPP-PXZ_toluene_T1_finalOpt
      * Solvation model:               GBSA
        Solvent                        toluene
        Solvent mass                       9.2140E+01 g/mol
          :  Hamiltonian                  GFN2-xTB          :
 * total energy  :   -92.8994645 Eh     change       -0.3294005E-08 Eh
 * total energy  :   -92.8996166 Eh     change       -0.1520966E-03 Eh
 * total energy  :   -92.8996990 Eh     change       -0.8240344E-04 Eh
 * total energy  :   -92.8997169 Eh     change       -0.1788239E-04 Eh
 * total energy  :   -92.8997389 Eh     change       -0.2194689E-04 Eh
 * total energy  :   -92.8997516 Eh     change       -0.1275192E-04 Eh
 * total energy  :   -92.8997665 Eh     change       -0.1485341E-04 Eh
 * total energy  :   -92.8997780 Eh     change       -0.1149262E-04 Eh
 * total energy  :   -92.8997854 Eh     change       -0.7416118E-05 Eh
 * total energy  :   -92.8997921 Eh     change       -0.6731780E-05 Eh
 * total energy  :   -92.8998090 Eh     change       -0.2756855E-05 Eh
 * total energy  :   -92.8998105 Eh     change       -0.1449401E-05 Eh
 * total energy  :   -92.8998117 Eh     change       -0.1209590E-05 Eh
 * total energy  :   -92.8998131 Eh     change       -0.1423039E-05 Eh
 * total energy  :   -92.8998145 Eh     change       -0.1402393E-05 Eh
 * total energy  :   -92.8998157 Eh     change       -0.1204729E-05 Eh
 * total energy  :   -92.8998165 Eh     change       -0.8074292E-06 Eh
 * total energy  :   -92.8998171 Eh     change       -0.5649243E-06 Eh
 * total energy  :   -92.8998171 Eh     change       -0.7854581E-08 Eh
   *** GEOMETRY OPTIMIZATION CONVERGED AFTER 22 ITERATIONS ***

 final structure:
================
54
 xtb: 6.7.1 (edcfbbe)
C           -5.70516978007463       -2.35879704829949        2.45622736662769
C           -4.75013759538437       -3.13427534335786        1.81466319058161
C           -3.72921374915260       -2.50412889407426        1.12700523075052
C           -3.71201668106390       -1.10978668863750        1.09267763904573
C           -2.64422764732366       -0.39068060612355        0.39099336216521
N           -1.39095293183342       -0.77404250381344        0.59443961845661
C           -0.37551872057280       -0.07512124673482        0.07807527779114
C            0.95519383839375       -0.41480349659043        0.27758992862356
C            1.96319698481206        0.41305583293792       -0.24069014055396
N            3.32463762176667        0.09617135535240       -0.07567853453394
C            4.16521694682620        0.94136416365976        0.64590297363557
C            3.68789094944356        2.05261078875139        1.33634328598288
C            4.55237237412464        2.86657293175230        2.04712258403330
C            5.90711636369728        2.58354638722437        2.08994055102742
C            6.39661785242054        1.46843533503852        1.43079559196346
C            5.53674020611095        0.64775057922181        0.71896651736170
O            6.08084957819193       -0.45181331764656        0.11449546560873
C            5.24623128593859       -1.27004224495154       -0.59553208985783
C            5.81525404589395       -2.37382724016860       -1.20964783787418
C            5.03118671113203       -3.23290370191060       -1.96138934678770
C            3.67837905956450       -2.97726049379138       -2.10644448459492
C            3.10266298276309       -1.87707947264976       -1.49493054296732
C            3.87029020317698       -1.01491136520198       -0.71633085818601
C            1.58532897946200        1.55766335019592       -0.92834263322671
N            0.32049481434980        1.89584864090994       -1.11892547800633
C           -0.66849831108467        1.13733372549441       -0.67341380979658
N           -1.92837300727549        1.45197153257179       -0.92262139767128
C           -2.92536712275800        0.69828249377221       -0.44922321922894
C           -4.28225149362602        0.99609756733128       -0.88384563245702
C           -4.65022592998856        2.30849782898856       -1.19876371750177
C           -5.94529537492921        2.55140343648084       -1.61173475973938
C           -6.83159422351830        1.48617998028794       -1.70975160440588
C           -6.36234296161993        0.21823372826042       -1.40056298909789
N           -5.12792881881981       -0.02698887198501       -1.00493302056314
N           -4.61400879001809       -0.36644256730138        1.72797042527413
C           -5.57987828549410       -0.97922708225757        2.38673687229297
H           -6.51969302583002       -2.80939572578079        3.00069009683925
H           -4.80011037982387       -4.21278326272366        1.85174294503540
H           -2.95980378502600       -3.06034982313346        0.61510523005049
H            1.20183977796459       -1.28771650914639        0.86035628190451
H            2.63259544950047        2.27523389793576        1.31626747781297
H            4.15791822341358        3.72359379656357        2.56996448152780
H            6.58152544545803        3.22015003483334        2.63970612274463
H            7.44338800225391        1.21135080544266        1.45577737394596
H            6.87440929777038       -2.53525136000016       -1.08888372058828
H            5.47982352541495       -4.09043673808252       -2.43650295647915
H            3.06093745632030       -3.63136366953868       -2.70180919156191
H            2.05026290313129       -1.67996123827435       -1.62388939969679
H            2.31951766498075        2.22915294024028       -1.35051265841260
H           -3.91829507202082        3.09537231376205       -1.10771412377060
H           -6.26270353118345        3.55507061909143       -1.85453601714918
H           -7.85224440864459        1.63271524109028       -2.02513862883993
H           -7.00051636917405       -0.65321394717018       -1.47847323855948
H           -6.28361101193718       -0.32398402784431        2.88449138522622

          :  Hamiltonian                  GFN2-xTB          :
         :: gradient norm              0.000062952355 Eh/a0 ::
         :: HOMO-LUMO gap              0.961548788645 eV    ::
         :: SCC energy               -94.450109758478 Eh    ::
         :: -> dispersion             -0.073779300220 Eh    ::
         :: -> Gsolv                  -0.048218900033 Eh    ::
         :: repulsion energy           1.550292662455 Eh    ::

    * Orbital Energies and Occupations

         #    Occupation            Energy/Eh            Energy/eV
      -------------------------------------------------------------
         1        2.0000           -0.7511875             -20.4409
       ...           ...                  ...                  ...
        74        2.0000           -0.4357781             -11.8581
        75        2.0000           -0.4342207             -11.8157
        76        2.0000           -0.4328244             -11.7778
        77        2.0000           -0.4303396             -11.7101
        78        2.0000           -0.4218345             -11.4787
        79        2.0000           -0.4137035             -11.2574
        80        2.0000           -0.4095556             -11.1446
        81        2.0000           -0.4066436             -11.0653
        82        2.0000           -0.3812924             -10.3755
        83        2.0000           -0.3800195             -10.3409
        84        1.9885           -0.3645747              -9.9206
        85        1.0115           -0.3561073              -9.6902
        86        1.0000           -0.3176824              -8.6446 (HOMO)
        87                         -0.2823461              -7.6830 (LUMO)
        88                         -0.2572732              -7.0008
        89                         -0.2559779              -6.9655
        90                         -0.2539760              -6.9110
        91                         -0.2465267              -6.7083
        92                         -0.2433393              -6.6216
        93                         -0.2409082              -6.5554
        94                         -0.2303348              -6.2677
        95                         -0.2262252              -6.1559
        96                         -0.2132904              -5.8039
        97                         -0.1762458              -4.7959
       ...                                ...                  ...
       162                          0.6630229              18.0418
      -------------------------------------------------------------
                  HL-Gap            0.0353363 Eh            0.9615 eV

     #   Z          covCN         q      C6AA      α(0)
     1   6 C        2.914    -0.041    29.030     8.835
     2   6 C        2.928    -0.010    28.273     8.720
     3   6 C        2.918    -0.041    29.023     8.834
     4   6 C        2.969     0.110    25.574     8.295
     5   6 C        2.943     0.101    25.771     8.326
     6   7 N        1.849    -0.271    27.894     7.828
     7   6 C        2.944     0.086    26.094     8.378
     8   6 C        2.923    -0.071    29.777     8.949
     9   6 C        2.914     0.040    27.100     8.536
    10   7 N        2.751    -0.043    22.068     6.977
    11   6 C        2.923     0.042    27.069     8.532
    12   6 C        2.922    -0.053    29.307     8.878
    13   6 C        2.918    -0.032    28.792     8.799
    14   6 C        2.919    -0.031    28.775     8.797
    15   6 C        2.918    -0.052    29.295     8.876
    16   6 C        2.884     0.129    25.179     8.226
    17   8 O        1.709    -0.235    17.900     5.712
    18   6 C        2.884     0.129    25.179     8.226
    19   6 C        2.918    -0.052    29.299     8.876
    20   6 C        2.919    -0.031    28.778     8.797
    21   6 C        2.918    -0.032    28.804     8.801
    22   6 C        2.922    -0.053    29.307     8.878
    23   6 C        2.924     0.043    27.043     8.528
    24   6 C        2.888     0.037    27.177     8.547
    25   7 N        1.845    -0.248    27.306     7.744
    26   6 C        2.915     0.183    24.082     8.047
    27   7 N        1.853    -0.266    27.773     7.811
    28   6 C        2.945     0.092    25.962     8.357
    29   6 C        2.966     0.102    25.746     8.323
    30   6 C        2.919    -0.042    29.040     8.837
    31   6 C        2.927    -0.011    28.298     8.724
    32   6 C        2.914    -0.043    29.072     8.842
    33   6 C        2.905     0.063    26.580     8.454
    34   7 N        1.843    -0.259    27.599     7.786
    35   7 N        1.843    -0.254    27.463     7.767
    36   6 C        2.908     0.064    26.573     8.453
    37   1 H        0.926     0.055     2.261     2.352
    38   1 H        0.926     0.056     2.245     2.343
    39   1 H        0.926     0.046     2.374     2.410
    40   1 H        0.926     0.058     2.221     2.331
    41   1 H        0.926     0.041     2.439     2.442
    42   1 H        0.926     0.056     2.249     2.345
    43   1 H        0.926     0.060     2.194     2.316
    44   1 H        0.926     0.066     2.125     2.280
    45   1 H        0.926     0.066     2.126     2.280
    46   1 H        0.926     0.060     2.198     2.319
    47   1 H        0.926     0.055     2.262     2.352
    48   1 H        0.926     0.041     2.431     2.438
    49   1 H        0.926     0.054     2.266     2.354
    50   1 H        0.926     0.050     2.316     2.380
    51   1 H        0.926     0.055     2.264     2.353
    52   1 H        0.926     0.053     2.284     2.364
    53   1 H        0.925     0.040     2.449     2.447
    54   1 H        0.925     0.043     2.412     2.429

molecular dipole:
                 x           y           z       tot (Debye)
 q only:        1.593      -0.670       0.278
   full:        1.385      -0.846       0.323       4.205

 projected vibrational frequencies (cm⁻¹)
eigval :       -0.00    -0.00     0.00     0.00     0.00     0.00
eigval :       14.30    18.44    25.40    28.91    43.54    49.28
eigval :       59.76    63.42    78.80    84.02   110.20   136.32
eigval :      140.58   158.20   178.48   207.81   221.93   245.44
eigval :      255.97   256.84   268.70   298.74   303.69   340.61
eigval :      354.30   370.77   377.64   388.38   398.09   408.32
eigval :      428.00   430.08   453.72   456.42   465.15   501.97
eigval :      510.09   517.17   525.35   541.21   557.39   564.24
eigval :      574.01   580.64   590.32   599.26   615.80   619.98
eigval :      649.87   665.10   667.90   672.18   692.56   706.24
eigval :      706.62   709.79   726.81   766.47   770.61   774.73
eigval :      777.44   786.46   792.53   836.13   839.23   853.44
eigval :      855.90   866.90   870.27   883.92   884.24   901.07
eigval :      903.43   912.73   912.78   915.35   916.30   916.57
eigval :      927.46   929.63   943.01   987.26  1004.86  1015.77
eigval :     1084.83  1085.71  1086.66  1088.54  1106.06  1111.25
eigval :     1114.00  1117.08  1129.69  1155.26  1156.54  1160.44
eigval :     1169.88  1170.56  1179.61  1197.72  1205.77  1233.05
eigval :     1235.59  1238.40  1241.75  1244.74  1255.29  1269.91
eigval :     1284.13  1285.07  1291.57  1297.74  1308.55  1318.21
eigval :     1327.00  1339.97  1361.26  1383.60  1399.01  1409.30
eigval :     1413.05  1417.00  1432.86  1438.43  1443.24  1449.87
eigval :     1462.93  1479.11  1485.53  1511.09  1540.44  1550.02
eigval :     1560.16  1565.73  1565.97  1568.74  1576.87  1586.65
eigval :     3047.52  3049.88  3069.03  3075.59  3076.92  3095.76
eigval :     3095.84  3098.24  3100.40  3100.88  3101.30  3102.70
eigval :     3102.93  3103.51  3108.67  3109.52  3116.08  3116.42

   temp. (K)  partition function   enthalpy   heat capacity  entropy
                                   cal/mol     cal/K/mol   cal/K/mol   J/K/mol
 298.15  VIB  0.860E+12            15650.379    100.034     96.492
         ROT  0.364E+08              888.752      2.981     37.579
         INT  0.313E+20            16539.131    103.015    134.071
         TR   0.975E+28             1481.254      4.968     44.289
         TOT                       18020.3849   107.9827   178.3600   746.2582

       T/K    H(0)-H(T)+PV         H(T)/Eh          T*S/Eh         G(T)/Eh
   ------------------------------------------------------------------------
    298.15    0.287173E-01    0.420840E+00    0.847446E-01    0.336095E+00
   ------------------------------------------------------------------------

         :::::::::::::::::::::::::::::::::::::::::::::::::::::
         ::                  THERMODYNAMIC                  ::
         :::::::::::::::::::::::::::::::::::::::::::::::::::::
         :: total free energy         -92.563721999612 Eh   ::
         ::.................................................::
         :: total energy              -92.899817098021 Eh   ::
         :: zero point energy           0.392122371043 Eh   ::
         :: G(RRHO) w/o ZPVE           -0.056027272634 Eh   ::
         :: G(RRHO) contrib.            0.336095098409 Eh   ::
         :::::::::::::::::::::::::::::::::::::::::::::::::::::

           -------------------------------------------------
          | TOTAL ENERGY              -92.899817098021 Eh   |
          | TOTAL ENTHALPY            -92.478977415679 Eh   |
          | TOTAL FREE ENERGY         -92.563721999612 Eh   |
          | GRADIENT NORM               0.000062755020 Eh/α |
          | HOMO-LUMO GAP               0.961548877450 eV   |
           -------------------------------------------------

 * finished run on 2025/07/20 at 19:02:47.953
