   * xtb version 6.7.1 (edcfbbe) compiled by 'albert@albert-system' on 2024-07-22

   ID    Z sym.   atoms
    1    6 C      1-9, 11-19, 21-38, 40-45, 49-54, 58-63
    2    7 N      10, 20, 39
    3   16 S      46, 55
    4    8 O      47, 48, 56, 57
    5    1 H      64-104

          program call               : xtb data2507/toluene/DMAC-Cz-TTR/DMAC-Cz-TTR.xyz --gfn 2 --gbsa toluene --ohess vtight --parallel 40 --molden --ceasefiles --namespace data2507/toluene/DMAC-Cz-TTR/DMAC-Cz-TTR_toluene_S0_preOpt
      * Solvation model:               GBSA
        Solvent                        toluene
        Solvent mass                       9.2140E+01 g/mol
          :  Hamiltonian                  GFN2-xTB          :
 * total energy  :  -168.1739833 Eh     change       -0.1929891E-08 Eh
 * total energy  :  -168.1973875 Eh     change       -0.2340415E-01 Eh
 * total energy  :  -168.2068928 Eh     change       -0.9505337E-02 Eh
 * total energy  :  -168.2091986 Eh     change       -0.2305831E-02 Eh
 * total energy  :  -168.2105088 Eh     change       -0.1310140E-02 Eh
 * total energy  :  -168.2111084 Eh     change       -0.5996200E-03 Eh
 * total energy  :  -168.2113488 Eh     change       -0.2404331E-03 Eh
 * total energy  :  -168.2114987 Eh     change       -0.1499104E-03 Eh
 * total energy  :  -168.2116288 Eh     change       -0.1300166E-03 Eh
 * total energy  :  -168.2117863 Eh     change       -0.1575596E-03 Eh
 * total energy  :  -168.2124176 Eh     change       -0.4447227E-06 Eh
 * total energy  :  -168.2124180 Eh     change       -0.3754005E-06 Eh
 * total energy  :  -168.2124183 Eh     change       -0.2794632E-06 Eh
 * total energy  :  -168.2124186 Eh     change       -0.2597209E-06 Eh
 * total energy  :  -168.2124188 Eh     change       -0.2342445E-06 Eh
 * total energy  :  -168.2124190 Eh     change       -0.1690587E-06 Eh
 * total energy  :  -168.2124191 Eh     change       -0.1386462E-06 Eh
 * total energy  :  -168.2124192 Eh     change       -0.1344871E-06 Eh
 * total energy  :  -168.2124193 Eh     change       -0.9550516E-07 Eh
   *** GEOMETRY OPTIMIZATION CONVERGED AFTER 81 ITERATIONS ***

 final structure:
================
104
 xtb: 6.7.1 (edcfbbe)
C           -8.00488348536656        1.37811617183199       -0.05781506889891
C           -7.01271956010869        2.55495210319727       -0.11575557441171
C           -7.77524781601180        3.88964773030566       -0.21450714197856
C           -6.14427567210781        2.40056555491120       -1.35093293322130
C           -6.73735910904414        2.38029495631893       -2.60592983623594
C           -5.99764654793705        2.25038423240230       -3.76750191671169
C           -4.62136555879053        2.13826566758482       -3.68320731573900
C           -4.00583143878699        2.15352529521253       -2.44907132922313
C           -4.75204515928225        2.28176951610474       -1.27337097440980
N           -4.10413914313955        2.29152974127320       -0.04904892857313
C           -2.68533296221406        2.17236946058937       -0.01586740949515
C           -1.90076568830669        3.32924504012529       -0.03681634747421
C           -0.52113971174458        3.26501486229615       -0.00056878763024
C            0.07046330711852        2.01129229406887        0.06721947556094
C           -0.71466871160045        0.83690565460648        0.05445761386849
C           -2.09945686015327        0.91739557133229        0.01958637226627
C            0.20091130581423       -0.27155940426340        0.06158764723684
C            0.01629431770202       -1.64678199242221        0.07867884196386
C            1.13736883314677       -2.46020847401218        0.10859884813070
N            0.98998372810142       -3.87686631154153        0.11832167557044
C            0.95332186730956       -4.55611571567320       -1.08854084979096
C            1.01232096286906       -3.83845104373924       -2.28719896827446
C            0.97607207699899       -4.48473720017516       -3.50507165399771
C            0.88078793018211       -5.86413775592800       -3.54973999686904
C            0.82396833652260       -6.57612169413141       -2.36522380569743
C            0.85776782256730       -5.95170510881928       -1.12581258215346
C            0.80082338037469       -6.79202115029346        0.13685218171169
C           -0.50453028358613       -7.60942484201987        0.13084802059763
C            2.01867618247604       -7.73540833799200        0.15408108041848
C            0.83521251234988       -5.93421325389689        1.38848394744394
C            0.77895786406577       -6.54138371391037        2.63564991664904
C            0.81235539005140       -5.81290390711572        3.81097026746491
C            0.90416809599142       -4.43395356450529        3.74877230129920
C            0.96208667926012       -3.80450667838681        2.52292039312164
C            0.93004336429986       -4.53915285923375        1.33354752784783
C            2.42177741003719       -1.90907678787112        0.14169475972866
C            2.62160580331988       -0.54216594591007        0.12673415236655
C            1.50295929600632        0.27723646476184        0.06442756713982
N            1.41375258003889        1.66235899733229        0.07649591390843
C            2.48327297025865        2.54775653758427        0.08135937890038
C            2.48865083807584        3.65479424339249        0.93797092026030
C            3.55522257205737        4.53450825019289        0.94028104481521
C            4.62981263328293        4.31891917594632        0.09238071412823
C            4.63458674968907        3.22174389898639       -0.74793112043570
C            3.57699841507231        2.33772627558473       -0.76647645332490
S            6.04908470119173        2.92830268179991       -1.81485699753854
O            6.05188468146694        1.52805253660748       -2.16736094557200
O            6.03832873426822        3.86122038543668       -2.90957650982326
C            7.46012946719834        3.24431850346389       -0.75382335651487
C            8.54146534243605        2.38118910977370       -0.76156616671576
C            9.62372877476080        2.63849415248984        0.06822606945316
C            9.61405277944216        3.74477355589635        0.90481009692230
C            8.52175465851439        4.60076886888858        0.91725657371690
C            7.45034792023513        4.34628520373393        0.07974760766778
S            6.02720135482070        5.43757201242294        0.07577943909897
O            6.02268140643594        6.18890046838767        1.30841005975996
O            6.01317155729719        6.20710223293285       -1.14040879117765
C           -4.79497549356935        2.42450266114352        1.14425564028539
C           -4.09175505135909        2.42246384555230        2.35285368736813
C           -4.74946713042876        2.55445319646562        3.55793572360994
C           -6.12591602874156        2.69114812036330        3.57937766594165
C           -6.82387180182609        2.68932920476498        2.38521141895530
C           -6.18791593132596        2.55711041113584        1.15826270035514
H           -8.62396910078810        1.34833896586609       -0.95022297806148
H           -7.46055614070449        0.43783503077870        0.01425836063972
H           -8.65792247093276        1.46342007924301        0.80636147191897
H           -8.39642194097302        3.91644222940090       -1.10556230892022
H           -8.41568253728420        4.03579908286607        0.65093997219029
H           -7.06905372247824        4.71698893237155       -0.26352506644633
H           -7.81028002712719        2.46921571286015       -2.68713979329666
H           -6.49248657540841        2.23892191602151       -4.72724407444312
H           -4.02347541902419        2.03850696942329       -4.57753472978641
H           -2.93174360332464        2.06581479502769       -2.39078809276507
H           -2.39414778321758        4.28808844215257       -0.08740041524258
H            0.06721056143910        4.16736688490632       -0.04490667322998
H           -2.71158472239311        0.02908060319252        0.01126880513941
H           -0.97236664892244       -2.07850385151358        0.07305753333092
H            1.08857168807595       -2.76233869576114       -2.25971085946160
H            1.02315436791822       -3.90831472451987       -4.41763444571748
H            0.85240074806345       -6.38291208154211       -4.49640725684108
H            0.75313732393841       -7.65228080348328       -2.41536728722982
H           -0.55715385362594       -8.25034502690548       -0.74485124908691
H           -0.57364568560264       -8.23707356096864        1.01496102085047
H           -1.36225692392017       -6.93892543295145        0.11759227727541
H            2.02296256266326       -8.37835734942576       -0.72187425827829
H            2.93891803856755       -7.15323682786429        0.15705454086644
H            2.00847890243432       -8.36522759102284        1.03947373065372
H            0.70860847083025       -7.61687002163058        2.69911159052520
H            0.76725825893376       -6.31879349277264        4.76393048556480
H            0.93084741725625       -3.84500654880806        4.65406877038061
H            1.03343677395031       -2.72857176226669        2.48082424889457
H            3.26962578346420       -2.57603817793063        0.18238156048945
H            3.62049635450644       -0.13875107807318        0.16933627545839
H            1.66618081223715        3.80571239298309        1.61934821444059
H            3.58620512878829        5.38415900719225        1.60377088139097
H            3.61240917046734        1.50469750545513       -1.45022012355917
H            8.50937653732053        1.52152174904291       -1.41223629991025
H           10.47134694676843        1.97110177829408        0.06202560592168
H           10.45383502264364        3.94168755991429        1.55274637318711
H            8.47403632750280        5.46120171359125        1.56593808297304
H           -3.01819401671160        2.31388539026710        2.34213937404469
H           -4.18476013453480        2.54986526406511        4.47890609698248
H           -6.65356729604873        2.79635838390939        4.51563236036854
H           -7.89797605236186        2.79413253319801        2.41743679514150

          :  Hamiltonian                  GFN2-xTB          :
         :: gradient norm              0.000058590900 Eh/a0 ::
         :: HOMO-LUMO gap              1.191910104942 eV    ::
         :: SCC energy              -170.983164906902 Eh    ::
         :: -> dispersion             -0.158615380005 Eh    ::
         :: -> Gsolv                  -0.078602328580 Eh    ::
         :: repulsion energy           2.770745583450 Eh    ::

    * Orbital Energies and Occupations

         #    Occupation            Energy/Eh            Energy/eV
      -------------------------------------------------------------
         1        2.0000           -0.8008958             -21.7935
       ...           ...                  ...                  ...
       142        2.0000           -0.4074167             -11.0864
       143        2.0000           -0.4049789             -11.0200
       144        2.0000           -0.4047543             -11.0139
       145        2.0000           -0.4015315             -10.9262
       146        2.0000           -0.4009290             -10.9098
       147        2.0000           -0.3985190             -10.8443
       148        2.0000           -0.3956679             -10.7667
       149        2.0000           -0.3953979             -10.7593
       150        2.0000           -0.3904155             -10.6237
       151        2.0000           -0.3901959             -10.6178
       152        2.0000           -0.3849941             -10.4762
       153        2.0000           -0.3441704              -9.3654
       154        2.0000           -0.3436236              -9.3505 (HOMO)
       155                         -0.2998217              -8.1586 (LUMO)
       156                         -0.2825329              -7.6881
       157                         -0.2803720              -7.6293
       158                         -0.2733075              -7.4371
       159                         -0.2643837              -7.1942
       160                         -0.2439528              -6.6383
       161                         -0.2219239              -6.0389
       162                         -0.2217121              -6.0331
       163                         -0.2185388              -5.9467
       164                         -0.2169069              -5.9023
       165                         -0.2166955              -5.8966
       ...                                ...                  ...
       303                          1.2146929              33.0535
      -------------------------------------------------------------
                  HL-Gap            0.0438020 Eh            1.1919 eV

     #   Z          covCN         q      C6AA      α(0)
     1   6 C        3.761    -0.103    22.513     6.764
     2   6 C        3.908     0.021    20.168     6.383
     3   6 C        3.761    -0.103    22.512     6.764
     4   6 C        2.979    -0.015    28.377     8.738
     5   6 C        2.928    -0.038    28.946     8.823
     6   6 C        2.917    -0.047    29.176     8.858
     7   6 C        2.919    -0.035    28.881     8.813
     8   6 C        2.924    -0.061    29.518     8.910
     9   6 C        2.928     0.058    26.697     8.473
    10   7 N        2.755    -0.073    22.654     7.069
    11   6 C        2.927     0.063    26.594     8.457
    12   6 C        2.926    -0.039    28.960     8.825
    13   6 C        2.909    -0.048    29.199     8.861
    14   6 C        3.065     0.040    27.031     8.526
    15   6 C        3.065    -0.008    28.151     8.700
    16   6 C        2.915    -0.039    28.964     8.825
    17   6 C        3.065    -0.008    28.154     8.701
    18   6 C        2.914    -0.039    28.971     8.826
    19   6 C        2.927     0.063    26.589     8.456
    20   7 N        2.755    -0.073    22.657     7.069
    21   6 C        2.928     0.058    26.695     8.473
    22   6 C        2.924    -0.061    29.515     8.909
    23   6 C        2.919    -0.035    28.881     8.813
    24   6 C        2.917    -0.047    29.175     8.857
    25   6 C        2.928    -0.038    28.947     8.823
    26   6 C        2.979    -0.015    28.377     8.738
    27   6 C        3.908     0.021    20.169     6.383
    28   6 C        3.760    -0.103    22.518     6.765
    29   6 C        3.761    -0.103    22.512     6.764
    30   6 C        2.979    -0.015    28.376     8.738
    31   6 C        2.928    -0.038    28.945     8.823
    32   6 C        2.917    -0.047    29.176     8.858
    33   6 C        2.919    -0.035    28.881     8.813
    34   6 C        2.924    -0.061    29.518     8.910
    35   6 C        2.927     0.058    26.697     8.473
    36   6 C        2.926    -0.038    28.953     8.824
    37   6 C        2.909    -0.048    29.185     8.858
    38   6 C        3.064     0.040    27.039     8.527
    39   7 N        2.800    -0.013    21.510     6.888
    40   6 C        2.911     0.080    26.213     8.395
    41   6 C        2.922    -0.033    28.830     8.805
    42   6 C        2.949    -0.014    28.351     8.733
    43   6 C        3.003    -0.090    30.239     9.020
    44   6 C        3.007    -0.081    30.015     8.987
    45   6 C        2.960    -0.036    28.892     8.817
    46  16 S        3.861     0.984   107.121    17.420
    47   8 O        0.860    -0.552    24.970     6.700
    48   8 O        0.860    -0.567    25.314     6.746
    49   6 C        3.006    -0.082    30.031     8.989
    50   6 C        2.954    -0.014    28.367     8.736
    51   6 C        2.920    -0.011    28.291     8.722
    52   6 C        2.920    -0.011    28.288     8.722
    53   6 C        2.953    -0.014    28.364     8.735
    54   6 C        3.006    -0.082    30.022     8.988
    55  16 S        3.858     0.980   107.228    17.428
    56   8 O        0.860    -0.550    24.927     6.694
    57   8 O        0.860    -0.569    25.367     6.753
    58   6 C        2.928     0.058    26.697     8.473
    59   6 C        2.924    -0.061    29.519     8.910
    60   6 C        2.919    -0.035    28.881     8.813
    61   6 C        2.917    -0.047    29.175     8.857
    62   6 C        2.928    -0.038    28.944     8.823
    63   6 C        2.979    -0.015    28.377     8.738
    64   1 H        0.925     0.040     2.445     2.445
    65   1 H        0.925     0.030     2.591     2.517
    66   1 H        0.925     0.041     2.440     2.443
    67   1 H        0.925     0.040     2.446     2.446
    68   1 H        0.925     0.041     2.440     2.443
    69   1 H        0.925     0.029     2.596     2.519
    70   1 H        0.926     0.030     2.581     2.512
    71   1 H        0.926     0.023     2.682     2.561
    72   1 H        0.926     0.025     2.663     2.552
    73   1 H        0.926     0.024     2.674     2.557
    74   1 H        0.926     0.051     2.306     2.375
    75   1 H        0.926     0.051     2.311     2.377
    76   1 H        0.926     0.053     2.289     2.366
    77   1 H        0.926     0.053     2.281     2.362
    78   1 H        0.926     0.024     2.676     2.558
    79   1 H        0.926     0.025     2.663     2.552
    80   1 H        0.926     0.024     2.680     2.560
    81   1 H        0.926     0.031     2.577     2.510
    82   1 H        0.925     0.040     2.443     2.444
    83   1 H        0.925     0.041     2.439     2.442
    84   1 H        0.925     0.030     2.590     2.517
    85   1 H        0.925     0.040     2.444     2.445
    86   1 H        0.925     0.029     2.595     2.519
    87   1 H        0.925     0.041     2.438     2.442
    88   1 H        0.926     0.030     2.581     2.512
    89   1 H        0.926     0.024     2.674     2.557
    90   1 H        0.926     0.026     2.642     2.542
    91   1 H        0.926     0.025     2.657     2.549
    92   1 H        0.926     0.051     2.312     2.378
    93   1 H        0.926     0.049     2.337     2.391
    94   1 H        0.926     0.098     1.803     2.100
    95   1 H        0.926     0.091     1.865     2.135
    96   1 H        0.926     0.090     1.883     2.146
    97   1 H        0.926     0.086     1.919     2.166
    98   1 H        0.926     0.095     1.832     2.117
    99   1 H        0.926     0.095     1.832     2.116
   100   1 H        0.926     0.086     1.915     2.164
   101   1 H        0.926     0.026     2.648     2.545
   102   1 H        0.926     0.026     2.640     2.541
   103   1 H        0.926     0.024     2.677     2.558
   104   1 H        0.926     0.030     2.585     2.514

molecular dipole:
                 x           y           z       tot (Debye)
 q only:        0.571      -1.745       2.869
   full:        0.711      -1.439       2.551       7.660

 projected vibrational frequencies (cm⁻¹)
eigval :       -0.00    -0.00     0.00     0.00     0.00     0.00
eigval :      -11.59     5.37    11.21    11.96    15.45    18.55
eigval :       23.15    30.16    32.53    35.52    49.21    55.09
eigval :       84.63    88.60    92.28    94.64    94.93    99.60
eigval :      102.73   106.57   112.44   118.99   121.06   123.41
eigval :      124.70   128.01   138.51   170.47   175.19   183.49
eigval :      187.27   190.48   201.44   204.52   217.79   218.69
eigval :      220.79   231.94   234.86   237.60   243.05   249.99
eigval :      259.51   267.67   287.52   303.09   303.26   317.02
eigval :      327.82   329.18   330.77   330.94   339.11   344.26
eigval :      347.77   352.00   357.77   366.61   377.76   380.00
eigval :      384.29   392.75   401.58   407.14   410.55   412.09
eigval :      424.03   434.57   437.28   448.80   451.97   457.19
eigval :      460.38   469.48   475.98   485.85   500.40   504.24
eigval :      512.81   514.04   518.43   525.05   534.95   536.53
eigval :      545.87   549.08   549.77   551.41   555.71   566.79
eigval :      581.40   585.51   586.78   610.83   612.92   631.61
eigval :      638.14   647.44   657.61   664.65   672.59   676.46
eigval :      680.97   683.82   685.27   686.42   692.14   692.85
eigval :      695.86   707.55   709.48   717.85   736.68   772.03
eigval :      774.69   775.99   776.22   777.93   778.82   808.82
eigval :      816.57   818.43   826.35   828.04   840.05   861.82
eigval :      863.16   864.17   866.84   872.57   877.66   883.54
eigval :      894.75   895.77   909.53   911.26   911.83   913.06
eigval :      913.09   915.38   916.66   919.22   920.21   920.31
eigval :      920.57   922.92   923.80   927.98   929.84   935.99
eigval :      937.60   950.30   953.98   956.33   958.29   988.86
eigval :      994.64  1011.66  1011.97  1012.61  1031.59  1069.02
eigval :     1075.72  1075.92  1081.28  1083.73  1088.41  1094.55
eigval :     1110.89  1111.10  1114.02  1117.75  1117.98  1135.71
eigval :     1137.61  1138.80  1139.11  1142.73  1146.68  1149.35
eigval :     1157.46  1158.09  1158.47  1164.42  1167.61  1182.61
eigval :     1184.51  1185.23  1185.84  1186.13  1186.48  1188.09
eigval :     1200.93  1206.31  1213.63  1219.35  1222.10  1230.77
eigval :     1235.70  1243.74  1247.21  1247.45  1260.92  1265.60
eigval :     1267.64  1274.66  1293.19  1293.32  1309.46  1313.66
eigval :     1315.10  1320.47  1324.08  1324.64  1332.32  1333.48
eigval :     1333.97  1339.42  1339.46  1346.64  1360.40  1386.72
eigval :     1397.59  1400.54  1400.63  1409.30  1416.33  1419.01
eigval :     1421.62  1423.92  1435.79  1436.29  1440.97  1441.09
eigval :     1458.94  1467.01  1477.15  1477.50  1478.59  1486.43
eigval :     1486.47  1487.14  1487.84  1494.86  1496.30  1496.90
eigval :     1497.85  1501.96  1502.12  1539.05  1555.39  1561.25
eigval :     1566.10  1573.27  1573.50  1573.69  1580.34  1588.32
eigval :     1588.89  1590.19  1590.59  1592.44  1600.25  1600.68
eigval :     1607.56  3019.40  3019.55  3022.34  3022.39  3037.09
eigval :     3037.30  3039.33  3039.50  3045.82  3046.09  3050.34
eigval :     3050.49  3069.63  3069.76  3070.11  3070.74  3076.47
eigval :     3076.50  3077.33  3077.59  3087.86  3087.98  3088.44
eigval :     3088.54  3093.20  3094.13  3096.02  3096.87  3097.10
eigval :     3097.63  3098.07  3099.09  3102.91  3102.98  3103.69
eigval :     3106.32  3107.09  3108.55  3111.68  3112.30  3113.28

   temp. (K)  partition function   enthalpy   heat capacity  entropy
                                   cal/mol     cal/K/mol   cal/K/mol   J/K/mol
 298.15  VIB  0.199E+26            31875.174    198.215    198.584
         ROT  0.250E+09              888.752      2.981     41.406
         INT  0.497E+34            32763.926    201.196    239.989
         TR   0.244E+29             1481.254      4.968     46.111
         TOT                       34245.1799   206.1642   286.1005  1197.0447

       T/K    H(0)-H(T)+PV         H(T)/Eh          T*S/Eh         G(T)/Eh
   ------------------------------------------------------------------------
    298.15    0.545732E-01    0.847965E+00    0.135936E+00    0.712030E+00
   ------------------------------------------------------------------------

         :::::::::::::::::::::::::::::::::::::::::::::::::::::
         ::                  THERMODYNAMIC                  ::
         :::::::::::::::::::::::::::::::::::::::::::::::::::::
         :: total free energy        -167.500389641559 Eh   ::
         ::.................................................::
         :: total energy             -168.212419321438 Eh   ::
         :: zero point energy           0.793392112264 Eh   ::
         :: G(RRHO) w/o ZPVE           -0.081362432385 Eh   ::
         :: G(RRHO) contrib.            0.712029679879 Eh   ::
         :::::::::::::::::::::::::::::::::::::::::::::::::::::

           -------------------------------------------------
          | TOTAL ENERGY             -168.212419321438 Eh   |
          | TOTAL ENTHALPY           -167.364454041328 Eh   |
          | TOTAL FREE ENERGY        -167.500389641559 Eh   |
          | GRADIENT NORM               0.000058678179 Eh/α |
          | HOMO-LUMO GAP               1.191912304586 eV   |
           -------------------------------------------------

 * finished run on 2025/08/24 at 12:37:47.403
