   * xtb version 6.7.1 (edcfbbe) compiled by 'albert@albert-system' on 2024-07-22

   ID    Z sym.   atoms
    1    6 C      1-9, 11-19, 21-38, 40-45, 49-54, 58-63
    2    7 N      10, 20, 39
    3   16 S      46, 55
    4    8 O      47, 48, 56, 57
    5    1 H      64-104

          program call               : xtb data2507/toluene/DMAC-Cz-TTR/DMAC-Cz-TTR_toluene_S0_finalOpt.xtbopt.xyz --gfn 2 --uhf 2 --gbsa toluene --ohess vtight --parallel 40 --molden --ceasefiles --namespace data2507/toluene/DMAC-Cz-TTR/DMAC-Cz-TTR_toluene_T1_preOpt
      * Solvation model:               GBSA
        Solvent                        toluene
        Solvent mass                       9.2140E+01 g/mol
          :  Hamiltonian                  GFN2-xTB          :
 * total energy  :  -168.1363860 Eh     change       -0.4739343E-07 Eh
 * total energy  :  -168.1395637 Eh     change       -0.3177734E-02 Eh
 * total energy  :  -168.1408155 Eh     change       -0.1251807E-02 Eh
 * total energy  :  -168.1410344 Eh     change       -0.2189285E-03 Eh
 * total energy  :  -168.1412401 Eh     change       -0.2056963E-03 Eh
 * total energy  :  -168.1413605 Eh     change       -0.1203925E-03 Eh
 * total energy  :  -168.1414867 Eh     change       -0.1261952E-03 Eh
 * total energy  :  -168.1416030 Eh     change       -0.1162928E-03 Eh
 * total energy  :  -168.1417150 Eh     change       -0.1119455E-03 Eh
 * total energy  :  -168.1418241 Eh     change       -0.1091481E-03 Eh
 * total energy  :  -168.1425621 Eh     change       -0.1636746E-06 Eh
 * total energy  :  -168.1425623 Eh     change       -0.1843087E-06 Eh
 * total energy  :  -168.1425625 Eh     change       -0.2006792E-06 Eh
 * total energy  :  -168.1425627 Eh     change       -0.1931979E-06 Eh
 * total energy  :  -168.1425629 Eh     change       -0.1652418E-06 Eh
 * total energy  :  -168.1425630 Eh     change       -0.1515897E-06 Eh
 * total energy  :  -168.1425632 Eh     change       -0.1565847E-06 Eh
 * total energy  :  -168.1425634 Eh     change       -0.1862568E-06 Eh
 * total energy  :  -168.1425634 Eh     change       -0.2505374E-08 Eh
   *** GEOMETRY OPTIMIZATION CONVERGED AFTER 122 ITERATIONS ***

 final structure:
================
104
 xtb: 6.7.1 (edcfbbe)
C           -8.17058359628317        3.46824735073010       -0.51357442403368
C           -6.87499507135352        4.19994342005078       -0.10931730870755
C           -7.18541875260618        5.66541690045935        0.25593941806576
C           -5.92310284300134        4.18349258632548       -1.28533357323494
C           -6.30879840684831        4.75645700177623       -2.49007515192030
C           -5.48751344665551        4.74533800573511       -3.60242609375736
C           -4.24624607352290        4.13010928243534       -3.52926143551375
C           -3.83496429269579        3.55629240657026       -2.34780908691381
C           -4.65115567088282        3.59346322260660       -1.20669583527792
N           -4.20436915902500        3.02404957682459       -0.03102813506847
C           -2.88113735654517        2.50206975733914        0.01838813676322
C           -1.80099494146507        3.39586701092076        0.03219775560039
C           -0.49846638937455        2.93933744157205        0.09070792729481
C           -0.28572818549454        1.56857258479722        0.13007249670959
C           -1.37548822170002        0.65663989093788        0.08333504272284
C           -2.68124453206842        1.13147920130453        0.04053078373290
C           -0.80685479363107       -0.65456210546793        0.08752270310062
C           -1.35320798205531       -1.93235380336058        0.06437987276293
C           -0.49111617508107       -3.01641826497746        0.10502482778781
N           -1.01988469666568       -4.33641333338040        0.07347421909355
C           -0.83625192395548       -5.10382338666128       -1.06008838596467
C           -0.18059370182841       -4.55396717213836       -2.17263967367530
C            0.02926282526474       -5.30011399291655       -3.30988522102427
C           -0.42355635121453       -6.61014720776187       -3.36925338396431
C           -1.10008478329834       -7.14602135869636       -2.28899607401117
C           -1.32599959520470       -6.41855767797599       -1.12787286125754
C           -2.10474753045717       -7.04646355449383        0.00714519407560
C           -3.51041543456223       -7.41430970348872       -0.50884122040281
C           -1.36426499976763       -8.31415597129954        0.47840192385386
C           -2.24489417765337       -6.10742507651538        1.18490141506558
C           -2.92335478838957       -6.52940028115932        2.32082641052210
C           -3.04923667017889       -5.72662229233360        3.43953585346975
C           -2.46610062875747       -4.46788380724962        3.44548174190905
C           -1.78969800903211       -4.02096438796235        2.33329151482865
C           -1.68856836845743       -4.81768821556950        1.18206384843580
C            0.89799336328302       -2.83891267422275        0.18647930160036
C            1.45576217431847       -1.57565200248517        0.21116559719621
C            0.60343615142582       -0.48223713493516        0.14147435675020
N            0.89707157996080        0.86307591908589        0.16690223202078
C            2.18320206212424        1.41598833490448        0.18940364572422
C            2.50687424486502        2.43175934572535        1.13003739568625
C            3.77112447433532        2.96493450877962        1.15225851641523
C            4.73627826042297        2.54979465111129        0.23781191406449
C            4.41790925697034        1.53003795033687       -0.68540715964239
C            3.15723212808259        0.96517008801934       -0.68963562209406
S            5.70289986087188        0.84916703631279       -1.68122572704906
O            5.23998053060530       -0.43629413920777       -2.19076991535811
O            6.14819349460143        1.77167172656907       -2.70666027012102
C            6.96492336913100        0.54941032046972       -0.47963561536301
C            7.53509662340380       -0.70837622659605       -0.33890569552931
C            8.43986255364079       -0.94787073294850        0.67479948645952
C            8.75390948927206        0.06813823675267        1.58891666865854
C            8.15955438668048        1.30764185372857        1.47507982015633
C            7.27899306390019        1.56503391929315        0.43245954744327
S            6.40089156643447        3.09719203177212        0.33477221217259
O            6.58079068383183        3.81430752978085        1.59051994138753
O            6.79186186014984        3.84565495584696       -0.84532233655255
C           -4.99009498070658        2.97481263467577        1.10341629850526
C           -4.47985487923512        2.40233116939248        2.27874117783018
C           -5.24593764296888        2.32932831643901        3.41987048244761
C           -6.53649986894013        2.83792930144726        3.41881952259436
C           -7.03412808754181        3.42897384998149        2.27213365711438
C           -6.28676605288310        3.51485646474244        1.10485242064855
H           -8.62168693004871        3.93450668369185       -1.38409459326226
H           -7.95189270490033        2.42957915257794       -0.75381190111722
H           -8.89365370014894        3.48999585912010        0.29605030876765
H           -7.63843172714629        6.18324943396016       -0.58419549237096
H           -7.86979771933871        5.71691620834458        1.09744303928300
H           -6.26788187522012        6.18488748806486        0.52624709287344
H           -7.27677290732429        5.22565398759066       -2.56932936276497
H           -5.81661856053181        5.20332041844299       -4.52252771803453
H           -3.60130210189260        4.09458631747311       -4.39409645616094
H           -2.87440318537491        3.06903169439617       -2.29983965701254
H           -1.99961584655533        4.45605406465470        0.00000520162191
H            0.32771377888247        3.63188306533790        0.09673543023351
H           -3.52060252021632        0.45450106247631        0.00994874727279
H           -2.42007266553292       -2.08225478008910        0.00844634191738
H            0.16250106690893       -3.53256448433131       -2.13862603949754
H            0.54210370699960       -4.85887456188289       -4.15097158580797
H           -0.26021629390254       -7.20440601126805       -4.25510713928810
H           -1.46164560403396       -8.15969984978517       -2.35930095284464
H           -3.44554622848600       -8.11168724790762       -1.33844654099855
H           -4.10035302305817       -7.87489160140714        0.27780026439474
H           -4.02780547871337       -6.51985807799400       -0.85029980220493
H           -1.25228385567063       -9.02084747817291       -0.33822574920538
H           -0.37354465911670       -8.05229451344603        0.84522780516054
H           -1.90894356770229       -8.80409377572191        1.27973367513395
H           -3.36490626276171       -7.51321034236218        2.34015953748844
H           -3.58465756186789       -6.08523920675566        4.30514415605085
H           -2.53301111642500       -3.83845894058768        4.31966970719937
H           -1.32187990071167       -3.05001473318350        2.34992631463917
H            1.53425348740796       -3.70880629919048        0.23992248470131
H            2.52358591836890       -1.44731160972677        0.29090772190392
H            1.76353299553871        2.75240870696460        1.84169574779054
H            4.05835473081088        3.71499573873424        1.87304077010630
H            2.95752209626203        0.18705542573791       -1.41017518202680
H            7.24763514769044       -1.47302500891319       -1.04446356004686
H            8.90137835149944       -1.91814069750566        0.76996599819129
H            9.45618029970915       -0.12309353887567        2.38506148899796
H            8.35582840284843        2.10547610457123        2.17515575192669
H           -3.47180624419828        2.02094821952573        2.28992414289202
H           -4.83530147867331        1.88245054871170        4.31237918770007
H           -7.14548083196328        2.78547451781805        4.30819070157316
H           -8.03269168535429        3.83601394421503        2.29394593654887

          :  Hamiltonian                  GFN2-xTB          :
         :: gradient norm              0.000035624216 Eh/a0 ::
         :: HOMO-LUMO gap              0.203653020926 eV    ::
         :: SCC energy              -170.894102768774 Eh    ::
         :: -> dispersion             -0.158807206191 Eh    ::
         :: -> Gsolv                  -0.106543337500 Eh    ::
         :: repulsion energy           2.751539394122 Eh    ::

    * Orbital Energies and Occupations

         #    Occupation            Energy/Eh            Energy/eV
      -------------------------------------------------------------
         1        2.0000           -0.7632135             -20.7681
       ...           ...                  ...                  ...
       143        2.0000           -0.4167144             -11.3394
       144        2.0000           -0.4150426             -11.2939
       145        2.0000           -0.4149930             -11.2925
       146        2.0000           -0.4133202             -11.2470
       147        2.0000           -0.4111173             -11.1871
       148        2.0000           -0.4091098             -11.1324
       149        2.0000           -0.4090837             -11.1317
       150        2.0000           -0.3970908             -10.8054
       151        2.0000           -0.3901688             -10.6170
       152        2.0000           -0.3801191             -10.3436
       153        1.7700           -0.3665502              -9.9743
       154        1.2300           -0.3642544              -9.9119
       155        0.9809           -0.2724657              -7.4142 (HOMO)
       156        0.0191           -0.2649822              -7.2105 (LUMO)
       157                         -0.2475790              -6.7370
       158                         -0.2454279              -6.6784
       159                         -0.2443852              -6.6501
       160                         -0.2442450              -6.6462
       161                         -0.2440958              -6.6422
       162                         -0.2360326              -6.4228
       163                         -0.2356039              -6.4111
       164                         -0.2355009              -6.4083
       165                         -0.2349142              -6.3923
       166                         -0.2346959              -6.3864
       ...                                ...                  ...
       303                          1.2022955              32.7161
      -------------------------------------------------------------
                  HL-Gap            0.0074835 Eh            0.2036 eV

     #   Z          covCN         q      C6AA      α(0)
     1   6 C        3.761    -0.108    22.618     6.780
     2   6 C        3.909     0.024    20.106     6.373
     3   6 C        3.761    -0.107    22.600     6.777
     4   6 C        2.978    -0.000    28.032     8.685
     5   6 C        2.925    -0.032    28.802     8.801
     6   6 C        2.917    -0.031    28.765     8.795
     7   6 C        2.918    -0.027    28.682     8.782
     8   6 C        2.922    -0.048    29.193     8.860
     9   6 C        2.929     0.059    26.667     8.469
    10   7 N        2.755    -0.013    21.502     6.887
    11   6 C        2.929     0.049    26.899     8.505
    12   6 C        2.924    -0.044    29.100     8.846
    13   6 C        2.909    -0.045    29.105     8.846
    14   6 C        3.077     0.043    26.962     8.513
    15   6 C        3.065    -0.014    28.295     8.722
    16   6 C        2.912    -0.042    29.044     8.837
    17   6 C        3.065    -0.014    28.297     8.723
    18   6 C        2.912    -0.042    29.047     8.838
    19   6 C        2.929     0.049    26.895     8.505
    20   7 N        2.755    -0.011    21.469     6.882
    21   6 C        2.928     0.060    26.666     8.469
    22   6 C        2.922    -0.048    29.182     8.859
    23   6 C        2.918    -0.027    28.673     8.781
    24   6 C        2.917    -0.030    28.752     8.793
    25   6 C        2.925    -0.032    28.800     8.801
    26   6 C        2.979     0.000    28.023     8.683
    27   6 C        3.909     0.024    20.105     6.373
    28   6 C        3.761    -0.108    22.620     6.780
    29   6 C        3.761    -0.108    22.613     6.779
    30   6 C        2.979     0.000    28.020     8.683
    31   6 C        2.925    -0.032    28.795     8.800
    32   6 C        2.917    -0.030    28.756     8.794
    33   6 C        2.918    -0.027    28.676     8.781
    34   6 C        2.922    -0.048    29.194     8.861
    35   6 C        2.928     0.059    26.672     8.470
    36   6 C        2.924    -0.044    29.089     8.845
    37   6 C        2.908    -0.044    29.081     8.843
    38   6 C        3.078     0.042    26.971     8.514
    39   7 N        2.799    -0.010    21.456     6.880
    40   6 C        2.910     0.043    27.042     8.527
    41   6 C        2.917    -0.058    29.454     8.900
    42   6 C        2.948    -0.026    28.639     8.777
    43   6 C        3.004    -0.115    30.889     9.117
    44   6 C        3.011    -0.105    30.627     9.078
    45   6 C        2.960    -0.039    28.973     8.829
    46  16 S        3.904     0.903   109.467    17.609
    47   8 O        0.860    -0.579    25.602     6.784
    48   8 O        0.860    -0.595    25.984     6.834
    49   6 C        3.010    -0.099    30.470     9.055
    50   6 C        2.952    -0.026    28.646     8.778
    51   6 C        2.918    -0.036    28.892     8.814
    52   6 C        2.918    -0.035    28.872     8.811
    53   6 C        2.952    -0.026    28.639     8.777
    54   6 C        3.010    -0.098    30.450     9.052
    55  16 S        3.901     0.895   109.712    17.629
    56   8 O        0.860    -0.581    25.654     6.791
    57   8 O        0.860    -0.598    26.065     6.845
    58   6 C        2.928     0.059    26.668     8.469
    59   6 C        2.922    -0.049    29.207     8.862
    60   6 C        2.918    -0.027    28.681     8.782
    61   6 C        2.917    -0.031    28.767     8.795
    62   6 C        2.925    -0.032    28.798     8.801
    63   6 C        2.978    -0.000    28.032     8.685
    64   1 H        0.925     0.051     2.306     2.375
    65   1 H        0.925     0.039     2.464     2.455
    66   1 H        0.925     0.052     2.292     2.368
    67   1 H        0.925     0.051     2.306     2.375
    68   1 H        0.925     0.052     2.301     2.372
    69   1 H        0.925     0.037     2.492     2.469
    70   1 H        0.926     0.050     2.316     2.380
    71   1 H        0.926     0.043     2.408     2.427
    72   1 H        0.926     0.041     2.432     2.439
    73   1 H        0.926     0.044     2.402     2.423
    74   1 H        0.926     0.048     2.342     2.393
    75   1 H        0.926     0.046     2.369     2.407
    76   1 H        0.926     0.057     2.237     2.339
    77   1 H        0.926     0.057     2.228     2.334
    78   1 H        0.926     0.043     2.404     2.425
    79   1 H        0.926     0.041     2.435     2.440
    80   1 H        0.926     0.044     2.398     2.422
    81   1 H        0.926     0.051     2.301     2.372
    82   1 H        0.925     0.052     2.300     2.372
    83   1 H        0.925     0.053     2.285     2.364
    84   1 H        0.925     0.039     2.461     2.453
    85   1 H        0.925     0.052     2.301     2.372
    86   1 H        0.925     0.037     2.488     2.467
    87   1 H        0.925     0.052     2.290     2.367
    88   1 H        0.926     0.051     2.309     2.376
    89   1 H        0.926     0.045     2.384     2.414
    90   1 H        0.926     0.045     2.384     2.414
    91   1 H        0.926     0.046     2.367     2.406
    92   1 H        0.926     0.048     2.345     2.395
    93   1 H        0.926     0.042     2.419     2.432
    94   1 H        0.926     0.064     2.153     2.295
    95   1 H        0.926     0.055     2.253     2.347
    96   1 H        0.926     0.061     2.192     2.315
    97   1 H        0.926     0.056     2.241     2.341
    98   1 H        0.926     0.062     2.170     2.304
    99   1 H        0.926     0.062     2.178     2.308
   100   1 H        0.926     0.054     2.265     2.354
   101   1 H        0.926     0.046     2.368     2.407
   102   1 H        0.926     0.044     2.394     2.419
   103   1 H        0.926     0.044     2.396     2.421
   104   1 H        0.926     0.050     2.321     2.382

molecular dipole:
                 x           y           z       tot (Debye)
 q only:      -14.013      -5.875       2.932
   full:      -13.330      -5.480       2.633      37.239

 projected vibrational frequencies (cm⁻¹)
eigval :       -0.00    -0.00     0.00     0.00     0.00     0.00
eigval :       11.51    12.06    12.75    13.84    15.19    16.94
eigval :       24.84    31.71    35.13    40.21    51.24    64.04
eigval :       86.00    90.18    90.90    93.58    95.12   101.66
eigval :      104.24   108.05   116.32   116.75   124.36   127.37
eigval :      133.59   141.49   147.30   173.98   179.05   183.83
eigval :      185.15   202.95   206.80   210.57   215.21   220.54
eigval :      222.11   235.25   237.32   237.80   253.84   255.12
eigval :      268.03   272.59   288.31   302.26   303.80   323.84
eigval :      325.91   327.38   332.86   334.33   335.87   342.16
eigval :      350.69   358.66   359.44   360.86   379.48   380.75
eigval :      386.70   392.99   395.72   396.58   409.08   409.62
eigval :      410.33   424.34   429.87   435.77   449.47   450.05
eigval :      451.58   464.03   478.80   483.45   501.35   502.41
eigval :      503.39   509.20   514.34   517.10   524.44   535.78
eigval :      540.66   542.24   542.90   550.21   550.58   558.16
eigval :      563.00   583.73   584.19   601.92   611.82   615.93
eigval :      633.00   639.06   639.97   647.63   648.55   665.08
eigval :      672.41   680.65   684.06   689.08   689.48   701.16
eigval :      703.41   703.78   707.23   716.50   733.21   757.48
eigval :      769.27   771.94   773.68   774.47   776.47   789.68
eigval :      806.66   816.94   817.95   826.96   827.23   857.94
eigval :      861.22   867.16   869.79   872.86   872.88   874.52
eigval :      877.89   885.04   899.51   904.00   906.14   908.74
eigval :      912.17   912.74   912.99   916.19   918.56   919.17
eigval :      920.32   924.21   924.63   925.85   926.25   935.56
eigval :      936.00   941.62   949.91   958.19   958.98   981.55
eigval :      987.89  1007.32  1012.55  1012.62  1027.02  1050.57
eigval :     1058.80  1060.39  1073.16  1073.22  1078.38  1080.95
eigval :     1081.73  1105.14  1106.02  1109.57  1111.31  1111.74
eigval :     1127.85  1137.40  1137.50  1141.19  1145.24  1145.32
eigval :     1145.89  1150.37  1154.63  1157.57  1161.84  1166.93
eigval :     1169.85  1181.07  1181.64  1182.48  1182.80  1184.21
eigval :     1184.73  1187.56  1195.29  1208.92  1219.16  1229.30
eigval :     1232.16  1235.19  1240.33  1241.32  1251.57  1254.06
eigval :     1259.40  1278.36  1292.14  1292.38  1296.55  1306.10
eigval :     1308.78  1309.73  1322.34  1326.57  1326.84  1333.53
eigval :     1333.78  1341.36  1345.84  1347.32  1353.60  1365.39
eigval :     1384.53  1395.91  1397.64  1397.89  1402.23  1405.00
eigval :     1414.77  1415.70  1416.17  1416.48  1425.21  1425.97
eigval :     1427.55  1439.96  1450.59  1452.42  1454.49  1470.84
eigval :     1471.74  1475.43  1479.43  1481.13  1481.26  1483.83
eigval :     1485.99  1490.46  1494.15  1495.84  1496.79  1497.30
eigval :     1515.03  1522.19  1549.21  1550.11  1554.21  1558.34
eigval :     1560.27  1562.88  1566.82  1575.90  1576.20  1585.96
eigval :     1587.52  3026.87  3028.92  3030.66  3031.20  3048.00
eigval :     3049.60  3050.63  3051.37  3055.64  3057.20  3059.93
eigval :     3060.88  3084.74  3085.11  3086.13  3086.86  3087.75
eigval :     3090.64  3092.59  3092.79  3093.38  3093.78  3093.97
eigval :     3095.58  3096.55  3096.76  3097.91  3099.01  3101.36
eigval :     3102.13  3102.91  3102.98  3103.34  3103.94  3106.54
eigval :     3107.58  3109.86  3112.03  3113.39  3115.41  3115.70

   temp. (K)  partition function   enthalpy   heat capacity  entropy
                                   cal/mol     cal/K/mol   cal/K/mol   J/K/mol
 298.15  VIB  0.362E+25            31899.944    199.928    197.091
         ROT  0.244E+09              888.752      2.981     41.361
         INT  0.884E+33            32788.696    202.909    238.452
         TR   0.244E+29             1481.254      4.968     46.111
         TOT                       34269.9501   207.8771   284.5635  1190.6138

       T/K    H(0)-H(T)+PV         H(T)/Eh          T*S/Eh         G(T)/Eh
   ------------------------------------------------------------------------
    298.15    0.546126E-01    0.844738E+00    0.135205E+00    0.709533E+00
   ------------------------------------------------------------------------

         :::::::::::::::::::::::::::::::::::::::::::::::::::::
         ::                  THERMODYNAMIC                  ::
         :::::::::::::::::::::::::::::::::::::::::::::::::::::
         :: total free energy        -167.433030338227 Eh   ::
         ::.................................................::
         :: total energy             -168.142563376768 Eh   ::
         :: zero point energy           0.790125716906 Eh   ::
         :: G(RRHO) w/o ZPVE           -0.080592678365 Eh   ::
         :: G(RRHO) contrib.            0.709533038542 Eh   ::
         :::::::::::::::::::::::::::::::::::::::::::::::::::::

           -------------------------------------------------
          | TOTAL ENERGY             -168.142563376768 Eh   |
          | TOTAL ENTHALPY           -167.297825018198 Eh   |
          | TOTAL FREE ENERGY        -167.433030338227 Eh   |
          | GRADIENT NORM               0.000034793233 Eh/α |
          | HOMO-LUMO GAP               0.203635071906 eV   |
           -------------------------------------------------

 * finished run on 2025/08/24 at 12:47:27.061
