   * xtb version 6.7.1 (edcfbbe) compiled by 'albert@albert-system' on 2024-07-22

   ID    Z sym.   atoms
    1    6 C      1-9, 11-19, 21-38, 40-45, 49-54, 58-63
    2    7 N      10, 20, 39
    3   16 S      46, 55
    4    8 O      47, 48, 56, 57
    5    1 H      64-104

          program call               : xtb data2507/toluene/DMAC-Cz-TTR/DMAC-Cz-TTR_toluene_S0_crest.xyz --gfn 2 --gbsa toluene --ohess vtight --parallel 40 --molden --ceasefiles --namespace data2507/toluene/DMAC-Cz-TTR/DMAC-Cz-TTR_toluene_S0_finalOpt
      * Solvation model:               GBSA
        Solvent                        toluene
        Solvent mass                       9.2140E+01 g/mol
          :  Hamiltonian                  GFN2-xTB          :
 * total energy  :  -168.2118254 Eh     change       -0.2688381E-08 Eh
 * total energy  :  -168.2120976 Eh     change       -0.2721384E-03 Eh
 * total energy  :  -168.2123029 Eh     change       -0.2053568E-03 Eh
 * total energy  :  -168.2123286 Eh     change       -0.2564390E-04 Eh
 * total energy  :  -168.2123602 Eh     change       -0.3165471E-04 Eh
 * total energy  :  -168.2123660 Eh     change       -0.5802975E-05 Eh
 * total energy  :  -168.2123699 Eh     change       -0.3826291E-05 Eh
 * total energy  :  -168.2123745 Eh     change       -0.4598160E-05 Eh
 * total energy  :  -168.2123783 Eh     change       -0.3851513E-05 Eh
 * total energy  :  -168.2123804 Eh     change       -0.2116218E-05 Eh
 * total energy  :  -168.2124021 Eh     change       -0.3229533E-06 Eh
 * total energy  :  -168.2124025 Eh     change       -0.3787340E-06 Eh
 * total energy  :  -168.2124030 Eh     change       -0.5097749E-06 Eh
 * total energy  :  -168.2124037 Eh     change       -0.7342373E-06 Eh
 * total energy  :  -168.2124046 Eh     change       -0.9056451E-06 Eh
 * total energy  :  -168.2124055 Eh     change       -0.8680616E-06 Eh
 * total energy  :  -168.2124063 Eh     change       -0.8121470E-06 Eh
 * total energy  :  -168.2124068 Eh     change       -0.5599745E-06 Eh
 * total energy  :  -168.2124069 Eh     change       -0.1010289E-07 Eh
   *** GEOMETRY OPTIMIZATION CONVERGED AFTER 44 ITERATIONS ***

 final structure:
================
104
 xtb: 6.7.1 (edcfbbe)
C           -8.15854095235795        3.35158879827577       -0.51430544535069
C           -6.87491123929805        4.15595259457123       -0.23469001908178
C           -7.21174471557334        5.64800325833176       -0.05262361883362
C           -5.94162764282283        4.00743615158293       -1.42220024028756
C           -6.35962999893091        4.42895162162344       -2.67714518598722
C           -5.55832296460242        4.30993861165818       -3.79824551452540
C           -4.30145033680583        3.74572699948914       -3.67329797658772
C           -3.86089206808485        3.31791450608572       -2.43834911838140
C           -4.66453708911279        3.44824693276234       -1.30131248280002
N           -4.19143371647274        3.01107327082893       -0.07460180560196
C           -2.87245051987835        2.48213391518813        0.00926390515157
C           -1.78802036873464        3.36095506742564        0.08961171718427
C           -0.48974475175914        2.89797344464965        0.18188517576508
C           -0.28891080502276        1.52500622282404        0.21207276653948
C           -1.37666952901617        0.63064323964184        0.09815190467618
C           -2.67479286778309        1.11072997771485       -0.00151159520070
C           -0.82178941026310       -0.69570536521065        0.09995144150003
C           -1.39532500708685       -1.95774741363227        0.04081943056150
C           -0.56244163114469       -3.06317583911355        0.10472132177560
N           -1.11792798948565       -4.37267201124387        0.04657008055753
C           -1.11303027384020       -5.05100824417274       -1.16172683396572
C           -0.57707182425802       -4.43585099573067       -2.29750246592322
C           -0.55257891999530       -5.08612070165754       -3.51349515174062
C           -1.06867285002520       -6.36510758785392       -3.62061780111443
C           -1.61029632368364       -6.97079927444668       -2.50139670598339
C           -1.64726625437774       -6.34024187396833       -1.26503895184919
C           -2.26695366952283       -7.05612352565102       -0.07879703227757
C           -3.74066192802166       -7.36418804034704       -0.40461974268725
C           -1.49286161833660       -8.36446146303557        0.16981439004074
C           -2.21187955872364       -6.21272973751611        1.18183355271681
C           -2.73160223028872       -6.71847113858991        2.36579470305427
C           -2.69883632029905       -6.00285775065062        3.54889907442376
C           -2.12474590137436       -4.74434624182748        3.56129994467433
C           -1.60156441777514       -4.21705981413193        2.39926127136404
C           -1.64507691702889       -4.93343721931551        1.19902093056457
C            0.82065917784543       -2.91016617293151        0.24073242360834
C            1.40711076916248       -1.66039042414684        0.29409797159278
C            0.57980802553729       -0.54955783207035        0.20256643841378
N            0.89339319088279        0.80051518622017        0.27525020554672
C            2.16993323573336        1.33779349093797        0.37146028772247
C            2.44153300249839        2.37279815269881        1.27404155248735
C            3.71099348786930        2.91351748480012        1.35994830808288
C            4.72536609730542        2.42560178419154        0.55183155935078
C            4.46666129252217        1.39340919340897       -0.33006947213028
C            3.20555147238910        0.84595520623708       -0.43151676079353
S            5.79467053522286        0.74736334185286       -1.35161830457419
O            5.42877673071922       -0.58867527153218       -1.75919513615979
O            6.09215283777791        1.67737938041610       -2.40791828364770
C            7.18904507150687        0.63311608611550       -0.22943653520252
C            7.99510450459902       -0.49148510915273       -0.23544720724068
C            9.07287155776572       -0.56138155502996        0.63611337665452
C            9.32992782625411        0.48213848105690        1.51298260442690
C            8.51090018411807        1.60240392335463        1.52348953289513
C            7.44483699370836        1.67241306008568        0.64446289481615
S            6.37621811466744        3.11244281258017        0.63548654945933
O            6.52005521032993        3.79672317704643        1.89844420756576
O            6.63156033222671        3.89412763794346       -0.54588090434240
C           -4.95235526104016        3.10641666365017        1.07982079993694
C           -4.41957679678809        2.67193220882182        2.29760969982698
C           -5.15300509882841        2.75028706435458        3.46304384021442
C           -6.43523913776691        3.26871618400170        3.43594916222138
C           -6.96084005575334        3.70778365072296        2.23431269786055
C           -6.24484914044906        3.64171210367131        1.04668030534729
H           -8.65350646748769        3.71111520321438       -1.41223691826025
H           -7.91390370683532        2.29995850658089       -0.65482834002369
H           -8.85617530260786        3.43367753917166        0.31464139295889
H           -7.66860924308961        6.05494769807298       -0.95051489360298
H           -7.90108853580889        5.79186490874506        0.77480368582602
H           -6.30324540599735        6.21093737147124        0.15561048539257
H           -7.34074150896656        4.86493752730237       -2.79107325666753
H           -5.91546841491007        4.65031662453235       -4.75878336328886
H           -3.66106277948533        3.63621768385697       -4.53658377025237
H           -2.88164173204908        2.87312225034925       -2.34981766502803
H           -1.98041700526583        4.42305745534274        0.07051141171361
H            0.33431722276324        3.59234229856007        0.21411579267314
H           -3.51439244100850        0.43860267603183       -0.08641974321830
H           -2.46371461713037       -2.08277635020807       -0.04206496078734
H           -0.17745742827113       -3.43615754380197       -2.22330506195238
H           -0.13039527868047       -4.59079813729566       -4.37586131396171
H           -1.05493294658523       -6.88630575714445       -4.56620062854038
H           -2.01591859481413       -7.96631515554353       -2.60175740904371
H           -3.82016406677891       -7.98215070401268       -1.29478418171803
H           -4.21817336470377       -7.88961596814192        0.41786250359933
H           -4.28321022218118       -6.43682026236761       -0.58112879753717
H           -1.52155603594133       -9.00482500282132       -0.70743083197923
H           -0.45188210790480       -8.14168763748078        0.39845994543733
H           -1.91750877778907       -8.91384664491877        1.00547156588878
H           -3.17684959310049       -7.70200990018849        2.37215411364318
H           -3.11429657716455       -6.42679346863576        4.45095415155132
H           -2.08175782437352       -4.17044770763936        4.47555708168660
H           -1.15083053274378       -3.23676720394768        2.41741552479654
H            1.43554886400269       -3.79511234148163        0.30461874037328
H            2.47434873426999       -1.56561201069795        0.41469559803633
H            1.65936364583455        2.73284589574780        1.92367203040620
H            3.94400766475243        3.70190818554864        2.05795000800163
H            3.04222516254502        0.05485771034009       -1.14578306455883
H            7.75735601522433       -1.29162402438841       -0.91860779094652
H            9.70703917100189       -1.43418078041394        0.63148747858801
H           10.16516413021296        0.42540738126250        2.19341794295657
H            8.67193496276743        2.42491535573993        2.20240726792597
H           -3.41879401054400        2.26953740441752        2.32706991361505
H           -4.72019633726750        2.40706494220474        4.39147183794067
H           -7.02114417543370        3.33468943381735        4.34058774671130
H           -7.96053637969794        4.11550023697176        2.22879246244289

          :  Hamiltonian                  GFN2-xTB          :
         :: gradient norm              0.000082161940 Eh/a0 ::
         :: HOMO-LUMO gap              1.198145429487 eV    ::
         :: SCC energy              -170.982941684272 Eh    ::
         :: -> dispersion             -0.158656538421 Eh    ::
         :: -> Gsolv                  -0.078545400166 Eh    ::
         :: repulsion energy           2.770534828116 Eh    ::

    * Orbital Energies and Occupations

         #    Occupation            Energy/Eh            Energy/eV
      -------------------------------------------------------------
         1        2.0000           -0.8008661             -21.7927
       ...           ...                  ...                  ...
       142        2.0000           -0.4074745             -11.0879
       143        2.0000           -0.4050596             -11.0222
       144        2.0000           -0.4048215             -11.0158
       145        2.0000           -0.4015120             -10.9257
       146        2.0000           -0.4009753             -10.9111
       147        2.0000           -0.3982782             -10.8377
       148        2.0000           -0.3956915             -10.7673
       149        2.0000           -0.3953863             -10.7590
       150        2.0000           -0.3904528             -10.6248
       151        2.0000           -0.3902281             -10.6186
       152        2.0000           -0.3848999             -10.4737
       153        2.0000           -0.3442978              -9.3688
       154        2.0000           -0.3436238              -9.3505 (HOMO)
       155                         -0.2995928              -8.1523 (LUMO)
       156                         -0.2824016              -7.6845
       157                         -0.2803862              -7.6297
       158                         -0.2733101              -7.4371
       159                         -0.2641131              -7.1869
       160                         -0.2437384              -6.6325
       161                         -0.2220109              -6.0412
       162                         -0.2217770              -6.0349
       163                         -0.2186810              -5.9506
       164                         -0.2169389              -5.9032
       165                         -0.2165954              -5.8939
       ...                                ...                  ...
       303                          1.2142046              33.0402
      -------------------------------------------------------------
                  HL-Gap            0.0440310 Eh            1.1981 eV

     #   Z          covCN         q      C6AA      α(0)
     1   6 C        3.761    -0.103    22.513     6.764
     2   6 C        3.908     0.021    20.168     6.383
     3   6 C        3.761    -0.103    22.513     6.764
     4   6 C        2.979    -0.015    28.375     8.738
     5   6 C        2.928    -0.038    28.946     8.823
     6   6 C        2.917    -0.047    29.174     8.857
     7   6 C        2.919    -0.035    28.882     8.813
     8   6 C        2.924    -0.061    29.517     8.910
     9   6 C        2.927     0.058    26.698     8.474
    10   7 N        2.754    -0.073    22.646     7.068
    11   6 C        2.927     0.063    26.598     8.458
    12   6 C        2.926    -0.039    28.964     8.826
    13   6 C        2.909    -0.048    29.203     8.861
    14   6 C        3.065     0.040    27.035     8.526
    15   6 C        3.065    -0.008    28.155     8.701
    16   6 C        2.914    -0.039    28.969     8.826
    17   6 C        3.065    -0.008    28.156     8.701
    18   6 C        2.915    -0.039    28.976     8.827
    19   6 C        2.927     0.063    26.594     8.457
    20   7 N        2.754    -0.073    22.646     7.068
    21   6 C        2.928     0.058    26.696     8.473
    22   6 C        2.924    -0.061    29.515     8.909
    23   6 C        2.919    -0.035    28.881     8.813
    24   6 C        2.917    -0.047    29.173     8.857
    25   6 C        2.928    -0.038    28.947     8.823
    26   6 C        2.979    -0.015    28.375     8.738
    27   6 C        3.908     0.021    20.169     6.383
    28   6 C        3.761    -0.103    22.514     6.764
    29   6 C        3.761    -0.103    22.517     6.765
    30   6 C        2.979    -0.015    28.374     8.738
    31   6 C        2.928    -0.038    28.945     8.823
    32   6 C        2.917    -0.047    29.174     8.857
    33   6 C        2.919    -0.035    28.879     8.813
    34   6 C        2.924    -0.061    29.517     8.910
    35   6 C        2.927     0.058    26.698     8.474
    36   6 C        2.926    -0.039    28.957     8.825
    37   6 C        2.909    -0.048    29.189     8.859
    38   6 C        3.064     0.040    27.043     8.528
    39   7 N        2.800    -0.014    21.513     6.889
    40   6 C        2.911     0.080    26.212     8.395
    41   6 C        2.922    -0.033    28.833     8.806
    42   6 C        2.950    -0.014    28.352     8.733
    43   6 C        3.003    -0.090    30.239     9.021
    44   6 C        3.006    -0.081    30.014     8.987
    45   6 C        2.960    -0.036    28.889     8.816
    46  16 S        3.860     0.984   107.122    17.420
    47   8 O        0.860    -0.552    24.965     6.699
    48   8 O        0.860    -0.567    25.324     6.747
    49   6 C        3.006    -0.082    30.029     8.989
    50   6 C        2.953    -0.014    28.367     8.736
    51   6 C        2.920    -0.011    28.291     8.722
    52   6 C        2.920    -0.011    28.288     8.722
    53   6 C        2.953    -0.014    28.364     8.735
    54   6 C        3.006    -0.081    30.019     8.988
    55  16 S        3.857     0.980   107.228    17.428
    56   8 O        0.860    -0.550    24.931     6.695
    57   8 O        0.860    -0.569    25.371     6.753
    58   6 C        2.927     0.058    26.698     8.474
    59   6 C        2.924    -0.061    29.518     8.910
    60   6 C        2.919    -0.035    28.880     8.813
    61   6 C        2.917    -0.047    29.173     8.857
    62   6 C        2.928    -0.038    28.944     8.823
    63   6 C        2.979    -0.015    28.375     8.738
    64   1 H        0.925     0.040     2.445     2.445
    65   1 H        0.925     0.030     2.591     2.517
    66   1 H        0.925     0.041     2.440     2.443
    67   1 H        0.925     0.040     2.445     2.445
    68   1 H        0.925     0.041     2.439     2.442
    69   1 H        0.925     0.029     2.595     2.519
    70   1 H        0.926     0.030     2.579     2.511
    71   1 H        0.926     0.023     2.681     2.561
    72   1 H        0.926     0.025     2.664     2.552
    73   1 H        0.926     0.024     2.670     2.555
    74   1 H        0.926     0.051     2.310     2.377
    75   1 H        0.926     0.051     2.313     2.379
    76   1 H        0.926     0.053     2.288     2.365
    77   1 H        0.926     0.053     2.288     2.365
    78   1 H        0.926     0.024     2.672     2.556
    79   1 H        0.926     0.025     2.664     2.552
    80   1 H        0.926     0.024     2.678     2.559
    81   1 H        0.926     0.031     2.576     2.510
    82   1 H        0.925     0.040     2.444     2.445
    83   1 H        0.925     0.041     2.438     2.442
    84   1 H        0.925     0.030     2.592     2.518
    85   1 H        0.925     0.040     2.442     2.444
    86   1 H        0.925     0.030     2.592     2.518
    87   1 H        0.925     0.041     2.438     2.442
    88   1 H        0.926     0.030     2.580     2.512
    89   1 H        0.926     0.024     2.673     2.557
    90   1 H        0.926     0.026     2.641     2.541
    91   1 H        0.926     0.025     2.653     2.547
    92   1 H        0.926     0.051     2.308     2.376
    93   1 H        0.926     0.048     2.341     2.393
    94   1 H        0.926     0.098     1.804     2.100
    95   1 H        0.926     0.091     1.866     2.136
    96   1 H        0.926     0.089     1.886     2.147
    97   1 H        0.926     0.086     1.919     2.166
    98   1 H        0.926     0.095     1.832     2.117
    99   1 H        0.926     0.095     1.832     2.117
   100   1 H        0.926     0.086     1.917     2.165
   101   1 H        0.926     0.026     2.644     2.543
   102   1 H        0.926     0.026     2.639     2.540
   103   1 H        0.926     0.024     2.675     2.558
   104   1 H        0.926     0.030     2.583     2.513

molecular dipole:
                 x           y           z       tot (Debye)
 q only:       -0.105      -1.920       2.798
   full:        0.129      -1.654       2.503       7.633

 projected vibrational frequencies (cm⁻¹)
eigval :       -0.00    -0.00    -0.00    -0.00    -0.00     0.00
eigval :       -3.92     6.88    10.95    13.08    13.86    14.90
eigval :       22.95    31.71    34.30    35.59    51.68    54.46
eigval :       83.28    87.92    90.31    91.28    95.73    98.64
eigval :      103.54   104.81   111.60   120.01   120.93   124.81
eigval :      133.38   135.91   138.20   170.73   174.91   183.41
eigval :      193.77   198.17   201.10   205.15   218.29   218.78
eigval :      220.10   231.03   235.96   237.75   243.92   252.20
eigval :      259.54   267.69   286.83   302.75   304.27   317.31
eigval :      327.53   329.20   330.19   330.71   339.40   344.59
eigval :      348.21   353.26   362.17   368.19   377.45   380.01
eigval :      384.52   393.52   403.79   408.65   410.98   412.41
eigval :      424.17   436.44   437.63   451.32   451.70   457.19
eigval :      461.80   469.61   476.65   487.02   501.28   504.14
eigval :      511.96   515.63   515.66   525.17   535.18   537.62
eigval :      547.08   547.38   550.95   552.23   556.00   567.07
eigval :      580.53   585.79   586.81   612.62   613.23   631.64
eigval :      638.05   647.56   657.87   664.18   672.38   676.28
eigval :      682.87   683.13   683.17   686.47   693.80   694.10
eigval :      694.32   707.71   713.50   717.85   736.68   772.44
eigval :      773.96   775.37   776.37   778.69   779.11   808.70
eigval :      816.47   818.77   826.01   827.99   839.20   862.62
eigval :      865.25   866.46   867.28   871.39   876.28   883.40
eigval :      893.26   894.40   909.24   909.79   912.68   913.30
eigval :      913.49   915.14   916.39   919.02   919.10   919.76
eigval :      920.35   922.62   922.84   928.38   929.14   937.04
eigval :      937.33   950.30   956.25   956.42   956.61   989.18
eigval :      994.83  1011.96  1013.00  1013.57  1031.65  1069.01
eigval :     1076.09  1076.25  1081.86  1083.49  1088.60  1094.19
eigval :     1110.79  1111.20  1114.30  1117.15  1118.00  1136.12
eigval :     1138.93  1139.00  1139.69  1142.63  1146.50  1149.17
eigval :     1157.84  1157.94  1158.70  1167.31  1167.65  1183.36
eigval :     1184.35  1184.97  1186.22  1186.31  1186.94  1187.72
eigval :     1201.18  1206.42  1213.87  1218.96  1222.24  1232.08
eigval :     1236.01  1243.96  1246.24  1247.05  1260.62  1264.65
eigval :     1267.13  1275.32  1292.90  1293.44  1309.45  1313.62
eigval :     1315.03  1320.16  1323.61  1324.19  1332.85  1333.55
eigval :     1333.73  1338.23  1339.19  1347.63  1360.96  1386.76
eigval :     1399.54  1400.18  1401.77  1409.73  1418.13  1418.71
eigval :     1422.04  1424.25  1435.46  1436.07  1440.59  1440.80
eigval :     1458.79  1467.32  1476.79  1477.13  1478.96  1486.94
eigval :     1487.10  1488.13  1488.35  1494.33  1495.92  1496.79
eigval :     1497.65  1503.15  1503.46  1539.02  1555.74  1561.25
eigval :     1565.95  1572.93  1573.50  1573.98  1580.30  1588.35
eigval :     1588.80  1590.25  1590.40  1592.78  1600.30  1600.40
eigval :     1607.93  3020.15  3020.36  3022.73  3022.88  3037.14
eigval :     3037.33  3038.98  3039.25  3046.02  3046.15  3050.09
eigval :     3050.20  3069.75  3069.98  3070.45  3070.56  3076.92
eigval :     3077.03  3077.08  3077.22  3087.93  3088.28  3088.48
eigval :     3088.84  3094.01  3094.51  3096.67  3097.00  3097.06
eigval :     3098.26  3099.05  3100.39  3102.96  3102.99  3105.10
eigval :     3106.33  3107.19  3108.80  3111.81  3113.34  3114.28

   temp. (K)  partition function   enthalpy   heat capacity  entropy
                                   cal/mol     cal/K/mol   cal/K/mol   J/K/mol
 298.15  VIB  0.468E+26            31841.091    198.171    199.260
         ROT  0.250E+09              888.752      2.981     41.407
         INT  0.117E+35            32729.843    201.151    240.667
         TR   0.244E+29             1481.254      4.968     46.111
         TOT                       34211.0968   206.1196   286.7783  1199.8804

       T/K    H(0)-H(T)+PV         H(T)/Eh          T*S/Eh         G(T)/Eh
   ------------------------------------------------------------------------
    298.15    0.545189E-01    0.848082E+00    0.136258E+00    0.711825E+00
   ------------------------------------------------------------------------

         :::::::::::::::::::::::::::::::::::::::::::::::::::::
         ::                  THERMODYNAMIC                  ::
         :::::::::::::::::::::::::::::::::::::::::::::::::::::
         :: total free energy        -167.500582174693 Eh   ::
         ::.................................................::
         :: total energy             -168.212406857717 Eh   ::
         :: zero point energy           0.793563458060 Eh   ::
         :: G(RRHO) w/o ZPVE           -0.081738775036 Eh   ::
         :: G(RRHO) contrib.            0.711824683024 Eh   ::
         :::::::::::::::::::::::::::::::::::::::::::::::::::::

           -------------------------------------------------
          | TOTAL ENERGY             -168.212406857717 Eh   |
          | TOTAL ENTHALPY           -167.364324546636 Eh   |
          | TOTAL FREE ENERGY        -167.500582174693 Eh   |
          | GRADIENT NORM               0.000082175243 Eh/α |
          | HOMO-LUMO GAP               1.198144145545 eV   |
           -------------------------------------------------

 * finished run on 2025/08/24 at 12:47:01.959
