   * xtb version 6.7.1 (edcfbbe) compiled by 'albert@albert-system' on 2024-07-22

   ID    Z sym.   atoms
    1    6 C      1-9, 11-19, 21-38, 40-45, 49-54, 58-63
    2    7 N      10, 20, 39
    3   16 S      46, 55
    4    8 O      47, 48, 56, 57
    5    1 H      64-104

          program call               : xtb data2507/toluene/DMAC-Cz-TTR/DMAC-Cz-TTR_toluene_T1_crest.xyz --gfn 2 --uhf 2 --gbsa toluene --ohess vtight --parallel 40 --molden --ceasefiles --namespace data2507/toluene/DMAC-Cz-TTR/DMAC-Cz-TTR_toluene_T1_finalOpt
      * Solvation model:               GBSA
        Solvent                        toluene
        Solvent mass                       9.2140E+01 g/mol
          :  Hamiltonian                  GFN2-xTB          :
 * total energy  :  -168.1401445 Eh     change       -0.1729811E-07 Eh
 * total energy  :  -168.1411293 Eh     change       -0.9848056E-03 Eh
 * total energy  :  -168.1418439 Eh     change       -0.7146254E-03 Eh
 * total energy  :  -168.1419178 Eh     change       -0.7393633E-04 Eh
 * total energy  :  -168.1420378 Eh     change       -0.1199558E-03 Eh
 * total energy  :  -168.1420854 Eh     change       -0.4757099E-04 Eh
 * total energy  :  -168.1421466 Eh     change       -0.6126185E-04 Eh
 * total energy  :  -168.1421974 Eh     change       -0.5079503E-04 Eh
 * total energy  :  -168.1422491 Eh     change       -0.5162772E-04 Eh
 * total energy  :  -168.1423009 Eh     change       -0.5187710E-04 Eh
 * total energy  :  -168.1425268 Eh     change       -0.8005457E-06 Eh
 * total energy  :  -168.1425276 Eh     change       -0.7944856E-06 Eh
 * total energy  :  -168.1425282 Eh     change       -0.5770599E-06 Eh
 * total energy  :  -168.1425286 Eh     change       -0.3996850E-06 Eh
 * total energy  :  -168.1425289 Eh     change       -0.2928811E-06 Eh
 * total energy  :  -168.1425291 Eh     change       -0.1851706E-06 Eh
 * total energy  :  -168.1425292 Eh     change       -0.1503871E-06 Eh
 * total energy  :  -168.1425294 Eh     change       -0.1536264E-06 Eh
 * total energy  :  -168.1425295 Eh     change       -0.8764090E-07 Eh
   *** GEOMETRY OPTIMIZATION CONVERGED AFTER 65 ITERATIONS ***

 final structure:
================
104
 xtb: 6.7.1 (edcfbbe)
C           -8.24592435767866        3.01981744050738       -0.83959599817066
C           -7.06085890681073        3.83664108046675       -0.28661617237705
C           -7.54083375197266        5.23204076415702        0.16019547096817
C           -6.03668626802633        3.99925548560654       -1.38839133614445
C           -6.39480315321765        4.63893651574925       -2.56784304255712
C           -5.51098621319900        4.78122085503054       -3.62158674490169
C           -4.23346219632487        4.25089872758394       -3.51698277196458
C           -3.84930687444867        3.61232159815013       -2.35977388866636
C           -4.72916369155915        3.49977617261292       -1.27213852280122
N           -4.30923374803062        2.87420895208102       -0.11423471532814
C           -2.96801722466373        2.40931985086767       -0.02802216261721
C           -1.92529396729760        3.34318021771578        0.05812482247388
C           -0.60868150328522        2.93594128162777        0.15346226972321
C           -0.34215940419609        1.57382275407600        0.16079341202696
C           -1.39267299963608        0.62230982916260        0.04644743689428
C           -2.71307356269292        1.04699075151890       -0.03742043826502
C           -0.77403589687568       -0.66613115503213        0.04641061737703
C           -1.26983011261926       -1.96282789011018       -0.01837591068923
C           -0.36937330738671       -3.01432174106843        0.04327915285876
N           -0.84532558781658       -4.35291551470922       -0.02265568273035
C           -0.58885954032514       -5.09852752755438       -1.15665402400891
C            0.07716015798387       -4.50627768566800       -2.24083863141657
C            0.35627883870829       -5.22810051475633       -3.37897215116400
C           -0.03442213375485       -6.55635541863788       -3.46707733366730
C           -0.71908606464362       -7.13566584737212       -2.41470415729471
C           -1.01521500212142       -6.43320519736178       -1.25393280488904
C           -1.79746758940164       -7.11032783333039       -0.14997701068333
C           -3.16149622779015       -7.55303647594985       -0.71610206631019
C           -1.00370443444996       -8.33762698356326        0.34129018317562
C           -2.02943543864871       -6.18833568856637        1.02683780779031
C           -2.72960869345798       -6.65226966926697        2.13290019627043
C           -2.93952701830947       -5.86544503460342        3.25025600606962
C           -2.41961810200549       -4.57988473155899        3.28690729144422
C           -1.72153512248208       -4.09215558012811        2.20562869920298
C           -1.53533617242772       -4.87380926577208        1.05476984243960
C            1.00758360269912       -2.78597713923742        0.18187941081038
C            1.51532383758508       -1.50306622348545        0.24739245139151
C            0.62500802529520       -0.44157628748959        0.16210183085888
N            0.86458342433582        0.91337511718136        0.22827232289798
C            2.12593850288168        1.51292794454929        0.32514991618490
C            2.36633953528569        2.51187143032447        1.30784949468755
C            3.60647708509811        3.09138003952137        1.40376514575756
C            4.62826137495610        2.73882160510483        0.52517224474008
C            4.39346520835424        1.73282888397337       -0.43751286893741
C            3.15662592793830        1.12244568679557       -0.51723314751895
S            5.75090811255362        1.12065019686529       -1.38055733034355
O            5.36078692299434       -0.16846875774744       -1.93938105818830
O            6.21439722639988        2.08047129750022       -2.36274925852029
C            6.96074860103080        0.83818155799064       -0.12230321227777
C            7.56686249305189       -0.40224379430989        0.02226833945482
C            8.42849766763165       -0.63216497436294        1.07504607132715
C            8.66225895471747        0.37467153406549        2.02263291459082
C            8.03120207176696        1.59537948845564        1.90349251665961
C            7.19323689209119        1.84409197135812        0.82426395668290
S            6.26410382403518        3.34521705443925        0.71574049246123
O            6.35537675688363        4.03858321585510        1.99412231493810
O            6.68302015701891        4.13435963778807       -0.42759210604406
C           -5.15088650119323        2.69512049062521        0.96659648570458
C           -4.65840512233593        2.10764871809444        2.14226606519912
C           -5.48075618849867        1.89542806823592        3.22537860886707
C           -6.81333518707203        2.27594330162674        3.16552744855031
C           -7.29442986647129        2.89053840217301        2.02421954233831
C           -6.48875836493715        3.11968894603901        0.91651923976855
H           -8.70279747027459        3.52756785774045       -1.68362300539878
H           -7.90177385065129        2.04193604971022       -1.17096176813291
H           -9.00518698834211        2.87777287485969       -0.07652701995294
H           -7.96915359592131        5.77799232485076       -0.67491569530018
H           -8.29594963473809        5.15003477548897        0.93609436629816
H           -6.70383386458166        5.80597707979056        0.55359173917946
H           -7.39113583489367        5.03806017485977       -2.67402409922088
H           -5.81966236185902        5.28881628857565       -4.52250414184620
H           -3.53802836443511        4.33160911314726       -4.33857961647902
H           -2.85953561200514        3.19067663631423       -2.29166125674687
H           -2.16438009239638        4.39549599717354        0.05375069669539
H            0.18794749640987        3.65978323117207        0.21421470753945
H           -3.52238747542512        0.33870282568802       -0.12153634845177
H           -2.32716719972505       -2.15148681365122       -0.11948369965833
H            0.37291497643968       -3.47109544096583       -2.18420357180192
H            0.87534398053189       -4.75396921829279       -4.19808625782715
H            0.18376021102054       -7.13191186184060       -4.35348106630594
H           -1.03057548109511       -8.16410938454053       -2.50707289430226
H           -3.02910115128716       -8.24453943523462       -1.54252334751557
H           -3.75362913777705       -8.04656377203037        0.04853403015423
H           -3.71409103067100       -6.68739157381447       -1.07611192648243
H           -0.81982824925430       -9.02914692196408       -0.47537899697408
H           -0.04457472014828       -8.02233393234549        0.74790118910246
H           -1.54958840207586       -8.86483505058427        1.11783967646699
H           -3.12225162106759       -7.65679074584064        2.12881251688833
H           -3.49079881495874       -6.25667073766075        4.09139846126218
H           -2.55277859488663       -3.96091628436638        4.16098692251614
H           -1.30246076880081       -3.09999374885842        2.24764975358288
H            1.67409191231803       -3.63204166985409        0.24771717616690
H            2.57341031881715       -1.33609091695417        0.37254263819484
H            1.57928004519057        2.78163319924890        1.99316220964550
H            3.83105459218757        3.83037797545559        2.15748593662769
H            3.02095508281714        0.35723859240436       -1.26595767360343
H            7.34232504071228       -1.16098901112270       -0.71193358357169
H            8.91789230802557       -1.58819383549482        1.17468744598375
H            9.33234209777964        0.19107493412092        2.84775322779505
H            8.16553216406326        2.38483920825940        2.62731649241205
H           -3.61957240009089        1.82661151839491        2.20181936439530
H           -5.08192720259126        1.43925991397834        4.11854974683759
H           -7.46791757054503        2.10957802579746        4.00719561275985
H           -8.32690810982223        3.20169512909919        2.00264666386051

          :  Hamiltonian                  GFN2-xTB          :
         :: gradient norm              0.000153040533 Eh/a0 ::
         :: HOMO-LUMO gap              0.202613641204 eV    ::
         :: SCC energy              -170.893870008304 Eh    ::
         :: -> dispersion             -0.158828954755 Eh    ::
         :: -> Gsolv                  -0.106441594307 Eh    ::
         :: repulsion energy           2.751340470701 Eh    ::

    * Orbital Energies and Occupations

         #    Occupation            Energy/Eh            Energy/eV
      -------------------------------------------------------------
         1        2.0000           -0.7632519             -20.7691
       ...           ...                  ...                  ...
       143        2.0000           -0.4167834             -11.3413
       144        2.0000           -0.4149292             -11.2908
       145        2.0000           -0.4148404             -11.2884
       146        2.0000           -0.4133847             -11.2488
       147        2.0000           -0.4111723             -11.1886
       148        2.0000           -0.4089972             -11.1294
       149        2.0000           -0.4088982             -11.1267
       150        2.0000           -0.3972721             -10.8103
       151        2.0000           -0.3902143             -10.6183
       152        2.0000           -0.3804879             -10.3536
       153        1.7868           -0.3664535              -9.9717
       154        1.2132           -0.3639728              -9.9042
       155        0.9805           -0.2725722              -7.4171 (HOMO)
       156        0.0195           -0.2651265              -7.2145 (LUMO)
       157                         -0.2476773              -6.7396
       158                         -0.2456951              -6.6857
       159                         -0.2442987              -6.6477
       160                         -0.2442240              -6.6457
       161                         -0.2441206              -6.6429
       162                         -0.2360698              -6.4238
       163                         -0.2355379              -6.4093
       164                         -0.2353741              -6.4049
       165                         -0.2348492              -6.3906
       166                         -0.2345916              -6.3836
       ...                                ...                  ...
       303                          1.2023481              32.7176
      -------------------------------------------------------------
                  HL-Gap            0.0074457 Eh            0.2026 eV

     #   Z          covCN         q      C6AA      α(0)
     1   6 C        3.761    -0.108    22.614     6.779
     2   6 C        3.909     0.024    20.107     6.374
     3   6 C        3.761    -0.108    22.606     6.778
     4   6 C        2.979    -0.000    28.032     8.685
     5   6 C        2.925    -0.032    28.803     8.801
     6   6 C        2.917    -0.031    28.766     8.795
     7   6 C        2.918    -0.027    28.684     8.783
     8   6 C        2.922    -0.048    29.199     8.861
     9   6 C        2.928     0.059    26.672     8.469
    10   7 N        2.755    -0.012    21.494     6.886
    11   6 C        2.928     0.049    26.892     8.504
    12   6 C        2.923    -0.044    29.103     8.847
    13   6 C        2.908    -0.044    29.104     8.846
    14   6 C        3.077     0.043    26.962     8.513
    15   6 C        3.065    -0.014    28.289     8.722
    16   6 C        2.912    -0.042    29.037     8.836
    17   6 C        3.065    -0.014    28.294     8.722
    18   6 C        2.912    -0.042    29.047     8.838
    19   6 C        2.929     0.050    26.887     8.504
    20   7 N        2.755    -0.012    21.481     6.884
    21   6 C        2.929     0.059    26.667     8.469
    22   6 C        2.922    -0.048    29.185     8.859
    23   6 C        2.918    -0.027    28.676     8.781
    24   6 C        2.917    -0.030    28.756     8.794
    25   6 C        2.925    -0.032    28.802     8.801
    26   6 C        2.978    -0.000    28.027     8.684
    27   6 C        3.909     0.024    20.106     6.373
    28   6 C        3.761    -0.109    22.621     6.780
    29   6 C        3.761    -0.108    22.608     6.778
    30   6 C        2.978    -0.000    28.024     8.684
    31   6 C        2.925    -0.032    28.797     8.800
    32   6 C        2.917    -0.030    28.761     8.794
    33   6 C        2.918    -0.027    28.679     8.782
    34   6 C        2.922    -0.048    29.200     8.861
    35   6 C        2.928     0.059    26.673     8.470
    36   6 C        2.924    -0.044    29.086     8.844
    37   6 C        2.908    -0.043    29.077     8.842
    38   6 C        3.078     0.042    26.973     8.515
    39   7 N        2.799    -0.010    21.442     6.877
    40   6 C        2.911     0.043    27.045     8.528
    41   6 C        2.917    -0.058    29.454     8.900
    42   6 C        2.949    -0.026    28.639     8.777
    43   6 C        3.004    -0.115    30.890     9.117
    44   6 C        3.011    -0.105    30.629     9.078
    45   6 C        2.960    -0.039    28.971     8.829
    46  16 S        3.904     0.904   109.464    17.609
    47   8 O        0.860    -0.579    25.604     6.784
    48   8 O        0.860    -0.594    25.982     6.834
    49   6 C        3.010    -0.099    30.469     9.055
    50   6 C        2.952    -0.026    28.645     8.778
    51   6 C        2.918    -0.036    28.892     8.814
    52   6 C        2.918    -0.035    28.870     8.811
    53   6 C        2.952    -0.025    28.638     8.777
    54   6 C        3.010    -0.098    30.450     9.052
    55  16 S        3.901     0.895   109.709    17.629
    56   8 O        0.860    -0.581    25.652     6.791
    57   8 O        0.860    -0.598    26.062     6.845
    58   6 C        2.928     0.059    26.674     8.470
    59   6 C        2.922    -0.048    29.203     8.862
    60   6 C        2.918    -0.027    28.683     8.782
    61   6 C        2.917    -0.031    28.766     8.795
    62   6 C        2.925    -0.032    28.799     8.801
    63   6 C        2.979    -0.000    28.031     8.685
    64   1 H        0.925     0.051     2.307     2.375
    65   1 H        0.925     0.039     2.466     2.456
    66   1 H        0.925     0.052     2.293     2.368
    67   1 H        0.925     0.051     2.307     2.375
    68   1 H        0.925     0.052     2.299     2.371
    69   1 H        0.925     0.037     2.490     2.468
    70   1 H        0.926     0.050     2.316     2.380
    71   1 H        0.926     0.043     2.410     2.428
    72   1 H        0.926     0.041     2.434     2.440
    73   1 H        0.926     0.044     2.396     2.421
    74   1 H        0.926     0.049     2.331     2.387
    75   1 H        0.926     0.046     2.365     2.405
    76   1 H        0.926     0.057     2.236     2.339
    77   1 H        0.926     0.058     2.226     2.333
    78   1 H        0.926     0.043     2.407     2.426
    79   1 H        0.926     0.041     2.437     2.441
    80   1 H        0.926     0.044     2.401     2.423
    81   1 H        0.926     0.051     2.305     2.374
    82   1 H        0.925     0.051     2.301     2.372
    83   1 H        0.925     0.053     2.287     2.365
    84   1 H        0.925     0.039     2.461     2.453
    85   1 H        0.925     0.051     2.303     2.373
    86   1 H        0.925     0.037     2.490     2.468
    87   1 H        0.925     0.052     2.292     2.367
    88   1 H        0.926     0.051     2.312     2.378
    89   1 H        0.926     0.045     2.387     2.416
    90   1 H        0.926     0.045     2.386     2.415
    91   1 H        0.926     0.046     2.369     2.407
    92   1 H        0.926     0.048     2.344     2.394
    93   1 H        0.926     0.042     2.417     2.431
    94   1 H        0.926     0.064     2.152     2.294
    95   1 H        0.926     0.056     2.251     2.346
    96   1 H        0.926     0.061     2.191     2.315
    97   1 H        0.926     0.056     2.241     2.341
    98   1 H        0.926     0.063     2.170     2.303
    99   1 H        0.926     0.062     2.178     2.308
   100   1 H        0.926     0.054     2.265     2.353
   101   1 H        0.926     0.046     2.369     2.407
   102   1 H        0.926     0.044     2.393     2.419
   103   1 H        0.926     0.044     2.395     2.420
   104   1 H        0.926     0.050     2.320     2.382

molecular dipole:
                 x           y           z       tot (Debye)
 q only:      -13.901      -6.455       2.217
   full:      -13.220      -6.027       1.955      37.262

 projected vibrational frequencies (cm⁻¹)
eigval :       -0.00    -0.00    -0.00     0.00     0.00     0.00
eigval :        8.51    12.84    13.55    14.65    15.61    19.34
eigval :       23.49    32.47    35.58    40.29    54.59    64.57
eigval :       84.72    89.54    92.20    94.19    97.04   102.13
eigval :      103.33   109.54   118.94   121.78   126.07   128.93
eigval :      134.22   139.51   141.89   174.20   179.19   184.98
eigval :      188.88   201.24   202.87   206.67   215.65   220.79
eigval :      222.65   235.47   237.79   238.37   254.89   256.23
eigval :      268.39   272.02   288.54   303.03   303.83   323.76
eigval :      325.54   327.94   333.13   334.29   336.32   342.81
eigval :      350.84   359.37   360.66   362.67   379.37   380.80
eigval :      386.02   394.04   396.30   397.51   409.51   410.03
eigval :      410.77   424.97   431.70   436.21   449.73   450.88
eigval :      453.06   464.72   478.80   483.03   501.18   502.72
eigval :      504.41   509.57   514.09   516.97   524.55   535.75
eigval :      541.20   542.22   544.05   551.04   551.77   558.17
eigval :      562.80   583.83   584.26   602.02   613.59   616.17
eigval :      632.50   639.13   639.87   647.89   648.78   665.16
eigval :      672.37   681.17   686.36   688.09   690.57   702.23
eigval :      704.56   704.73   707.13   716.52   733.62   761.84
eigval :      770.03   771.73   775.56   775.96   778.51   792.84
eigval :      806.86   817.41   819.75   827.02   827.47   858.20
eigval :      862.91   868.33   871.13   874.51   874.90   877.94
eigval :      878.31   883.00   899.03   905.54   909.15   911.50
eigval :      912.50   912.66   913.01   915.23   920.52   920.73
eigval :      921.08   921.86   925.63   926.54   927.75   935.49
eigval :      936.00   941.90   949.52   957.33   959.09   981.73
eigval :      987.85  1007.37  1009.97  1012.82  1027.15  1050.63
eigval :     1058.85  1060.46  1072.58  1073.27  1078.45  1080.63
eigval :     1081.77  1106.19  1107.11  1110.28  1112.36  1112.56
eigval :     1127.71  1136.83  1138.35  1141.26  1145.29  1145.42
eigval :     1146.48  1152.13  1155.18  1158.38  1162.51  1166.87
eigval :     1170.04  1179.70  1181.75  1183.97  1184.30  1184.84
eigval :     1187.63  1189.81  1194.85  1209.77  1219.41  1229.16
eigval :     1231.98  1235.01  1241.88  1243.37  1252.23  1255.67
eigval :     1260.57  1278.01  1292.10  1292.53  1296.35  1305.77
eigval :     1308.48  1309.19  1322.06  1326.30  1326.57  1333.35
eigval :     1333.57  1341.27  1345.81  1347.31  1354.21  1365.26
eigval :     1384.74  1395.89  1396.78  1397.68  1402.40  1405.14
eigval :     1415.23  1415.54  1416.03  1416.36  1425.04  1426.69
eigval :     1427.59  1440.43  1450.44  1452.58  1454.49  1471.34
eigval :     1471.50  1475.13  1480.37  1480.70  1480.94  1482.58
eigval :     1486.23  1490.98  1492.64  1495.10  1496.96  1497.06
eigval :     1515.02  1522.28  1549.64  1549.97  1554.08  1558.00
eigval :     1560.31  1562.84  1566.97  1576.31  1576.42  1586.20
eigval :     1587.60  3027.68  3028.19  3030.15  3030.67  3048.32
eigval :     3049.34  3050.29  3051.71  3055.87  3056.87  3059.85
eigval :     3061.13  3086.28  3086.48  3086.56  3087.07  3088.20
eigval :     3090.33  3093.15  3093.52  3093.82  3094.09  3094.17
eigval :     3095.52  3096.40  3096.80  3098.08  3099.15  3101.65
eigval :     3102.85  3103.01  3103.27  3103.88  3104.64  3106.64
eigval :     3107.97  3109.56  3112.50  3113.32  3115.36  3115.70

   temp. (K)  partition function   enthalpy   heat capacity  entropy
                                   cal/mol     cal/K/mol   cal/K/mol   J/K/mol
 298.15  VIB  0.310E+25            31862.678    199.896    196.834
         ROT  0.244E+09              888.752      2.981     41.358
         INT  0.755E+33            32751.430    202.876    238.191
         TR   0.244E+29             1481.254      4.968     46.111
         TOT                       34232.6839   207.8445   284.3027  1189.5224

       T/K    H(0)-H(T)+PV         H(T)/Eh          T*S/Eh         G(T)/Eh
   ------------------------------------------------------------------------
    298.15    0.545533E-01    0.844918E+00    0.135081E+00    0.709837E+00
   ------------------------------------------------------------------------

         :::::::::::::::::::::::::::::::::::::::::::::::::::::
         ::                  THERMODYNAMIC                  ::
         :::::::::::::::::::::::::::::::::::::::::::::::::::::
         :: total free energy        -167.432692634392 Eh   ::
         ::.................................................::
         :: total energy             -168.142529537231 Eh   ::
         :: zero point energy           0.790365018855 Eh   ::
         :: G(RRHO) w/o ZPVE           -0.080528116016 Eh   ::
         :: G(RRHO) contrib.            0.709836902839 Eh   ::
         :::::::::::::::::::::::::::::::::::::::::::::::::::::

           -------------------------------------------------
          | TOTAL ENERGY             -168.142529537231 Eh   |
          | TOTAL ENTHALPY           -167.297611264189 Eh   |
          | TOTAL FREE ENERGY        -167.432692634392 Eh   |
          | GRADIENT NORM               0.000152429488 Eh/α |
          | HOMO-LUMO GAP               0.202608133154 eV   |
           -------------------------------------------------

 * finished run on 2025/08/24 at 12:58:13.109
