   * xtb version 6.7.1 (edcfbbe) compiled by 'albert@albert-system' on 2024-07-22

   ID    Z sym.   atoms
    1    6 C      1-5, 7-24, 26-33, 35-39, 41-59
    2    7 N      6, 25, 34, 40
    3    1 H      60-99

          program call               : xtb data2507/toluene/Spiro-CN/Spiro-CN_toluene_T1_crest.xyz --gfn 2 --uhf 2 --gbsa toluene --ohess vtight --parallel 40 --molden --ceasefiles --namespace data2507/toluene/Spiro-CN/Spiro-CN_toluene_T1_finalOpt
      * Solvation model:               GBSA
        Solvent                        toluene
        Solvent mass                       9.2140E+01 g/mol
          :  Hamiltonian                  GFN2-xTB          :
 * total energy  :  -149.8727830 Eh     change       -0.1663182E-08 Eh
 * total energy  :  -149.8730715 Eh     change       -0.2885018E-03 Eh
 * total energy  :  -149.8732693 Eh     change       -0.1977264E-03 Eh
 * total energy  :  -149.8733370 Eh     change       -0.6772403E-04 Eh
 * total energy  :  -149.8734429 Eh     change       -0.1058894E-03 Eh
 * total energy  :  -149.8736073 Eh     change       -0.1644017E-03 Eh
 * total energy  :  -149.8737690 Eh     change       -0.1616918E-03 Eh
 * total energy  :  -149.8739379 Eh     change       -0.1688812E-03 Eh
 * total energy  :  -149.8741365 Eh     change       -0.1986371E-03 Eh
 * total energy  :  -149.8743564 Eh     change       -0.2199434E-03 Eh
 * total energy  :  -149.8761525 Eh     change       -0.2952285E-06 Eh
 * total energy  :  -149.8761528 Eh     change       -0.3779639E-06 Eh
 * total energy  :  -149.8761531 Eh     change       -0.2647296E-06 Eh
 * total energy  :  -149.8761533 Eh     change       -0.1910158E-06 Eh
 * total energy  :  -149.8761535 Eh     change       -0.2075828E-06 Eh
 * total energy  :  -149.8761537 Eh     change       -0.1740333E-06 Eh
 * total energy  :  -149.8761538 Eh     change       -0.1277041E-06 Eh
 * total energy  :  -149.8761539 Eh     change       -0.1003694E-06 Eh
 * total energy  :  -149.8761540 Eh     change       -0.9886830E-07 Eh
   *** GEOMETRY OPTIMIZATION CONVERGED AFTER 62 ITERATIONS ***

 final structure:
================
99
 xtb: 6.7.1 (edcfbbe)
C           -8.44911013261465       -4.38488391945631        2.83756560643035
C           -7.48829636651673       -3.46721725568499        2.15038105666084
C           -6.23927269072100       -3.19064561053013        2.69807985191134
C           -5.34661889714430       -2.35686631900028        2.05570539309603
C           -5.68589525147827       -1.77431576638458        0.83341163333497
N           -4.78655879969658       -0.92309100902033        0.17965407908395
C           -5.27236397288288        0.21388282421144       -0.47804339915390
C           -4.71756079671775        0.62125256230790       -1.69267180526536
C           -5.19786931963666        1.74395891839214       -2.33565878801849
C           -6.24442639276839        2.48677438095773       -1.79886253513580
C           -6.76781033773426        3.70703246662934       -2.48790403610545
C           -6.79964858042410        2.06804970632661       -0.59088870224128
C           -6.32561693552390        0.95248594150527        0.06587031350667
C           -3.43358353038789       -1.20565919144996        0.16783435127199
C           -2.98467501018235       -2.54186582465480        0.15650809993957
C           -1.64698085159666       -2.84463000792466        0.09239404142352
C           -0.71231177470436       -1.80400452716703        0.04751792348523
C           -1.16406341561903       -0.46078705224523        0.08044212083708
C           -2.49419151576093       -0.15631291289565        0.13632737147499
C            0.00234775408512        0.48857691877778       -0.00649082407343
C            0.14618404482013        1.44978834125882        1.15462202126504
C            0.34190459870781        1.15226386843070        2.46942215827922
C            0.49969298214211        2.21694019370976        3.38979089615320
C            0.71894767650027        1.94578742623257        4.73736261054235
N            0.91292323371568        1.71570295789096        5.85514608809024
C            0.45124839218509        3.55239222133853        2.93070898315149
C            0.25419660542874        3.84104184789709        1.60591026110460
C            0.10031779552527        2.79074959550763        0.68599925848659
C           -0.09394287165978        2.78405628401322       -0.72115192174528
C           -0.24707766859191        3.82553313457842       -1.65114092969007
C           -0.44338822355821        3.52423499853539       -2.97322658698938
C           -0.49191438680321        2.18446831585534       -3.41954664195358
C           -0.70983828545332        1.90056278524929       -4.76470277646011
N           -0.90234387480135        1.65977307606680       -5.88047622861745
C           -0.33525366502547        1.12858740796547       -2.48891251601771
C           -0.14018313331796        1.43868014088547       -1.17692113437151
C            1.16666838938423       -0.46405346955055       -0.08472473950898
C            2.49752564188812       -0.16300556171574       -0.14156757202375
C            3.43465866292219       -1.21464910626352       -0.16307563153611
N            4.78819605946226       -0.93514604616330       -0.17444086506770
C            5.27513599818274        0.20654340121168        0.47427185575523
C            6.33036737285908        0.93865420767969       -0.07456807975765
C            6.80415656976721        2.06011475167303        0.57223524434667
C            6.24686937743084        2.49103675749976        1.77501302869804
C            6.77248054911778        3.71519264070512        2.45541873398909
C            5.19936384844436        1.75376904903583        2.31748023998265
C            4.71899284217520        0.62551815455594        1.68428990868731
C            5.68724774087855       -1.79473901553246       -0.81765394582367
C            5.35000542713734       -2.38624187540261       -2.03718262860484
C            6.24144670264199       -3.22796794297280       -2.66824493265794
C            7.48817573743896       -3.50620388753178       -2.11228607619782
C            8.43563452886765       -4.43744800709707       -2.79975168249331
C            7.81694656345923       -2.91002098477272       -0.89851887798184
C            6.93507416109635       -2.06559072021708       -0.25492191404402
C            2.98274129779209       -2.54972544802961       -0.14200203749287
C            1.64429044019368       -2.84898383394806       -0.07708721710476
C            0.71190663468060       -1.80596532856590       -0.04131136188552
C           -6.93760774015045       -2.04528007227507        0.27713354357381
C           -7.81947781008234       -2.87952919463928        0.93134341436262
H           -9.46528419962277       -4.00240376757497        2.76725750630673
H           -8.18795494174389       -4.51035106065359        3.88518162177608
H           -8.42998407579625       -5.36590936475756        2.36140350354115
H           -5.96401725170986       -3.62592554637003        3.64757569816156
H           -4.38858697273737       -2.13441325713246        2.50226200276498
H           -3.91882953753671        0.04539666923469       -2.13615343560924
H           -4.75404599408266        2.04057560378919       -3.27522173035892
H           -6.59301933369324        4.58948393906481       -1.87255864285328
H           -6.27951515503227        3.85257927769021       -3.44789781298946
H           -7.84188452227405        3.62308332409152       -2.64759949779313
H           -7.60999173132864        2.63474878178424       -0.15628979192806
H           -6.75516795743592        0.65200792770587        1.00999881798108
H           -3.71713043996671       -3.33512458587799        0.16073799175039
H           -1.32234346005196       -3.87296553089522        0.05498477864758
H           -2.82603308093879        0.87065435912471        0.16866686139042
H            0.38234269460462        0.13073831094351        2.82433167642225
H            0.57608199404051        4.34882236982972        3.65260234729281
H            0.22442955751422        4.86705336863881        1.26813425318117
H           -0.21718477599686        4.85471493876000       -1.32317509671143
H           -0.56745012866141        4.31368871927210       -3.70285044537495
H           -0.37584142359937        0.10368474292347       -2.83399926265620
H            2.83170603379861        0.86291558833796       -0.18170172776893
H            6.76123564923713        0.62871317119588       -1.01503224466223
H            7.61574626001787        2.62192363620991        0.13360897318818
H            6.23295589660101        3.91018835514677        3.37851582770322
H            7.83055739799464        3.59597162644119        2.68588157141537
H            6.67215032372198        4.58214916962902        1.80305730539821
H            4.75454791477880        2.05950329865962        3.25362964040840
H            3.91889315422745        0.05464660529413        2.13175358727425
H            4.39446204915684       -2.16336644572635       -2.48887041600334
H            5.97049688124752       -3.67118210484233       -3.61532709851883
H            8.42717362063422       -4.27114064585070       -3.87500865302710
H            9.44889748384042       -4.30917787237461       -2.42797827871259
H            8.13490720464702       -5.47061126435818       -2.62163859115960
H            8.77613548501044       -3.11511726447564       -0.44631298789781
H            7.19890004952534       -1.62011810229518        0.69272360149031
H            3.71339283272746       -3.34465588497047       -0.13898269137734
H            1.31729798820150       -3.87626388580036       -0.03196496212240
H           -7.20285110201017       -1.60690579231848       -0.67342138016427
H           -8.78201985458372       -3.08575387990947        0.48683895939585

          :  Hamiltonian                  GFN2-xTB          :
         :: gradient norm              0.000053295566 Eh/a0 ::
         :: HOMO-LUMO gap              0.092496912529 eV    ::
         :: SCC energy              -152.716747972373 Eh    ::
         :: -> dispersion             -0.140224168570 Eh    ::
         :: -> Gsolv                  -0.082202273137 Eh    ::
         :: repulsion energy           2.840593970181 Eh    ::

    * Orbital Energies and Occupations

         #    Occupation            Energy/Eh            Energy/eV
      -------------------------------------------------------------
         1        2.0000           -0.6854843             -18.6530
       ...           ...                  ...                  ...
       129        2.0000           -0.4083123             -11.1107
       130        2.0000           -0.4081033             -11.1051
       131        2.0000           -0.4074252             -11.0866
       132        2.0000           -0.4040707             -10.9953
       133        2.0000           -0.4036536             -10.9840
       134        2.0000           -0.4005150             -10.8986
       135        2.0000           -0.3988218             -10.8525
       136        2.0000           -0.3975165             -10.8170
       137        2.0000           -0.3949830             -10.7480
       138        1.9997           -0.3687594             -10.0345
       139        1.9980           -0.3669413              -9.9850
       140        1.0023           -0.3552723              -9.6675
       141        0.8568           -0.2727941              -7.4231 (HOMO)
       142        0.1432           -0.2693952              -7.3306 (LUMO)
       143                         -0.2414114              -6.5691
       144                         -0.2413161              -6.5665
       145                         -0.2389862              -6.5031
       146                         -0.2377933              -6.4707
       147                         -0.2338114              -6.3623
       148                         -0.2331585              -6.3446
       149                         -0.2325806              -6.3288
       150                         -0.2323432              -6.3224
       151                         -0.2302453              -6.2653
       152                         -0.2279288              -6.2023
       ...                                ...                  ...
       276                          1.1696611              31.8281
      -------------------------------------------------------------
                  HL-Gap            0.0033989 Eh            0.0925 eV

     #   Z          covCN         q      C6AA      α(0)
     1   6 C        3.758    -0.115    22.745     6.799
     2   6 C        2.965     0.024    27.456     8.595
     3   6 C        2.923    -0.036    28.890     8.814
     4   6 C        2.919    -0.041    29.016     8.833
     5   6 C        2.927     0.057    26.721     8.477
     6   7 N        2.753    -0.024    21.715     6.921
     7   6 C        2.928     0.058    26.699     8.474
     8   6 C        2.920    -0.039    28.976     8.827
     9   6 C        2.923    -0.034    28.855     8.809
    10   6 C        2.965     0.024    27.465     8.596
    11   6 C        3.758    -0.113    22.722     6.796
    12   6 C        2.924    -0.036    28.905     8.817
    13   6 C        2.919    -0.042    29.037     8.837
    14   6 C        2.928     0.062    26.612     8.460
    15   6 C        2.919    -0.044    29.102     8.846
    16   6 C        2.910    -0.032    28.799     8.800
    17   6 C        3.035     0.001    27.959     8.673
    18   6 C        3.057     0.010    27.742     8.638
    19   6 C        2.913    -0.046    29.146     8.853
    20   6 C        3.972     0.011    20.321     6.405
    21   6 C        3.050    -0.007    28.140     8.700
    22   6 C        2.917    -0.038    28.940     8.822
    23   6 C        2.972    -0.023    28.571     8.768
    24   6 C        1.912     0.101    28.585     8.634
    25   7 N        0.911    -0.357    29.194     7.814
    26   6 C        2.923    -0.034    28.835     8.806
    27   6 C        2.909    -0.045    29.117     8.848
    28   6 C        3.031    -0.016    28.382     8.738
    29   6 C        3.031    -0.016    28.382     8.738
    30   6 C        2.909    -0.045    29.117     8.848
    31   6 C        2.923    -0.034    28.835     8.806
    32   6 C        2.972    -0.023    28.571     8.768
    33   6 C        1.912     0.101    28.585     8.634
    34   7 N        0.911    -0.357    29.193     7.814
    35   6 C        2.917    -0.038    28.940     8.822
    36   6 C        3.050    -0.007    28.139     8.700
    37   6 C        3.057     0.010    27.743     8.638
    38   6 C        2.913    -0.046    29.146     8.853
    39   6 C        2.928     0.062    26.611     8.460
    40   7 N        2.753    -0.024    21.716     6.921
    41   6 C        2.928     0.058    26.700     8.474
    42   6 C        2.919    -0.042    29.037     8.837
    43   6 C        2.924    -0.036    28.905     8.817
    44   6 C        2.965     0.024    27.466     8.596
    45   6 C        3.758    -0.113    22.722     6.796
    46   6 C        2.923    -0.034    28.855     8.809
    47   6 C        2.920    -0.039    28.976     8.827
    48   6 C        2.927     0.057    26.721     8.477
    49   6 C        2.919    -0.041    29.016     8.833
    50   6 C        2.924    -0.036    28.896     8.815
    51   6 C        2.965     0.024    27.455     8.595
    52   6 C        3.758    -0.115    22.744     6.799
    53   6 C        2.924    -0.036    28.888     8.814
    54   6 C        2.919    -0.041    29.023     8.834
    55   6 C        2.919    -0.044    29.102     8.846
    56   6 C        2.910    -0.032    28.799     8.800
    57   6 C        3.035     0.001    27.960     8.673
    58   6 C        2.919    -0.041    29.023     8.834
    59   6 C        2.924    -0.036    28.894     8.815
    60   1 H        0.925     0.055     2.257     2.349
    61   1 H        0.925     0.051     2.303     2.373
    62   1 H        0.924     0.060     2.199     2.319
    63   1 H        0.926     0.046     2.366     2.406
    64   1 H        0.926     0.041     2.431     2.438
    65   1 H        0.926     0.038     2.482     2.464
    66   1 H        0.926     0.039     2.455     2.450
    67   1 H        0.925     0.057     2.229     2.335
    68   1 H        0.925     0.048     2.344     2.394
    69   1 H        0.925     0.059     2.212     2.326
    70   1 H        0.926     0.049     2.327     2.385
    71   1 H        0.926     0.046     2.372     2.409
    72   1 H        0.926     0.049     2.328     2.386
    73   1 H        0.926     0.050     2.318     2.381
    74   1 H        0.926     0.036     2.497     2.471
    75   1 H        0.925     0.007     2.935     2.679
    76   1 H        0.925     0.012     2.856     2.643
    77   1 H        0.926     0.017     2.774     2.604
    78   1 H        0.926     0.017     2.773     2.604
    79   1 H        0.925     0.012     2.855     2.642
    80   1 H        0.925     0.007     2.935     2.679
    81   1 H        0.926     0.036     2.497     2.471
    82   1 H        0.926     0.046     2.372     2.409
    83   1 H        0.926     0.049     2.326     2.385
    84   1 H        0.925     0.048     2.347     2.396
    85   1 H        0.925     0.059     2.206     2.322
    86   1 H        0.925     0.057     2.233     2.337
    87   1 H        0.926     0.039     2.456     2.451
    88   1 H        0.926     0.038     2.482     2.464
    89   1 H        0.926     0.041     2.430     2.438
    90   1 H        0.926     0.047     2.356     2.400
    91   1 H        0.925     0.055     2.262     2.352
    92   1 H        0.925     0.052     2.296     2.370
    93   1 H        0.924     0.060     2.201     2.320
    94   1 H        0.926     0.048     2.350     2.397
    95   1 H        0.926     0.044     2.401     2.423
    96   1 H        0.926     0.049     2.329     2.386
    97   1 H        0.926     0.050     2.318     2.381
    98   1 H        0.926     0.044     2.399     2.422
    99   1 H        0.926     0.048     2.339     2.392

molecular dipole:
                 x           y           z       tot (Debye)
 q only:       -0.023      -4.022       0.006
   full:       -0.028      -3.718      -0.000       9.450

 projected vibrational frequencies (cm⁻¹)
eigval :       -0.00     0.00     0.00     0.00     0.00     0.00
eigval :        1.63     6.56    11.43    11.84    16.76    18.28
eigval :       20.44    27.44    31.04    35.88    38.60    41.40
eigval :       41.49    44.99    48.18    49.81    50.45    55.89
eigval :       68.08    75.43    76.69    80.03    89.98    94.58
eigval :      124.54   128.36   136.23   138.22   149.35   151.28
eigval :      156.00   156.81   175.24   197.35   200.13   213.14
eigval :      227.19   241.45   257.12   258.53   268.75   281.87
eigval :      289.40   291.49   293.63   299.77   315.88   327.26
eigval :      338.76   346.27   352.47   355.25   356.37   364.83
eigval :      374.87   377.92   378.36   381.91   382.56   383.35
eigval :      400.64   414.70   424.95   436.50   437.56   444.87
eigval :      445.87   453.23   464.49   471.65   479.38   491.77
eigval :      500.12   508.14   519.95   521.99   532.83   534.54
eigval :      545.82   557.98   559.80   568.19   577.30   597.58
eigval :      598.59   606.00   607.16   609.24   610.30   611.50
eigval :      615.03   627.78   645.69   664.66   664.94   665.53
eigval :      665.68   671.10   683.79   685.14   689.72   721.79
eigval :      724.75   751.51   756.23   792.27   792.70   798.88
eigval :      804.45   805.03   807.29   807.69   807.89   817.76
eigval :      820.07   824.42   826.40   853.97   858.17   860.68
eigval :      865.64   865.79   866.06   867.02   876.24   879.94
eigval :      885.02   897.15   900.21   906.08   908.07   914.97
eigval :      915.44   917.24   918.04   926.82   926.93   929.19
eigval :      930.02   931.15   932.21   937.72   963.52   980.00
eigval :      985.00  1002.69  1007.22  1008.10  1008.27  1008.84
eigval :     1009.54  1017.00  1022.71  1025.10  1026.43  1027.02
eigval :     1027.63  1027.82  1030.54  1060.28  1119.87  1136.12
eigval :     1141.69  1141.82  1144.44  1144.95  1149.38  1152.18
eigval :     1162.24  1164.94  1171.81  1186.48  1191.22  1191.84
eigval :     1192.36  1198.61  1204.38  1218.91  1219.55  1220.65
eigval :     1231.19  1232.93  1234.30  1252.56  1255.38  1261.82
eigval :     1262.88  1269.95  1270.68  1274.30  1274.77  1282.06
eigval :     1302.01  1303.80  1306.96  1309.10  1314.18  1320.53
eigval :     1321.45  1327.50  1327.98  1328.05  1339.98  1346.54
eigval :     1360.85  1399.53  1399.93  1400.02  1400.30  1405.72
eigval :     1409.72  1410.37  1410.69  1412.27  1413.21  1421.92
eigval :     1424.11  1452.99  1456.06  1461.16  1461.29  1469.41
eigval :     1469.68  1469.75  1470.85  1471.37  1471.96  1472.75
eigval :     1473.23  1474.28  1476.80  1477.11  1479.23  1480.35
eigval :     1480.59  1492.51  1531.19  1554.50  1554.87  1559.37
eigval :     1559.54  1563.42  1585.51  1585.56  1587.47  1589.68
eigval :     1590.01  1591.21  1606.12  2265.96  2281.25  2996.14
eigval :     2996.79  3003.18  3004.78  3018.09  3019.29  3031.41
eigval :     3031.86  3045.58  3045.94  3048.09  3048.27  3052.63
eigval :     3053.97  3056.48  3057.33  3071.50  3074.08  3075.45
eigval :     3075.67  3078.07  3078.08  3080.17  3080.64  3081.15
eigval :     3081.48  3086.52  3087.78  3088.29  3088.45  3089.18
eigval :     3089.39  3090.71  3091.19  3092.11  3092.28  3093.32
eigval :     3093.79  3097.48  3099.43

   temp. (K)  partition function   enthalpy   heat capacity  entropy
                                   cal/mol     cal/K/mol   cal/K/mol   J/K/mol
 298.15  VIB  0.144E+29            31086.410    182.157    201.483
         ROT  0.142E+09              888.752      2.981     40.280
         INT  0.204E+37            31975.162    185.138    241.763
         TR   0.201E+29             1481.254      4.968     45.731
         TOT                       33456.4160   190.1058   287.4937  1202.8738

       T/K    H(0)-H(T)+PV         H(T)/Eh          T*S/Eh         G(T)/Eh
   ------------------------------------------------------------------------
    298.15    0.533162E-01    0.816715E+00    0.136598E+00    0.680117E+00
   ------------------------------------------------------------------------

         :::::::::::::::::::::::::::::::::::::::::::::::::::::
         ::                  THERMODYNAMIC                  ::
         :::::::::::::::::::::::::::::::::::::::::::::::::::::
         :: total free energy        -149.196037017377 Eh   ::
         ::.................................................::
         :: total energy             -149.876154006834 Eh   ::
         :: zero point energy           0.763398351034 Eh   ::
         :: G(RRHO) w/o ZPVE           -0.083281361578 Eh   ::
         :: G(RRHO) contrib.            0.680116989456 Eh   ::
         :::::::::::::::::::::::::::::::::::::::::::::::::::::

           -------------------------------------------------
          | TOTAL ENERGY             -149.876154006834 Eh   |
          | TOTAL ENTHALPY           -149.059439463168 Eh   |
          | TOTAL FREE ENERGY        -149.196037017377 Eh   |
          | GRADIENT NORM               0.000053433726 Eh/α |
          | HOMO-LUMO GAP               0.092488706957 eV   |
           -------------------------------------------------

 * finished run on 2025/09/12 at 23:43:16.972
