   * xtb version 6.7.1 (edcfbbe) compiled by 'albert@albert-system' on 2024-07-22

   ID    Z sym.   atoms
    1    6 C      1-5, 7-24, 26-33, 35-39, 41-59
    2    7 N      6, 25, 34, 40
    3    1 H      60-99

          program call               : xtb data2507/toluene/Spiro-CN/Spiro-CN.xyz --gfn 2 --gbsa toluene --ohess vtight --parallel 40 --molden --ceasefiles --namespace data2507/toluene/Spiro-CN/Spiro-CN_toluene_S0_preOpt
      * Solvation model:               GBSA
        Solvent                        toluene
        Solvent mass                       9.2140E+01 g/mol
          :  Hamiltonian                  GFN2-xTB          :
 * total energy  :  -149.9166042 Eh     change       -0.1662698E-08 Eh
 * total energy  :  -149.9320861 Eh     change       -0.1548186E-01 Eh
 * total energy  :  -149.9376751 Eh     change       -0.5589041E-02 Eh
 * total energy  :  -149.9397971 Eh     change       -0.2121964E-02 Eh
 * total energy  :  -149.9408896 Eh     change       -0.1092479E-02 Eh
 * total energy  :  -149.9411520 Eh     change       -0.2624324E-03 Eh
 * total energy  :  -149.9410536 Eh     change        0.9836895E-04 Eh
 * total energy  :  -149.9414284 Eh     change       -0.3747683E-03 Eh
 * total energy  :  -149.9415141 Eh     change       -0.8573542E-04 Eh
 * total energy  :  -149.9414691 Eh     change        0.4502221E-04 Eh
 * total energy  :  -149.9420383 Eh     change       -0.9142190E-06 Eh
 * total energy  :  -149.9420391 Eh     change       -0.8357628E-06 Eh
 * total energy  :  -149.9420399 Eh     change       -0.7920107E-06 Eh
 * total energy  :  -149.9420407 Eh     change       -0.7869074E-06 Eh
 * total energy  :  -149.9420415 Eh     change       -0.8027567E-06 Eh
 * total energy  :  -149.9420423 Eh     change       -0.8564187E-06 Eh
 * total energy  :  -149.9420432 Eh     change       -0.9057148E-06 Eh
 * total energy  :  -149.9420442 Eh     change       -0.9564496E-06 Eh
 * total energy  :  -149.9420442 Eh     change       -0.3472962E-08 Eh
   *** GEOMETRY OPTIMIZATION CONVERGED AFTER 94 ITERATIONS ***

 final structure:
================
99
 xtb: 6.7.1 (edcfbbe)
C           -8.61116361414812       -4.93350362153198       -0.31862168253095
C           -7.60137558030481       -3.82758757135665       -0.38252129507817
C           -6.37142430962513       -3.94118623474916        0.25483992313482
C           -5.45025459521245       -2.91259629371723        0.22087322037743
C           -5.73460015880221       -1.73501502935996       -0.46822273564654
N           -4.80252435267201       -0.68770256071146       -0.50688223314652
C           -5.24538638612581        0.64133991188109       -0.43994465527778
C           -4.63267770193132        1.63370813513456       -1.20471745595858
C           -5.06985828961362        2.94123076278479       -1.13331585595254
C           -6.13511868898110        3.30053425392805       -0.31470548027610
C           -6.59506861628063        4.72495230084615       -0.23413732560084
C           -6.74653351672999        2.30543611995335        0.43924621667657
C           -6.30977862841325        0.99601643902288        0.38682615687901
C           -3.44120862614185       -0.95940380172064       -0.63080535807372
C           -2.99569383716701       -2.03313815876527       -1.40861102660980
C           -1.64850189541139       -2.29898871923814       -1.56278074219371
C           -0.72109484997225       -1.47696112407294       -0.93936501215849
C           -1.16995394658626       -0.40633427828587       -0.15005552916152
C           -2.50576638268774       -0.14288419926984        0.01835010332439
C            0.00253134603390        0.35114617916777        0.43487139065251
C            0.00070237574552        0.38685356035449        1.94156083975756
C            0.00080300902611       -0.67292953270480        2.81740558120798
C           -0.00284332109259       -0.39279974787668        4.18919033862637
C           -0.00408435358189       -1.45838754281219        5.11515425822644
N           -0.00560976040675       -2.32376447000408        5.86978784907285
C           -0.00602385427439        0.92584914611367        4.65753747717686
C           -0.00608777888379        1.98419257461363        3.76890749958280
C           -0.00299276090306        1.71348867658478        2.40734942693303
C           -0.00328623344466        2.60180176156316        1.25912740520743
C           -0.00725896312094        3.98758870960030        1.17962539023886
C           -0.00715699186107        4.58220073634656       -0.06769993711339
C           -0.00290721673293        3.79804359216685       -1.22660334724575
C           -0.00274614442607        4.42812174735984       -2.48973300258648
N           -0.00261541664402        4.94422558948403       -3.51542439751317
C            0.00098993122245        2.40000873417326       -1.15353240073752
C            0.00058539527999        1.81789462523046        0.09191303531801
C            1.17605112967537       -0.40506892434036       -0.14935738380391
C            2.51158504912113       -0.14031154589539        0.01946815362118
C            3.44803277620110       -0.95622368447925       -0.62901241115308
N            4.80923199256154       -0.68369621024590       -0.50471935853890
C            5.74072187168772       -1.73142132536026       -0.46308113551664
C            6.97126057838019       -1.61509705014302       -1.10655483029042
C            7.88834469332713       -2.64639418359773       -1.04982975503852
C            7.60835448676116       -3.82264909670948       -0.36401213593568
C            8.59577491214663       -4.94970766505028       -0.32655844381231
C            6.37604424633804       -3.93431708599968        0.27043630655854
C            5.45491486483645       -2.90665540921246        0.23025331298411
C            5.25140446901253        0.64557604369160       -0.43935635538089
C            6.31563106604911        1.00212935996763        0.38680786039238
C            6.75084631187996        2.31213526648301        0.43806179028948
C            6.13807052920759        3.30593206533121       -0.31645872614299
C            6.59579119036525        4.73112814661684       -0.23691907112974
C            5.07324324346840        2.94467048806896       -1.13480022955598
C            4.63760359720878        1.63660283564859       -1.20505292355827
C            3.00391542269134       -2.03069325786601       -1.40656566990540
C            1.65705010946285       -2.29772286646224       -1.56147705042440
C            0.72864459686383       -1.47626875301201       -0.93883256168692
C           -6.96407657019886       -1.61625479137802       -1.11418588321267
C           -7.88060155760377       -2.64760824059429       -1.06353002422229
H           -9.17847059902191       -4.99335244628901       -1.24507319650848
H           -9.31512787254854       -4.74932492734172        0.49429842557247
H           -8.12817326314205       -5.89063857111183       -0.13643306489005
H           -6.13177414755736       -4.84610023304425        0.79530818096008
H           -4.50271344672607       -3.01582882058941        0.73002905765688
H           -3.81530370023504        1.37162331511952       -1.86112904206099
H           -4.58133423828177        3.69457399247818       -1.73580252421860
H           -6.01248624539903        5.26415459331045        0.51430783329360
H           -6.46132000369369        5.22877307209618       -1.18904994238413
H           -7.64309439217147        4.77892094538529        0.05130853162243
H           -7.57512252303953        2.55930344032102        1.08516319812379
H           -6.79340684840889        0.23770235213406        0.98554808376540
H           -3.72589120987522       -2.65458655658783       -1.90595596317382
H           -1.32669193426130       -3.12665531740084       -2.17664498715088
H           -2.84118474647197        0.67996618803583        0.63268103848351
H            0.00331031781732       -1.69479068728312        2.46765457807081
H           -0.00862816602009        1.10500244589732        5.72270474100407
H           -0.00873111396340        3.00027139801144        4.13179780528621
H           -0.01054643648127        4.59376895418261        2.07220839744734
H           -0.01038302510094        5.65825930449987       -0.16152244036292
H            0.00398892819662        1.80461331095115       -2.05482008754713
H            2.84606662047061        0.68300980412929        0.63368193393489
H            7.20372793752753       -0.71058911807532       -1.64994353711761
H            8.83760838499294       -2.53651892888578       -1.55485429214011
H            9.61163620818623       -4.58007605694208       -0.44542478953558
H            8.52458923279442       -5.49523536562000        0.61200176287870
H            8.39382846338005       -5.65016263201031       -1.13833021301818
H            6.13703796114922       -4.83682877045262        0.81520200362954
H            4.50729163387615       -3.00670507992974        0.73989473762321
H            6.80031037392224        0.24494273475092        0.98611185140923
H            7.57928332458145        2.56743509227676        1.08361226423755
H            6.00798831146490        5.27156069074756        0.50654232814912
H            7.64202098706540        4.78725676649038        0.05455975070539
H            6.46700932237628        5.23228016234201       -1.19394013545861
H            4.58378860500272        3.69697134764931       -1.73783401675132
H            3.82044550023764        1.37303358285920       -1.86113759868090
H            3.73501331462733       -2.65168951438070       -1.90315266618546
H            1.33622044331348       -3.12578720915337       -2.17531556821588
H           -7.19413646840959       -0.71063136186650       -1.65673636582611
H           -8.82850178474746       -2.53746068227446       -1.57112518670433

          :  Hamiltonian                  GFN2-xTB          :
         :: gradient norm              0.000060512668 Eh/a0 ::
         :: HOMO-LUMO gap              1.150455387935 eV    ::
         :: SCC energy              -152.800068162151 Eh    ::
         :: -> dispersion             -0.139421679411 Eh    ::
         :: -> Gsolv                  -0.068163639150 Eh    ::
         :: repulsion energy           2.858023957973 Eh    ::

    * Orbital Energies and Occupations

         #    Occupation            Energy/Eh            Energy/eV
      -------------------------------------------------------------
         1        2.0000           -0.6828122             -18.5803
       ...           ...                  ...                  ...
       128        2.0000           -0.4124070             -11.2222
       129        2.0000           -0.4113744             -11.1941
       130        2.0000           -0.4066172             -11.0646
       131        2.0000           -0.4058974             -11.0450
       132        2.0000           -0.4037291             -10.9860
       133        2.0000           -0.4037061             -10.9854
       134        2.0000           -0.4033348             -10.9753
       135        2.0000           -0.4030826             -10.9684
       136        2.0000           -0.3962083             -10.7814
       137        2.0000           -0.3961495             -10.7798
       138        2.0000           -0.3905701             -10.6280
       139        2.0000           -0.3525586              -9.5936
       140        2.0000           -0.3415801              -9.2949 (HOMO)
       141                         -0.2993016              -8.1444 (LUMO)
       142                         -0.2615083              -7.1160
       143                         -0.2558626              -6.9624
       144                         -0.2493376              -6.7848
       145                         -0.2452457              -6.6735
       146                         -0.2323617              -6.3229
       147                         -0.2271657              -6.1815
       148                         -0.2269484              -6.1756
       149                         -0.2268417              -6.1727
       150                         -0.2233201              -6.0768
       151                         -0.2218827              -6.0377
       ...                                ...                  ...
       276                          1.1553042              31.4374
      -------------------------------------------------------------
                  HL-Gap            0.0422784 Eh            1.1505 eV

     #   Z          covCN         q      C6AA      α(0)
     1   6 C        3.757    -0.110    22.649     6.785
     2   6 C        2.965     0.010    27.784     8.646
     3   6 C        2.924    -0.041    29.009     8.833
     4   6 C        2.921    -0.050    29.230     8.866
     5   6 C        2.923     0.060    26.658     8.467
     6   7 N        2.752    -0.079    22.784     7.089
     7   6 C        2.924     0.060    26.648     8.466
     8   6 C        2.921    -0.050    29.232     8.866
     9   6 C        2.924    -0.041    29.015     8.833
    10   6 C        2.965     0.010    27.792     8.647
    11   6 C        3.757    -0.109    22.645     6.785
    12   6 C        2.924    -0.041    29.008     8.832
    13   6 C        2.921    -0.050    29.230     8.866
    14   6 C        2.926     0.064    26.558     8.451
    15   6 C        2.923    -0.052    29.281     8.874
    16   6 C        2.914    -0.035    28.880     8.812
    17   6 C        3.034    -0.008    28.194     8.709
    18   6 C        3.054     0.002    27.934     8.668
    19   6 C        2.916    -0.054    29.347     8.883
    20   6 C        3.977     0.013    20.288     6.399
    21   6 C        3.056     0.014    27.644     8.623
    22   6 C        2.921    -0.021    28.541     8.761
    23   6 C        2.976     0.016    27.640     8.624
    24   6 C        1.913     0.120    28.161     8.570
    25   7 N        0.911    -0.269    26.965     7.510
    26   6 C        2.928    -0.021    28.525     8.759
    27   6 C        2.913    -0.027    28.675     8.781
    28   6 C        3.036     0.012    27.718     8.635
    29   6 C        3.036     0.012    27.713     8.635
    30   6 C        2.913    -0.027    28.669     8.780
    31   6 C        2.928    -0.020    28.516     8.757
    32   6 C        2.976     0.017    27.628     8.622
    33   6 C        1.913     0.120    28.148     8.568
    34   7 N        0.911    -0.270    26.983     7.513
    35   6 C        2.921    -0.021    28.522     8.758
    36   6 C        3.056     0.014    27.640     8.622
    37   6 C        3.054     0.002    27.935     8.668
    38   6 C        2.916    -0.054    29.345     8.883
    39   6 C        2.926     0.064    26.558     8.451
    40   7 N        2.752    -0.079    22.785     7.089
    41   6 C        2.923     0.060    26.658     8.467
    42   6 C        2.921    -0.049    29.224     8.865
    43   6 C        2.925    -0.041    29.008     8.832
    44   6 C        2.965     0.010    27.784     8.646
    45   6 C        3.757    -0.110    22.649     6.785
    46   6 C        2.925    -0.041    29.011     8.833
    47   6 C        2.921    -0.049    29.228     8.866
    48   6 C        2.924     0.060    26.649     8.466
    49   6 C        2.921    -0.050    29.231     8.866
    50   6 C        2.924    -0.041    29.008     8.832
    51   6 C        2.965     0.010    27.793     8.647
    52   6 C        3.757    -0.109    22.645     6.785
    53   6 C        2.924    -0.041    29.015     8.834
    54   6 C        2.921    -0.050    29.232     8.866
    55   6 C        2.923    -0.052    29.280     8.874
    56   6 C        2.914    -0.035    28.880     8.812
    57   6 C        3.034    -0.008    28.193     8.709
    58   6 C        2.921    -0.049    29.222     8.865
    59   6 C        2.925    -0.041    29.010     8.833
    60   1 H        0.925     0.046     2.373     2.409
    61   1 H        0.924     0.050     2.326     2.385
    62   1 H        0.925     0.045     2.388     2.417
    63   1 H        0.926     0.033     2.540     2.492
    64   1 H        0.926     0.028     2.608     2.525
    65   1 H        0.926     0.026     2.645     2.543
    66   1 H        0.925     0.030     2.580     2.512
    67   1 H        0.924     0.049     2.330     2.387
    68   1 H        0.925     0.045     2.382     2.414
    69   1 H        0.925     0.045     2.377     2.411
    70   1 H        0.926     0.034     2.527     2.486
    71   1 H        0.926     0.031     2.578     2.511
    72   1 H        0.926     0.035     2.521     2.483
    73   1 H        0.926     0.037     2.483     2.464
    74   1 H        0.926     0.027     2.627     2.534
    75   1 H        0.926     0.042     2.422     2.434
    76   1 H        0.926     0.049     2.336     2.390
    77   1 H        0.926     0.055     2.257     2.349
    78   1 H        0.926     0.055     2.260     2.351
    79   1 H        0.926     0.049     2.332     2.388
    80   1 H        0.926     0.041     2.437     2.441
    81   1 H        0.926     0.027     2.626     2.534
    82   1 H        0.926     0.030     2.588     2.516
    83   1 H        0.926     0.034     2.534     2.489
    84   1 H        0.925     0.045     2.384     2.415
    85   1 H        0.925     0.045     2.378     2.411
    86   1 H        0.924     0.050     2.325     2.384
    87   1 H        0.926     0.034     2.536     2.490
    88   1 H        0.926     0.028     2.608     2.525
    89   1 H        0.926     0.031     2.578     2.511
    90   1 H        0.926     0.034     2.527     2.486
    91   1 H        0.924     0.049     2.330     2.387
    92   1 H        0.925     0.045     2.378     2.411
    93   1 H        0.925     0.045     2.382     2.413
    94   1 H        0.925     0.030     2.580     2.512
    95   1 H        0.926     0.026     2.645     2.543
    96   1 H        0.926     0.035     2.522     2.483
    97   1 H        0.926     0.037     2.483     2.464
    98   1 H        0.926     0.030     2.587     2.515
    99   1 H        0.926     0.034     2.530     2.487

molecular dipole:
                 x           y           z       tot (Debye)
 q only:       -0.019       0.360       0.291
   full:       -0.028       0.489       0.370       1.560

 projected vibrational frequencies (cm⁻¹)
eigval :       -0.00    -0.00    -0.00    -0.00     0.00     0.00
eigval :        9.86     9.90    12.14    13.61    19.52    21.63
eigval :       30.12    34.57    36.42    42.16    46.92    48.85
eigval :       51.55    55.73    57.13    65.67    69.05    70.55
eigval :       75.41    80.93    82.36    83.62    91.72    96.39
eigval :      125.82   134.14   134.50   136.12   147.66   151.56
eigval :      154.73   156.00   175.66   198.63   201.03   210.27
eigval :      230.08   242.97   255.50   258.76   272.10   281.76
eigval :      291.87   292.73   294.53   300.17   318.73   328.29
eigval :      338.22   344.00   347.74   361.85   370.76   373.97
eigval :      376.49   379.31   382.15   382.83   385.41   386.18
eigval :      409.30   415.35   424.40   430.19   432.47   442.23
eigval :      455.88   466.85   474.11   481.10   482.33   487.90
eigval :      490.59   512.10   513.48   520.91   543.13   543.47
eigval :      549.85   555.91   570.70   577.63   593.50   599.53
eigval :      606.23   611.14   611.53   612.09   614.94   615.15
eigval :      630.36   631.41   657.05   663.36   664.40   666.34
eigval :      668.97   673.82   689.54   697.69   705.23   729.39
eigval :      736.56   755.56   760.60   791.60   793.85   801.29
eigval :      806.11   808.05   808.74   816.84   825.30   825.72
eigval :      831.76   833.43   835.06   866.41   871.91   872.24
eigval :      875.14   875.46   877.40   882.66   886.58   886.89
eigval :      891.49   909.39   912.39   912.68   913.84   915.59
eigval :      916.28   918.03   918.48   927.13   927.61   930.84
eigval :      931.06   934.16   934.23   952.04   977.78   992.66
eigval :      995.35  1007.51  1008.11  1009.25  1009.53  1012.01
eigval :     1012.29  1024.00  1027.49  1029.45  1030.91  1031.96
eigval :     1033.76  1033.93  1035.56  1072.66  1140.56  1144.07
eigval :     1144.29  1145.15  1145.19  1145.58  1152.31  1153.19
eigval :     1157.58  1164.75  1172.15  1189.87  1195.83  1198.00
eigval :     1198.11  1202.32  1209.56  1219.73  1222.12  1223.53
eigval :     1233.15  1233.61  1236.37  1250.53  1256.26  1256.90
eigval :     1257.73  1274.21  1275.65  1278.53  1279.18  1283.28
eigval :     1294.57  1315.44  1316.59  1317.59  1322.93  1324.30
eigval :     1325.84  1326.11  1326.71  1330.07  1330.47  1354.87
eigval :     1375.12  1400.80  1400.92  1402.64  1402.87  1410.54
eigval :     1411.27  1412.07  1418.28  1420.08  1427.83  1430.66
eigval :     1432.41  1444.47  1444.92  1457.66  1471.12  1477.88
eigval :     1478.62  1478.96  1479.65  1480.82  1481.02  1481.32
eigval :     1481.56  1491.97  1492.10  1492.17  1493.60  1556.79
eigval :     1559.97  1567.84  1569.94  1571.06  1573.63  1573.68
eigval :     1580.46  1585.04  1591.74  1595.32  1602.51  1604.81
eigval :     1604.85  1607.41  1608.43  2358.77  2361.46  2988.97
eigval :     2989.07  2989.26  2989.32  3030.25  3031.48  3031.75
eigval :     3031.94  3036.61  3037.16  3037.47  3037.52  3065.77
eigval :     3065.78  3067.86  3067.96  3070.10  3070.12  3070.88
eigval :     3070.91  3080.00  3080.36  3080.84  3081.18  3081.36
eigval :     3081.80  3082.80  3083.18  3084.46  3084.49  3085.90
eigval :     3085.92  3086.41  3087.26  3088.11  3089.88  3091.65
eigval :     3093.35  3097.91  3100.45

   temp. (K)  partition function   enthalpy   heat capacity  entropy
                                   cal/mol     cal/K/mol   cal/K/mol   J/K/mol
 298.15  VIB  0.564E+26            30700.094    183.088    196.455
         ROT  0.142E+09              888.752      2.981     40.278
         INT  0.798E+34            31588.846    186.069    236.734
         TR   0.201E+29             1481.254      4.968     45.731
         TOT                       33070.1004   191.0370   282.4643  1181.8304

       T/K    H(0)-H(T)+PV         H(T)/Eh          T*S/Eh         G(T)/Eh
   ------------------------------------------------------------------------
    298.15    0.527006E-01    0.819859E+00    0.134208E+00    0.685651E+00
   ------------------------------------------------------------------------

         :::::::::::::::::::::::::::::::::::::::::::::::::::::
         ::                  THERMODYNAMIC                  ::
         :::::::::::::::::::::::::::::::::::::::::::::::::::::
         :: total free energy        -149.256392959072 Eh   ::
         ::.................................................::
         :: total energy             -149.942044205257 Eh   ::
         :: zero point energy           0.767158566843 Eh   ::
         :: G(RRHO) w/o ZPVE           -0.081507320657 Eh   ::
         :: G(RRHO) contrib.            0.685651246185 Eh   ::
         :::::::::::::::::::::::::::::::::::::::::::::::::::::

           -------------------------------------------------
          | TOTAL ENERGY             -149.942044205257 Eh   |
          | TOTAL ENTHALPY           -149.122185078910 Eh   |
          | TOTAL FREE ENERGY        -149.256392959072 Eh   |
          | GRADIENT NORM               0.000060502161 Eh/α |
          | HOMO-LUMO GAP               1.150455123743 eV   |
           -------------------------------------------------

 * finished run on 2025/09/12 at 23:15:09.185
