   * xtb version 6.7.1 (edcfbbe) compiled by 'albert@albert-system' on 2024-07-22

   ID    Z sym.   atoms
    1    6 C      1-5, 7-24, 26-33, 35-39, 41-59
    2    7 N      6, 25, 34, 40
    3    1 H      60-99

          program call               : xtb data2507/toluene/Spiro-CN/Spiro-CN_toluene_S0_crest.xyz --gfn 2 --gbsa toluene --ohess vtight --parallel 40 --molden --ceasefiles --namespace data2507/toluene/Spiro-CN/Spiro-CN_toluene_S0_finalOpt
      * Solvation model:               GBSA
        Solvent                        toluene
        Solvent mass                       9.2140E+01 g/mol
          :  Hamiltonian                  GFN2-xTB          :
 * total energy  :  -149.9400783 Eh     change       -0.7019878E-09 Eh
 * total energy  :  -149.9401600 Eh     change       -0.8163580E-04 Eh
 * total energy  :  -149.9402985 Eh     change       -0.1385950E-03 Eh
 * total energy  :  -149.9403744 Eh     change       -0.7584957E-04 Eh
 * total energy  :  -149.9405696 Eh     change       -0.1951850E-03 Eh
 * total energy  :  -149.9408089 Eh     change       -0.2393133E-03 Eh
 * total energy  :  -149.9410179 Eh     change       -0.2090187E-03 Eh
 * total energy  :  -149.9412082 Eh     change       -0.1902677E-03 Eh
 * total energy  :  -149.9414161 Eh     change       -0.2079103E-03 Eh
 * total energy  :  -149.9415791 Eh     change       -0.1629588E-03 Eh
 * total energy  :  -149.9422576 Eh     change       -0.1042521E-05 Eh
 * total energy  :  -149.9422583 Eh     change       -0.6822564E-06 Eh
 * total energy  :  -149.9422587 Eh     change       -0.3871861E-06 Eh
 * total energy  :  -149.9422589 Eh     change       -0.2284395E-06 Eh
 * total energy  :  -149.9422589 Eh     change        0.2516492E-07 Eh
 * total energy  :  -149.9422591 Eh     change       -0.1945236E-06 Eh
 * total energy  :  -149.9422591 Eh     change        0.3223610E-07 Eh
 * total energy  :  -149.9422592 Eh     change       -0.1257667E-06 Eh
 * total energy  :  -149.9422592 Eh     change       -0.5549026E-08 Eh
   *** GEOMETRY OPTIMIZATION CONVERGED AFTER 68 ITERATIONS ***

 final structure:
================
99
 xtb: 6.7.1 (edcfbbe)
C           -8.50317585459775       -4.18854935846743        2.98832668948998
C           -7.54558812961572       -3.30389646970326        2.24877134040041
C           -6.30475229215602       -2.99323226516603        2.79608830947864
C           -5.40567781416219       -2.19283253438973        2.12103372164302
C           -5.72266678829558       -1.68510708994440        0.86165803721332
N           -4.80888050247566       -0.87693553318114        0.16866093579393
C           -5.27510800870278        0.21697688497805       -0.57543414518297
C           -4.71019386055948        0.53105645058535       -1.81050550271233
C           -5.16575479109727        1.61644269135558       -2.53322807708188
C           -6.20433802377299        2.40968811508492       -2.06078199088231
C           -6.69327239923609        3.59451786909300       -2.83794107759215
C           -6.77292566250552        2.08314157289540       -0.83373993008552
C           -6.31672858521966        1.00961564334489       -0.09525590290896
C           -3.44929201715725       -1.18078892031513        0.17819038498634
C           -3.01358035192745       -2.50966854234879        0.21272694359134
C           -1.66901202506466       -2.82684655415295        0.18519119528295
C           -0.73401482711176       -1.80491760949499        0.10845525963384
C           -1.17182723310209       -0.47122878845617        0.08944544610696
C           -2.50424687842063       -0.14712623927928        0.13166640364216
C            0.00516439451602        0.47326865629937       -0.02759081235262
C            0.13652456020899        1.47408037316677        1.09115455948744
C            0.31030358481610        1.23133724425013        2.43317168249069
C            0.45975346848039        2.33072716088663        3.28710066288997
C            0.66406390616905        2.11542871119303        4.66711430247398
N            0.83991010379764        1.94205933945629        5.78846524771547
C            0.42573435191908        3.63946418612792        2.79312592709735
C            0.24464450385762        3.87324330454464        1.44334507892607
C            0.10480462156320        2.78733581730702        0.58997536769994
C           -0.07087741489169        2.72396616603221       -0.84964396152343
C           -0.19961027366102        3.73058366732610       -1.79679065977645
C           -0.38130314329850        3.37880883581429       -3.12066708069420
C           -0.42762421021476        2.03157751043106       -3.49586898768880
C           -0.63123823170822        1.69540039830316       -4.85162763700771
N           -0.80524288334098        1.42361129033747       -5.95356513914012
C           -0.29014486560409        1.01152029383880       -2.54683721768803
C           -0.11514476251104        1.37159339736797       -1.23159887750722
C            1.16915503935974       -0.49353783449233       -0.06241632016890
C            2.50596329286635       -0.19231424718355       -0.12829848332273
C            3.43634549127027       -1.23933964805059       -0.08928474308280
N            4.80034770906408       -0.95515971002156       -0.10284117883325
C            5.28253632243225        0.18676388510486        0.55337511869636
C            6.33399825562169        0.92648635875414        0.01285373579897
C            6.80239802812468        2.04964193330713        0.66392132705106
C            6.23673744616548        2.48019010552044        1.86042045777849
C            6.75548913956663        3.70738309436369        2.54733460286824
C            5.18999160722411        1.73890894240120        2.39376734155875
C            4.72173022121040        0.60457461768407        1.75898071807721
C            5.69881552085696       -1.82116413451561       -0.74365457323871
C            5.36593991186898       -2.41216762071435       -1.96185041380862
C            6.25316875889094       -3.26378422610453       -2.58860284474766
C            7.49664675878376       -3.54583945344338       -2.03248867163328
C            8.44313943947891       -4.48531982670009       -2.71666874504401
C            7.82407718128349       -2.94812394336967       -0.82148336711022
C            6.94141561017431       -2.10097111389212       -0.17949474142918
C            2.98277068625483       -2.56059115596956       -0.01767528317620
C            1.63388957396786       -2.85601044590126        0.03364879873503
C            0.71318286877285       -1.81842267794295        0.02592375346496
C           -6.96364858873954       -1.99107109227671        0.30790137249998
C           -7.85866561402303       -2.78598414449613        0.99816969502406
H           -9.49738702062278       -4.13705737353676        2.55147593600196
H           -8.56266666616963       -3.89963706129699        4.03623543050256
H           -8.16410712127128       -5.22432364554177        2.94733982986015
H           -6.04249810913254       -3.37826044400979        3.77145043012538
H           -4.45015458531462       -1.95351443178230        2.56523411127916
H           -3.91456559100416       -0.08484924380326       -2.20442632171704
H           -4.71124999487150        1.84088925114931       -3.48842753063509
H           -6.30981996849783        4.51605544759899       -2.39794662212058
H           -6.35896039460436        3.54535004687696       -3.87144402656482
H           -7.78034108725330        3.64457649865597       -2.82040436376126
H           -7.58204359175343        2.68594497865622       -0.44612815223619
H           -6.76566110130812        0.77589750277264        0.85934714254815
H           -3.74996933019652       -3.29916590394140        0.24568567658090
H           -1.35648600523308       -3.86011664356557        0.20056342041000
H           -2.82990656379743        0.88283872511887        0.12015526277779
H            0.34006362339169        0.22559778332786        2.82594285858735
H            0.54607783305611        4.46379675059545        3.48060934475748
H            0.22163446099882        4.88294967006872        1.06376679134304
H           -0.16727676114211        4.76988673656830       -1.50882902687061
H           -0.49193280289321        4.13962784831328       -3.87933438090806
H           -0.32906934538621       -0.02497719462229       -2.84827770366934
H            2.84624394122146        0.83049752562553       -0.19925557572310
H            6.77949359113686        0.61333945790501       -0.92035373814118
H            7.61825983245644        2.61078209827922        0.23059696157179
H            6.70355536674609        4.56794834297407        1.88107552727820
H            6.17893765400010        3.92418387160562        3.44316657008523
H            7.79874962240915        3.57030842980764        2.83097134584216
H            4.73715827626044        2.04373303959190        3.32723468654447
H            3.91772827565076        0.03251304039745        2.19925149839316
H            4.40818221615199       -2.19580448608654       -2.41317150032613
H            5.97877015848057       -3.71168460896575       -3.53333263503508
H            8.43004885428877       -4.32899535125402       -3.79363587117008
H            9.45832354116373       -4.34894086676819       -2.35195595263397
H            8.14825625310174       -5.51810574580754       -2.52581604699565
H            8.78297368395758       -3.15321992279178       -0.36682381809204
H            7.21014985683046       -1.65030257528224        0.76504848178490
H            3.70856675935735       -3.36000345818811        0.01320577987390
H            1.30696203854386       -3.88272235546890        0.10084104175170
H           -7.22094942505239       -1.60378492308835       -0.66744145457784
H           -8.81554549080641       -3.01341508447770        0.54990328694661

          :  Hamiltonian                  GFN2-xTB          :
         :: gradient norm              0.000094929506 Eh/a0 ::
         :: HOMO-LUMO gap              1.155424355522 eV    ::
         :: SCC energy              -152.800280366050 Eh    ::
         :: -> dispersion             -0.140271078291 Eh    ::
         :: -> Gsolv                  -0.067969724508 Eh    ::
         :: repulsion energy           2.858021166052 Eh    ::

    * Orbital Energies and Occupations

         #    Occupation            Energy/Eh            Energy/eV
      -------------------------------------------------------------
         1        2.0000           -0.6826454             -18.5757
       ...           ...                  ...                  ...
       128        2.0000           -0.4121686             -11.2157
       129        2.0000           -0.4110191             -11.1844
       130        2.0000           -0.4067360             -11.0679
       131        2.0000           -0.4059017             -11.0451
       132        2.0000           -0.4038316             -10.9888
       133        2.0000           -0.4036349             -10.9835
       134        2.0000           -0.4033720             -10.9763
       135        2.0000           -0.4030684             -10.9680
       136        2.0000           -0.3963461             -10.7851
       137        2.0000           -0.3961594             -10.7800
       138        2.0000           -0.3905087             -10.6263
       139        2.0000           -0.3525665              -9.5938
       140        2.0000           -0.3416713              -9.2974 (HOMO)
       141                         -0.2992103              -8.1419 (LUMO)
       142                         -0.2614447              -7.1143
       143                         -0.2555649              -6.9543
       144                         -0.2492050              -6.7812
       145                         -0.2451564              -6.6710
       146                         -0.2321216              -6.3163
       147                         -0.2274329              -6.1888
       148                         -0.2270069              -6.1772
       149                         -0.2266581              -6.1677
       150                         -0.2233726              -6.0783
       151                         -0.2218901              -6.0379
       ...                                ...                  ...
       276                          1.1552616              31.4363
      -------------------------------------------------------------
                  HL-Gap            0.0424611 Eh            1.1554 eV

     #   Z          covCN         q      C6AA      α(0)
     1   6 C        3.757    -0.110    22.651     6.785
     2   6 C        2.965     0.011    27.779     8.645
     3   6 C        2.925    -0.041    29.013     8.833
     4   6 C        2.921    -0.049    29.219     8.864
     5   6 C        2.923     0.060    26.658     8.467
     6   7 N        2.752    -0.079    22.783     7.089
     7   6 C        2.924     0.060    26.647     8.465
     8   6 C        2.921    -0.049    29.229     8.866
     9   6 C        2.924    -0.041    29.007     8.832
    10   6 C        2.965     0.010    27.789     8.647
    11   6 C        3.757    -0.109    22.646     6.785
    12   6 C        2.925    -0.041    29.011     8.833
    13   6 C        2.921    -0.049    29.224     8.865
    14   6 C        2.926     0.064    26.559     8.451
    15   6 C        2.923    -0.052    29.292     8.875
    16   6 C        2.914    -0.035    28.882     8.813
    17   6 C        3.034    -0.009    28.200     8.710
    18   6 C        3.054     0.002    27.937     8.668
    19   6 C        2.917    -0.055    29.354     8.885
    20   6 C        3.976     0.013    20.288     6.400
    21   6 C        3.056     0.014    27.642     8.622
    22   6 C        2.921    -0.021    28.529     8.759
    23   6 C        2.976     0.017    27.635     8.623
    24   6 C        1.913     0.120    28.152     8.569
    25   7 N        0.911    -0.270    26.983     7.513
    26   6 C        2.928    -0.020    28.519     8.758
    27   6 C        2.913    -0.027    28.670     8.780
    28   6 C        3.036     0.012    27.714     8.635
    29   6 C        3.036     0.012    27.714     8.635
    30   6 C        2.913    -0.027    28.670     8.780
    31   6 C        2.928    -0.020    28.518     8.758
    32   6 C        2.976     0.017    27.634     8.623
    33   6 C        1.913     0.120    28.152     8.569
    34   7 N        0.911    -0.270    26.982     7.513
    35   6 C        2.921    -0.021    28.529     8.759
    36   6 C        3.057     0.014    27.641     8.622
    37   6 C        3.054     0.002    27.938     8.668
    38   6 C        2.917    -0.054    29.351     8.884
    39   6 C        2.926     0.064    26.560     8.452
    40   7 N        2.752    -0.079    22.785     7.089
    41   6 C        2.924     0.060    26.647     8.465
    42   6 C        2.920    -0.049    29.226     8.865
    43   6 C        2.925    -0.041    29.013     8.833
    44   6 C        2.965     0.010    27.792     8.647
    45   6 C        3.757    -0.109    22.645     6.785
    46   6 C        2.924    -0.040    29.005     8.832
    47   6 C        2.921    -0.050    29.233     8.866
    48   6 C        2.923     0.060    26.657     8.467
    49   6 C        2.921    -0.049    29.221     8.865
    50   6 C        2.925    -0.041    29.012     8.833
    51   6 C        2.965     0.011    27.779     8.645
    52   6 C        3.757    -0.110    22.650     6.785
    53   6 C        2.924    -0.040    29.005     8.832
    54   6 C        2.921    -0.049    29.220     8.864
    55   6 C        2.923    -0.052    29.287     8.875
    56   6 C        2.914    -0.035    28.882     8.813
    57   6 C        3.033    -0.009    28.197     8.710
    58   6 C        2.921    -0.049    29.220     8.864
    59   6 C        2.924    -0.040    29.003     8.832
    60   1 H        0.925     0.044     2.397     2.421
    61   1 H        0.925     0.047     2.359     2.402
    62   1 H        0.924     0.049     2.328     2.386
    63   1 H        0.926     0.034     2.527     2.486
    64   1 H        0.926     0.029     2.598     2.521
    65   1 H        0.926     0.025     2.656     2.548
    66   1 H        0.925     0.029     2.599     2.521
    67   1 H        0.924     0.049     2.327     2.386
    68   1 H        0.925     0.043     2.404     2.425
    69   1 H        0.925     0.047     2.353     2.399
    70   1 H        0.926     0.035     2.514     2.479
    71   1 H        0.926     0.031     2.572     2.508
    72   1 H        0.926     0.034     2.526     2.485
    73   1 H        0.926     0.037     2.487     2.466
    74   1 H        0.926     0.027     2.628     2.535
    75   1 H        0.926     0.041     2.433     2.439
    76   1 H        0.926     0.049     2.334     2.389
    77   1 H        0.926     0.055     2.257     2.349
    78   1 H        0.926     0.055     2.257     2.349
    79   1 H        0.926     0.049     2.333     2.389
    80   1 H        0.926     0.041     2.434     2.440
    81   1 H        0.926     0.027     2.628     2.535
    82   1 H        0.926     0.031     2.573     2.508
    83   1 H        0.926     0.035     2.512     2.478
    84   1 H        0.925     0.048     2.340     2.392
    85   1 H        0.925     0.042     2.416     2.431
    86   1 H        0.925     0.049     2.332     2.388
    87   1 H        0.925     0.029     2.604     2.524
    88   1 H        0.926     0.025     2.656     2.549
    89   1 H        0.926     0.029     2.601     2.522
    90   1 H        0.926     0.034     2.530     2.487
    91   1 H        0.925     0.046     2.366     2.406
    92   1 H        0.925     0.044     2.392     2.419
    93   1 H        0.924     0.050     2.326     2.385
    94   1 H        0.926     0.034     2.536     2.490
    95   1 H        0.926     0.030     2.589     2.516
    96   1 H        0.926     0.034     2.525     2.485
    97   1 H        0.926     0.037     2.487     2.466
    98   1 H        0.926     0.030     2.590     2.517
    99   1 H        0.926     0.033     2.538     2.491

molecular dipole:
                 x           y           z       tot (Debye)
 q only:       -0.001       0.439      -0.022
   full:        0.007       0.567      -0.025       1.443

 projected vibrational frequencies (cm⁻¹)
eigval :       -0.00    -0.00     0.00     0.00     0.00     0.00
eigval :       -9.98    10.07    13.00    14.10    19.55    20.39
eigval :       21.26    31.89    36.67    38.13    40.48    42.00
eigval :       48.78    51.02    51.96    57.71    59.66    65.64
eigval :       69.03    76.19    80.27    83.30    88.14    94.70
eigval :      125.88   128.21   135.77   136.25   149.12   149.86
eigval :      156.36   156.63   174.76   198.45   201.46   213.73
eigval :      229.02   242.69   255.97   258.24   271.79   282.44
eigval :      291.79   292.52   296.44   300.62   318.25   329.61
eigval :      338.62   343.92   348.37   360.43   372.20   374.24
eigval :      375.82   380.00   382.86   383.21   384.57   385.28
eigval :      404.70   414.98   423.55   429.86   436.70   442.17
eigval :      453.23   467.78   472.70   480.29   481.11   487.14
eigval :      489.33   506.27   521.07   529.65   530.18   543.39
eigval :      549.53   560.28   571.12   577.24   593.21   599.45
eigval :      606.15   611.30   611.42   612.15   615.17   616.03
eigval :      629.06   633.12   657.16   663.01   663.74   665.05
eigval :      668.50   674.10   689.58   697.72   704.79   729.21
eigval :      735.48   755.52   760.58   791.71   791.95   801.36
eigval :      805.30   806.20   806.50   816.86   823.76   825.86
eigval :      831.61   832.00   835.59   866.49   869.02   871.37
eigval :      871.98   873.47   878.10   882.15   883.23   884.13
eigval :      891.52   910.21   910.55   911.94   913.20   913.39
eigval :      914.29   916.59   917.79   925.15   927.50   928.62
eigval :      930.09   933.97   934.08   952.08   978.01   992.38
eigval :      995.21  1008.10  1008.44  1008.70  1008.91  1010.32
eigval :     1013.44  1023.89  1027.55  1029.60  1032.32  1032.74
eigval :     1032.87  1033.12  1035.30  1072.86  1140.91  1142.55
eigval :     1143.57  1144.73  1145.80  1147.41  1152.49  1153.55
eigval :     1158.35  1164.57  1171.73  1189.54  1194.81  1197.67
eigval :     1199.07  1203.03  1209.69  1219.96  1221.74  1223.14
eigval :     1232.80  1233.30  1235.79  1251.46  1256.20  1256.69
eigval :     1258.89  1272.95  1274.59  1278.51  1278.94  1282.90
eigval :     1294.67  1314.50  1317.94  1318.74  1322.18  1322.68
eigval :     1323.10  1327.96  1328.35  1329.35  1331.51  1355.26
eigval :     1375.43  1401.94  1402.28  1402.42  1402.71  1410.38
eigval :     1411.25  1412.55  1417.92  1419.66  1428.12  1430.64
eigval :     1432.68  1444.31  1444.84  1457.73  1471.10  1477.03
eigval :     1477.72  1477.81  1478.52  1480.51  1480.82  1481.23
eigval :     1482.40  1491.50  1491.73  1491.88  1493.13  1556.98
eigval :     1560.00  1567.88  1569.84  1571.17  1573.65  1573.71
eigval :     1580.61  1585.12  1591.90  1595.36  1602.50  1604.74
eigval :     1604.77  1607.29  1608.36  2358.90  2361.62  2990.34
eigval :     2991.02  2994.07  3000.93  3014.39  3022.57  3025.75
eigval :     3026.93  3039.89  3039.91  3041.66  3042.62  3063.65
eigval :     3063.91  3066.86  3068.37  3069.09  3070.51  3070.84
eigval :     3071.68  3078.86  3079.70  3079.87  3080.34  3080.95
eigval :     3081.75  3082.31  3082.74  3083.81  3084.50  3085.16
eigval :     3085.65  3086.32  3086.98  3089.10  3090.86  3091.08
eigval :     3092.76  3098.37  3100.69

   temp. (K)  partition function   enthalpy   heat capacity  entropy
                                   cal/mol     cal/K/mol   cal/K/mol   J/K/mol
 298.15  VIB  0.227E+27            30815.358    182.086    197.409
         ROT  0.142E+09              888.752      2.981     40.283
         INT  0.323E+35            31704.110    185.067    237.692
         TR   0.201E+29             1481.254      4.968     45.731
         TOT                       33185.3641   190.0350   283.4223  1185.8390

       T/K    H(0)-H(T)+PV         H(T)/Eh          T*S/Eh         G(T)/Eh
   ------------------------------------------------------------------------
    298.15    0.528842E-01    0.819719E+00    0.134663E+00    0.685056E+00
   ------------------------------------------------------------------------

         :::::::::::::::::::::::::::::::::::::::::::::::::::::
         ::                  THERMODYNAMIC                  ::
         :::::::::::::::::::::::::::::::::::::::::::::::::::::
         :: total free energy        -149.257203571366 Eh   ::
         ::.................................................::
         :: total energy             -149.942259200110 Eh   ::
         :: zero point energy           0.766834471637 Eh   ::
         :: G(RRHO) w/o ZPVE           -0.081778842893 Eh   ::
         :: G(RRHO) contrib.            0.685055628744 Eh   ::
         :::::::::::::::::::::::::::::::::::::::::::::::::::::

           -------------------------------------------------
          | TOTAL ENERGY             -149.942259200110 Eh   |
          | TOTAL ENTHALPY           -149.122540484606 Eh   |
          | TOTAL FREE ENERGY        -149.257203571366 Eh   |
          | GRADIENT NORM               0.000094957374 Eh/α |
          | HOMO-LUMO GAP               1.155424797670 eV   |
           -------------------------------------------------

 * finished run on 2025/09/12 at 23:28:03.729
