   * xtb version 6.7.1 (edcfbbe) compiled by 'albert@albert-system' on 2024-07-22

   ID    Z sym.   atoms
    1    6 C      1-5, 7-24, 26-33, 35-39, 41-59
    2    7 N      6, 25, 34, 40
    3    1 H      60-99

          program call               : xtb data2507/toluene/Spiro-CN/Spiro-CN_toluene_S0_finalOpt.xtbopt.xyz --gfn 2 --uhf 2 --gbsa toluene --ohess vtight --parallel 40 --molden --ceasefiles --namespace data2507/toluene/Spiro-CN/Spiro-CN_toluene_T1_preOpt
      * Solvation model:               GBSA
        Solvent                        toluene
        Solvent mass                       9.2140E+01 g/mol
          :  Hamiltonian                  GFN2-xTB          :
 * total energy  :  -149.8714501 Eh     change       -0.2664223E-08 Eh
 * total energy  :  -149.8750387 Eh     change       -0.3588560E-02 Eh
 * total energy  :  -149.8759906 Eh     change       -0.9519210E-03 Eh
 * total energy  :  -149.8760643 Eh     change       -0.7370438E-04 Eh
 * total energy  :  -149.8760926 Eh     change       -0.2831719E-04 Eh
 * total energy  :  -149.8761023 Eh     change       -0.9707972E-05 Eh
 * total energy  :  -149.8761090 Eh     change       -0.6698294E-05 Eh
 * total energy  :  -149.8761118 Eh     change       -0.2769801E-05 Eh
 * total energy  :  -149.8761141 Eh     change       -0.2320143E-05 Eh
 * total energy  :  -149.8761156 Eh     change       -0.1525067E-05 Eh
 * total energy  :  -149.8761453 Eh     change       -0.2569153E-06 Eh
 * total energy  :  -149.8761456 Eh     change       -0.2815153E-06 Eh
 * total energy  :  -149.8761460 Eh     change       -0.3542400E-06 Eh
 * total energy  :  -149.8761464 Eh     change       -0.4239321E-06 Eh
 * total energy  :  -149.8761468 Eh     change       -0.3829581E-06 Eh
 * total energy  :  -149.8761471 Eh     change       -0.3090708E-06 Eh
 * total energy  :  -149.8761473 Eh     change       -0.2474933E-06 Eh
 * total energy  :  -149.8761475 Eh     change       -0.2061608E-06 Eh
 * total energy  :  -149.8761476 Eh     change       -0.6700003E-07 Eh
   *** GEOMETRY OPTIMIZATION CONVERGED AFTER 41 ITERATIONS ***

 final structure:
================
99
 xtb: 6.7.1 (edcfbbe)
C           -8.48211904821251       -4.23203555067937        2.92426044934355
C           -7.52471192495628       -3.34286597202707        2.19601200359612
C           -6.28388169096423       -3.03739196439949        2.75133590370316
C           -5.38268356736070       -2.23336003640420        2.08630677053850
C           -5.70328187295392       -1.70880749503913        0.83210890974053
N           -4.79231936203566       -0.88959918942476        0.15377290026732
C           -5.26481071311841        0.21695404906623       -0.56226728326269
C           -4.68959126050505        0.56809811383295       -1.78542589565849
C           -5.15852348984681        1.65944860068317       -2.48698404918338
C           -6.21423453099095        2.42614204046127       -2.00244879191681
C           -6.71156651137766        3.61986818178297       -2.75417834162793
C           -6.78867701115403        2.06426345464532       -0.78587838213036
C           -6.32582266059930        0.97993955601641       -0.07041538907465
C           -3.44050253338628       -1.17849576726789        0.17107968716100
C           -2.99838498454488       -2.51614953452642        0.21858586213878
C           -1.66179526645195       -2.82757280498601        0.17790306461540
C           -0.72154392944049       -1.79387413076008        0.10077956442833
C           -1.16649022014862       -0.44815808644460        0.07910799053984
C           -2.49564166257110       -0.13553205631052        0.10868779840582
C            0.00582213427270        0.49164864525366       -0.03187608862213
C            0.13954384248150        1.50031817383254        1.08936247053154
C            0.32058895785756        1.25804083510527        2.41757529775198
C            0.47098284386465        2.36011043390363        3.29409259088877
C            0.67673572799494        2.14608719494267        4.65404023393839
N            0.85991490851004        1.96361928074407        5.78238783582449
C            0.42967968619657        3.67524519426687        2.77918599689752
C            0.24683835142558        3.90841822804852        1.44150324472759
C            0.10128871511394        2.82065386514590        0.56480552637773
C           -0.07623778923025        2.75566545339565       -0.84313715079905
C           -0.21623034836963        3.75781213381807       -1.81734874141486
C           -0.39737740660491        3.40200884214113       -3.12800423340018
C           -0.44317400503263        2.04491347630000       -3.51867244155971
C           -0.64563266649184        1.70581280006456       -4.85347232898275
N           -0.82463333182481        1.41908583579987       -5.96060565169867
C           -0.29969479650484        1.02850249020901       -2.54313056348936
C           -0.11973361413328        1.39254244736686       -1.24286243130006
C            1.16594634531236       -0.46898448852548       -0.05955508861853
C            2.49925556636309       -0.17731741256795       -0.10945167002496
C            3.42981783192929       -1.23455897052027       -0.08723628114388
N            4.78564429045939       -0.96310378459389       -0.09192509046681
C            5.27226260878996        0.18575105782506        0.54340764801741
C            6.33995917571555        0.90186959650629       -0.00254620421654
C            6.81353134391419        2.02957069260848        0.63348105907698
C            6.24352220433770        2.48308658271000        1.82194381539487
C            6.77190903865905        3.71120492696908        2.49295838615466
C            5.18252991342535        1.76264998922126        2.36087394070174
C            4.70230881631613        0.62833692464610        1.73863681442284
C            5.68276197697228       -1.83808957459123       -0.71599139223012
C            5.34562594975362       -2.44990415467169       -1.92559732202505
C            6.23535061553968       -3.30537312010398       -2.54031971896652
C            7.48023585479454       -3.57789565998975       -1.97746665675625
C            8.42672344127983       -4.52248424194890       -2.64786867869580
C            7.80824535511844       -2.96296631975892       -0.77282938574470
C            6.92804604056773       -2.10471296200329       -0.14549271979947
C            2.97050446651690       -2.56578506613146       -0.03025034330435
C            1.62976733075678       -2.85532820276896        0.03239589738051
C            0.70341269814554       -1.80639922557418        0.02487786568480
C           -6.94518164628502       -2.00647848599127        0.27005239034322
C           -7.83720791332583       -2.81281557836616        0.94795138381796
H           -9.47729352808135       -4.17338411108255        2.49140680252278
H           -8.53567777669902       -3.95853318263938        3.97632730067300
H           -8.14403164977206       -5.26728285590566        2.86835693095964
H           -6.02612372881239       -3.42907334206582        3.72443742964266
H           -4.43212144579495       -1.98828180895336        2.53678113527495
H           -3.88495187513703       -0.02827684550417       -2.18935492945752
H           -4.70024461492008        1.91273418633933       -3.43227663560355
H           -6.29719290576485        4.53008664121799       -2.31857648363103
H           -6.40884669336221        3.57656339963653       -3.79738430860773
H           -7.79596243947800        3.68815058254964       -2.69891064886623
H           -7.60577712973617        2.64973943939712       -0.39060395674076
H           -6.77139508277366        0.72321195570550        0.87918713574414
H           -3.73503568847740       -3.30497188359359        0.24813796401270
H           -1.34202546652585       -3.85809389187625        0.18378356890497
H           -2.82290871485715        0.89336118816388        0.09734075190842
H            0.35538341113490        0.25231438343505        2.81539313978096
H            0.54895901543079        4.50062457174959        3.46870317080136
H            0.22227369504695        4.91939781433533        1.06069397377198
H           -0.18823790542996        4.79967900615177       -1.53200341895705
H           -0.51104597483130        4.16028809233798       -3.89156160970351
H           -0.33814100865696       -0.00971152099853       -2.84583338139868
H            2.84083977482884        0.84469413356738       -0.17779095648192
H            6.78076415965001        0.57462188959392       -0.93247770892086
H            7.63506582443671        2.57866328200264        0.19726523145990
H            6.72263205495083        4.56327189187279        1.81590019738938
H            6.20031988577475        3.94308310082685        3.38781775799719
H            7.81585611110062        3.57040113731498        2.77142560084847
H            4.72713812235103        2.08644406921848        3.28581056286805
H            3.89168560524343        0.07054911488130        2.18366585737493
H            4.39182745470586       -2.23141290764478       -2.38315214032515
H            5.96466060719044       -3.76378196445992       -3.48023551946138
H            8.41475910683036       -4.37902377377322       -3.72636311874813
H            9.44096440563959       -4.38511145980002       -2.28201745725959
H            8.12803972454640       -5.55205366607827       -2.44682240631038
H            8.76559406951952       -3.16410378483347       -0.31496223331371
H            7.19132142562579       -1.64454601274427        0.79525276052179
H            3.69691288309574       -3.36396299266435        0.00338865211203
H            1.29612797890124       -3.87870145868727        0.10735176076842
H           -7.19615955220922       -1.61303657557997       -0.70375962823633
H           -8.79141287643628       -3.03986814208270        0.49566110652073

          :  Hamiltonian                  GFN2-xTB          :
         :: gradient norm              0.000044673542 Eh/a0 ::
         :: HOMO-LUMO gap              0.091404265489 eV    ::
         :: SCC energy              -152.716673866087 Eh    ::
         :: -> dispersion             -0.140207256650 Eh    ::
         :: -> Gsolv                  -0.082139314022 Eh    ::
         :: repulsion energy           2.840526097830 Eh    ::

    * Orbital Energies and Occupations

         #    Occupation            Energy/Eh            Energy/eV
      -------------------------------------------------------------
         1        2.0000           -0.6854471             -18.6520
       ...           ...                  ...                  ...
       129        2.0000           -0.4083344             -11.1113
       130        2.0000           -0.4081226             -11.1056
       131        2.0000           -0.4074965             -11.0885
       132        2.0000           -0.4040581             -10.9950
       133        2.0000           -0.4037158             -10.9857
       134        2.0000           -0.4005808             -10.9004
       135        2.0000           -0.3988902             -10.8544
       136        2.0000           -0.3975013             -10.8166
       137        2.0000           -0.3950428             -10.7497
       138        1.9997           -0.3686694             -10.0320
       139        1.9980           -0.3670164              -9.9870
       140        1.0023           -0.3553292              -9.6690
       141        0.8542           -0.2728497              -7.4246 (HOMO)
       142        0.1458           -0.2694911              -7.3332 (LUMO)
       143                         -0.2413045              -6.5662
       144                         -0.2412554              -6.5649
       145                         -0.2390925              -6.5060
       146                         -0.2378252              -6.4716
       147                         -0.2337757              -6.3614
       148                         -0.2331047              -6.3431
       149                         -0.2325603              -6.3283
       150                         -0.2323120              -6.3215
       151                         -0.2303104              -6.2671
       152                         -0.2279139              -6.2019
       ...                                ...                  ...
       276                          1.1695341              31.8246
      -------------------------------------------------------------
                  HL-Gap            0.0033586 Eh            0.0914 eV

     #   Z          covCN         q      C6AA      α(0)
     1   6 C        3.758    -0.115    22.744     6.799
     2   6 C        2.965     0.024    27.455     8.595
     3   6 C        2.924    -0.036    28.897     8.815
     4   6 C        2.919    -0.041    29.015     8.833
     5   6 C        2.927     0.057    26.721     8.477
     6   7 N        2.753    -0.024    21.718     6.922
     7   6 C        2.928     0.058    26.698     8.474
     8   6 C        2.919    -0.039    28.978     8.828
     9   6 C        2.923    -0.034    28.858     8.809
    10   6 C        2.965     0.024    27.465     8.596
    11   6 C        3.758    -0.113    22.721     6.796
    12   6 C        2.924    -0.036    28.903     8.816
    13   6 C        2.919    -0.042    29.038     8.837
    14   6 C        2.928     0.062    26.614     8.460
    15   6 C        2.919    -0.044    29.101     8.846
    16   6 C        2.910    -0.032    28.799     8.800
    17   6 C        3.035     0.001    27.961     8.673
    18   6 C        3.057     0.010    27.743     8.638
    19   6 C        2.913    -0.046    29.144     8.853
    20   6 C        3.972     0.011    20.321     6.405
    21   6 C        3.049    -0.007    28.140     8.700
    22   6 C        2.917    -0.038    28.939     8.821
    23   6 C        2.972    -0.023    28.570     8.768
    24   6 C        1.912     0.101    28.584     8.634
    25   7 N        0.911    -0.357    29.191     7.814
    26   6 C        2.923    -0.033    28.834     8.806
    27   6 C        2.909    -0.045    29.117     8.848
    28   6 C        3.031    -0.016    28.381     8.738
    29   6 C        3.031    -0.016    28.381     8.738
    30   6 C        2.909    -0.045    29.117     8.848
    31   6 C        2.923    -0.033    28.834     8.806
    32   6 C        2.972    -0.023    28.569     8.767
    33   6 C        1.912     0.101    28.583     8.634
    34   7 N        0.911    -0.357    29.188     7.814
    35   6 C        2.917    -0.038    28.940     8.822
    36   6 C        3.050    -0.007    28.137     8.700
    37   6 C        3.057     0.010    27.744     8.638
    38   6 C        2.913    -0.046    29.141     8.852
    39   6 C        2.928     0.062    26.616     8.461
    40   7 N        2.753    -0.024    21.719     6.922
    41   6 C        2.928     0.058    26.698     8.474
    42   6 C        2.919    -0.042    29.039     8.837
    43   6 C        2.924    -0.036    28.905     8.817
    44   6 C        2.965     0.024    27.466     8.596
    45   6 C        3.758    -0.113    22.722     6.796
    46   6 C        2.923    -0.034    28.854     8.809
    47   6 C        2.920    -0.039    28.978     8.828
    48   6 C        2.927     0.057    26.719     8.477
    49   6 C        2.919    -0.041    29.017     8.833
    50   6 C        2.924    -0.036    28.895     8.815
    51   6 C        2.965     0.024    27.456     8.595
    52   6 C        3.758    -0.115    22.744     6.799
    53   6 C        2.924    -0.036    28.888     8.814
    54   6 C        2.919    -0.041    29.024     8.835
    55   6 C        2.919    -0.044    29.097     8.846
    56   6 C        2.910    -0.032    28.800     8.800
    57   6 C        3.035     0.001    27.960     8.673
    58   6 C        2.919    -0.041    29.022     8.834
    59   6 C        2.923    -0.036    28.887     8.814
    60   1 H        0.925     0.052     2.301     2.372
    61   1 H        0.925     0.055     2.254     2.348
    62   1 H        0.924     0.060     2.204     2.322
    63   1 H        0.926     0.047     2.354     2.399
    64   1 H        0.926     0.041     2.431     2.438
    65   1 H        0.926     0.037     2.483     2.464
    66   1 H        0.926     0.040     2.452     2.448
    67   1 H        0.924     0.058     2.222     2.331
    68   1 H        0.925     0.050     2.322     2.383
    69   1 H        0.925     0.057     2.240     2.340
    70   1 H        0.926     0.049     2.331     2.388
    71   1 H        0.926     0.046     2.373     2.409
    72   1 H        0.926     0.049     2.330     2.387
    73   1 H        0.926     0.050     2.319     2.381
    74   1 H        0.926     0.036     2.497     2.471
    75   1 H        0.925     0.007     2.933     2.678
    76   1 H        0.925     0.012     2.855     2.642
    77   1 H        0.926     0.017     2.774     2.604
    78   1 H        0.926     0.017     2.774     2.604
    79   1 H        0.925     0.012     2.854     2.642
    80   1 H        0.925     0.007     2.934     2.679
    81   1 H        0.926     0.036     2.498     2.472
    82   1 H        0.926     0.046     2.372     2.408
    83   1 H        0.926     0.049     2.327     2.385
    84   1 H        0.925     0.057     2.235     2.338
    85   1 H        0.925     0.048     2.347     2.396
    86   1 H        0.925     0.060     2.203     2.321
    87   1 H        0.926     0.039     2.455     2.450
    88   1 H        0.926     0.037     2.483     2.464
    89   1 H        0.926     0.041     2.433     2.439
    90   1 H        0.926     0.047     2.357     2.401
    91   1 H        0.925     0.055     2.263     2.353
    92   1 H        0.925     0.052     2.295     2.369
    93   1 H        0.924     0.060     2.200     2.320
    94   1 H        0.926     0.048     2.350     2.397
    95   1 H        0.926     0.044     2.399     2.422
    96   1 H        0.926     0.049     2.330     2.387
    97   1 H        0.926     0.050     2.319     2.381
    98   1 H        0.926     0.044     2.400     2.423
    99   1 H        0.926     0.047     2.351     2.398

molecular dipole:
                 x           y           z       tot (Debye)
 q only:       -0.011      -4.018       0.184
   full:       -0.002      -3.713       0.173       9.447

 projected vibrational frequencies (cm⁻¹)
eigval :       -0.00    -0.00    -0.00     0.00     0.00     0.00
eigval :        6.53     9.34    12.26    12.80    18.75    21.15
eigval :       22.53    32.05    36.65    37.04    40.98    42.23
eigval :       47.23    48.66    50.81    51.57    58.28    61.53
eigval :       69.86    74.48    77.83    80.30    89.68    95.57
eigval :      125.17   130.00   136.94   137.35   150.58   152.58
eigval :      156.91   158.44   175.40   198.77   200.99   213.29
eigval :      227.15   241.36   256.65   257.99   269.76   282.16
eigval :      290.07   292.54   294.44   300.61   316.92   327.63
eigval :      338.48   345.81   351.90   356.10   356.29   365.64
eigval :      375.64   378.00   378.64   382.30   382.56   383.57
eigval :      400.78   414.63   425.42   436.10   437.42   444.95
eigval :      445.26   453.15   463.27   471.72   478.85   491.82
eigval :      500.08   508.10   519.70   521.23   533.25   534.34
eigval :      545.99   558.35   560.18   568.17   577.50   597.61
eigval :      598.90   606.35   607.20   609.13   610.46   611.57
eigval :      614.81   627.92   645.96   664.58   664.85   665.18
eigval :      665.32   671.48   683.20   685.34   689.40   721.06
eigval :      724.71   751.15   756.38   791.60   792.87   799.57
eigval :      804.62   806.35   807.34   808.11   808.47   817.23
eigval :      820.16   824.67   825.86   853.71   860.44   863.05
eigval :      864.12   865.84   866.08   868.13   876.52   881.05
eigval :      885.32   897.87   900.94   904.94   907.67   914.41
eigval :      915.24   915.65   919.27   926.52   926.82   927.92
eigval :      930.83   931.87   932.31   937.98   964.30   980.64
eigval :      985.45  1002.37  1006.79  1008.14  1008.80  1009.18
eigval :     1009.66  1017.38  1022.77  1025.27  1026.92  1027.31
eigval :     1027.47  1028.02  1030.83  1060.71  1120.13  1136.97
eigval :     1141.58  1142.09  1144.79  1145.14  1149.59  1152.49
eigval :     1162.54  1164.56  1171.42  1186.18  1191.40  1192.08
eigval :     1192.79  1198.84  1204.37  1218.66  1220.75  1221.07
eigval :     1231.77  1232.77  1234.51  1252.44  1255.46  1262.19
eigval :     1264.47  1270.12  1270.69  1273.71  1274.65  1281.44
eigval :     1301.70  1303.75  1307.40  1309.09  1314.07  1320.71
eigval :     1321.54  1327.75  1327.91  1328.10  1340.00  1347.86
eigval :     1360.77  1398.31  1399.85  1400.33  1400.68  1405.78
eigval :     1409.84  1410.44  1411.12  1412.18  1412.79  1422.04
eigval :     1424.25  1453.08  1456.89  1461.04  1461.16  1470.07
eigval :     1470.16  1470.70  1471.08  1471.82  1472.04  1472.28
eigval :     1472.89  1473.00  1476.47  1477.21  1479.98  1480.19
eigval :     1480.74  1492.75  1531.26  1554.61  1554.78  1559.07
eigval :     1559.26  1563.26  1585.29  1585.37  1587.35  1589.57
eigval :     1590.27  1591.32  1606.11  2265.77  2280.99  2994.05
eigval :     2994.91  2997.46  3004.62  3017.78  3027.90  3032.30
eigval :     3032.40  3044.54  3045.93  3047.62  3048.39  3055.05
eigval :     3055.59  3057.02  3058.68  3071.53  3074.07  3075.83
eigval :     3075.89  3077.60  3078.83  3080.10  3080.52  3080.98
eigval :     3081.36  3086.29  3087.53  3088.88  3089.21  3089.65
eigval :     3089.99  3091.32  3092.11  3092.31  3093.18  3093.51
eigval :     3094.51  3097.19  3099.30

   temp. (K)  partition function   enthalpy   heat capacity  entropy
                                   cal/mol     cal/K/mol   cal/K/mol   J/K/mol
 298.15  VIB  0.611E+27            30988.262    182.916    198.861
         ROT  0.142E+09              888.752      2.981     40.280
         INT  0.866E+35            31877.014    185.897    239.141
         TR   0.201E+29             1481.254      4.968     45.731
         TOT                       33358.2679   190.8653   284.8718  1191.9034

       T/K    H(0)-H(T)+PV         H(T)/Eh          T*S/Eh         G(T)/Eh
   ------------------------------------------------------------------------
    298.15    0.531598E-01    0.816794E+00    0.135352E+00    0.681442E+00
   ------------------------------------------------------------------------

         :::::::::::::::::::::::::::::::::::::::::::::::::::::
         ::                  THERMODYNAMIC                  ::
         :::::::::::::::::::::::::::::::::::::::::::::::::::::
         :: total free energy        -149.194705697003 Eh   ::
         ::.................................................::
         :: total energy             -149.876147767521 Eh   ::
         :: zero point energy           0.763634048108 Eh   ::
         :: G(RRHO) w/o ZPVE           -0.082191977590 Eh   ::
         :: G(RRHO) contrib.            0.681442070518 Eh   ::
         :::::::::::::::::::::::::::::::::::::::::::::::::::::

           -------------------------------------------------
          | TOTAL ENERGY             -149.876147767521 Eh   |
          | TOTAL ENTHALPY           -149.059353935822 Eh   |
          | TOTAL FREE ENERGY        -149.194705697003 Eh   |
          | GRADIENT NORM               0.000046888573 Eh/α |
          | HOMO-LUMO GAP               0.091391995849 eV   |
           -------------------------------------------------

 * finished run on 2025/09/12 at 23:28:15.759
