   * xtb version 6.7.1 (edcfbbe) compiled by 'albert@albert-system' on 2024-07-22

   ID    Z sym.   atoms
    1    7 N      1, 20
    2    6 C      2-19, 21-34, 36-45
    3    8 O      35
    4    1 H      46-69

          program call               : xtb data2507/toluene/p-PO-ABN/p-PO-ABN_toluene_S0_crest.xyz --gfn 2 --gbsa toluene --ohess vtight --parallel 40 --molden --ceasefiles --namespace data2507/toluene/p-PO-ABN/p-PO-ABN_toluene_S0_finalOpt
      * Solvation model:               GBSA
        Solvent                        toluene
        Solvent mass                       9.2140E+01 g/mol
          :  Hamiltonian                  GFN2-xTB          :
 * total energy  :  -112.1444491 Eh     change       -0.8417658E-09 Eh
 * total energy  :  -112.1444794 Eh     change       -0.3032076E-04 Eh
 * total energy  :  -112.1444897 Eh     change       -0.1034013E-04 Eh
 * total energy  :  -112.1444949 Eh     change       -0.5150931E-05 Eh
 * total energy  :  -112.1445025 Eh     change       -0.7651436E-05 Eh
 * total energy  :  -112.1445085 Eh     change       -0.5981896E-05 Eh
 * total energy  :  -112.1445198 Eh     change       -0.1133272E-04 Eh
 * total energy  :  -112.1445345 Eh     change       -0.1462662E-04 Eh
 * total energy  :  -112.1445525 Eh     change       -0.1808531E-04 Eh
 * total energy  :  -112.1445782 Eh     change       -0.2561980E-04 Eh
 * total energy  :  -112.1447173 Eh     change       -0.6132198E-06 Eh
 * total energy  :  -112.1447178 Eh     change       -0.4845869E-06 Eh
 * total energy  :  -112.1447182 Eh     change       -0.4125187E-06 Eh
 * total energy  :  -112.1447187 Eh     change       -0.4290350E-06 Eh
 * total energy  :  -112.1447191 Eh     change       -0.4820519E-06 Eh
 * total energy  :  -112.1447197 Eh     change       -0.5332246E-06 Eh
 * total energy  :  -112.1447202 Eh     change       -0.5615398E-06 Eh
 * total energy  :  -112.1447208 Eh     change       -0.5595216E-06 Eh
 * total energy  :  -112.1447208 Eh     change       -0.1925230E-08 Eh
   *** GEOMETRY OPTIMIZATION CONVERGED AFTER 44 ITERATIONS ***

 final structure:
================
69
 xtb: 6.7.1 (edcfbbe)
N          -11.89848749896673        0.08780528088493        0.05872197479099
C          -10.75033960994520        0.07106130899783        0.04884560734460
C           -9.33912378584535        0.05157865608289        0.03744782918018
C           -8.65411745668595       -0.25605721109906       -1.14037446919097
C           -7.27419091029640       -0.26848771908700       -1.14527174278702
C           -6.55649672246306        0.01777335099082        0.01511227612587
C           -5.07750464727042        0.00080998257946        0.00283062417588
C           -4.37551923518620        1.02767044900227       -0.64416856717395
C           -5.04477162602830        2.11197384078611       -1.27191896339150
C           -4.35306854674108        3.09211164320532       -1.91464369345881
C           -2.94559169546695        3.04556966692962       -1.97522531861747
C           -2.26523307248018        2.03412902493455       -1.36969587808438
C           -2.94580654793724        1.00419296703608       -0.66720110695714
C           -2.25488030354533       -0.03162999547546       -0.02085436408388
C           -0.77687100002155       -0.04731203956455       -0.03106544342041
C           -0.05579063080937        0.90965635915448        0.68068001154819
C            1.32395956759649        0.89783371641142        0.67658483165132
C            2.01326990769862       -0.07546570788756       -0.04826377252639
C            3.45716175719219       -0.10075388410368       -0.06766560605998
N            4.19933752909005       -0.96191557915905       -0.70482093800878
C            5.48794568748238       -0.59296640771113       -0.43592157195673
C            6.71936741379514       -1.16647793426548       -0.86243069782299
C            6.75498040895958       -2.29212356311603       -1.69189894781798
C            7.95741604541686       -2.82421841141648       -2.08814667477584
C            9.14315334000194       -2.23165285742762       -1.65776242266835
C            9.12070884323832       -1.12459223946872       -0.84131717714581
C            7.91353729717089       -0.55037325376315       -0.41236202010201
C            7.86907455783752        0.61846736551649        0.45104043688188
C            9.02569191454961        1.25910384852020        0.92045187271795
C            8.96018376611274        2.36541676869000        1.73613382393246
C            7.73024255562231        2.89215722057546        2.12708655198982
C            6.57263357412476        2.29646869754103        1.69240032574697
C            6.62699731702642        1.16959183670658        0.86153362644343
C            5.46209161947972        0.52081067487980        0.38661377019294
O            4.16465538031364        0.83479063212455        0.62133220795547
C            1.29513921200727       -1.03536104208000       -0.76447168841622
C           -0.08352311509413       -1.01947496179662       -0.75165645622832
C           -2.95837276424910       -1.05216341143171        0.63621084403365
C           -2.28994431513526       -2.09909360180424        1.32510083418111
C           -2.98334560362196       -3.09513111002359        1.94131213427478
C           -4.39240530958153       -3.10775456073983        1.90649626862961
C           -5.07196837515873       -2.11087457030354        1.27671203349566
C           -4.38840606782914       -1.04223657142135        0.63771753067935
C           -7.24831371134381        0.32023891346148        1.18702152096268
C           -8.62800571867615        0.34153924627837        1.20424837771825
H           -9.21061897081807       -0.48142645640283       -2.03848394746284
H           -6.74012840768361       -0.50633220228135       -2.05343514575505
H           -6.12326092541583        2.14855255128373       -1.22990963836609
H           -4.87705204164258        3.90993009221938       -2.38758879320996
H           -2.41246208389362        3.82151968554130       -2.50504331766530
H           -1.18720683749215        1.99955567887511       -1.41858004609996
H           -0.58752055834528        1.66225279420367        1.24464356790274
H            1.87863517264620        1.63927088705576        1.23216963228288
H            5.81520905711906       -2.72150646467724       -2.00415979411750
H            7.98749670809306       -3.69398749412497       -2.72745623439679
H           10.09123879860850       -2.64630880113753       -1.96805581460950
H           10.06178516226915       -0.69946121656092       -0.53187455501459
H            9.99827474884235        0.88652031884673        0.64309546597101
H            9.87283891106895        2.83176557187943        2.07711810810842
H            7.69108711384921        3.76150508677416        2.76634078568500
H            5.60417803372096        2.68026529515710        1.97830836865405
H            1.84131792760017       -1.78041957221163       -1.32108065606335
H           -0.63805216400908       -1.76049610270528       -1.30855091618756
H           -1.21067279384783       -2.09131034867359        1.35325255406714
H           -2.45934977250134       -3.88490709148799        2.45963270627549
H           -4.92718101945149       -3.91350802243051        2.38796493904830
H           -6.15158137489784       -2.12140343362762        1.25396792153193
H           -6.69402602720124        0.54464336213541        2.08646704541153
H           -9.16449024695237        0.57999776240744        2.11111153725685

          :  Hamiltonian                  GFN2-xTB          :
         :: gradient norm              0.000087231389 Eh/a0 ::
         :: HOMO-LUMO gap              2.063704241173 eV    ::
         :: SCC energy              -114.265658927093 Eh    ::
         :: -> dispersion             -0.096901726704 Eh    ::
         :: -> Gsolv                  -0.051625654855 Eh    ::
         :: repulsion energy           2.120938128145 Eh    ::

    * Orbital Energies and Occupations

         #    Occupation            Energy/Eh            Energy/eV
      -------------------------------------------------------------
         1        2.0000           -0.7557924             -20.5662
       ...           ...                  ...                  ...
        92        2.0000           -0.4251492             -11.5689
        93        2.0000           -0.4197383             -11.4217
        94        2.0000           -0.4183288             -11.3833
        95        2.0000           -0.4179125             -11.3720
        96        2.0000           -0.4121942             -11.2164
        97        2.0000           -0.4117261             -11.2036
        98        2.0000           -0.4080650             -11.1040
        99        2.0000           -0.4065980             -11.0641
       100        2.0000           -0.4040644             -10.9952
       101        2.0000           -0.4005429             -10.8993
       102        2.0000           -0.3928256             -10.6893
       103        2.0000           -0.3775699             -10.2742
       104        2.0000           -0.3642150              -9.9108 (HOMO)
       105                         -0.2883753              -7.8471 (LUMO)
       106                         -0.2770939              -7.5401
       107                         -0.2729263              -7.4267
       108                         -0.2594597              -7.0603
       109                         -0.2524005              -6.8682
       110                         -0.2431306              -6.6159
       111                         -0.2363680              -6.4319
       112                         -0.2340451              -6.3687
       113                         -0.2247387              -6.1155
       114                         -0.2175323              -5.9194
       115                         -0.2135330              -5.8105
       ...                                ...                  ...
       204                          1.1583240              31.5196
      -------------------------------------------------------------
                  HL-Gap            0.0758397 Eh            2.0637 eV

     #   Z          covCN         q      C6AA      α(0)
     1   7 N        0.911    -0.276    27.124     7.532
     2   6 C        1.912     0.118    28.190     8.575
     3   6 C        2.974     0.014    27.700     8.633
     4   6 C        2.924    -0.019    28.472     8.750
     5   6 C        2.922    -0.027    28.669     8.781
     6   6 C        2.976     0.030    27.337     8.576
     7   6 C        2.977    -0.007    28.178     8.707
     8   6 C        2.983     0.008    27.829     8.653
     9   6 C        2.917    -0.035    28.871     8.811
    10   6 C        2.914    -0.029    28.724     8.788
    11   6 C        2.914    -0.029    28.731     8.790
    12   6 C        2.917    -0.034    28.852     8.808
    13   6 C        2.983     0.008    27.833     8.654
    14   6 C        2.976    -0.004    28.107     8.696
    15   6 C        2.976     0.023    27.484     8.599
    16   6 C        2.922    -0.030    28.745     8.792
    17   6 C        2.921    -0.028    28.711     8.787
    18   6 C        2.974    -0.009    28.239     8.717
    19   6 C        3.223     0.217    22.801     7.761
    20   7 N        1.882    -0.317    29.074     7.993
    21   6 C        3.162     0.056    26.422     8.402
    22   6 C        2.985    -0.003    28.098     8.695
    23   6 C        2.920    -0.030    28.755     8.794
    24   6 C        2.917    -0.029    28.723     8.788
    25   6 C        2.917    -0.030    28.759     8.794
    26   6 C        2.921    -0.034    28.836     8.806
    27   6 C        2.978    -0.002    28.071     8.691
    28   6 C        2.980     0.001    27.999     8.680
    29   6 C        2.921    -0.032    28.805     8.801
    30   6 C        2.917    -0.030    28.748     8.792
    31   6 C        2.917    -0.029    28.722     8.788
    32   6 C        2.919    -0.032    28.788     8.799
    33   6 C        2.982    -0.010    28.251     8.719
    34   6 C        3.110     0.103    25.580     8.286
    35   8 O        1.724    -0.232    17.839     5.703
    36   6 C        2.923    -0.028    28.712     8.787
    37   6 C        2.922    -0.028    28.706     8.786
    38   6 C        2.983     0.008    27.831     8.654
    39   6 C        2.917    -0.034    28.853     8.808
    40   6 C        2.914    -0.029    28.727     8.789
    41   6 C        2.914    -0.029    28.721     8.788
    42   6 C        2.917    -0.035    28.872     8.811
    43   6 C        2.983     0.008    27.827     8.653
    44   6 C        2.922    -0.027    28.670     8.781
    45   6 C        2.924    -0.019    28.473     8.751
    46   1 H        0.926     0.044     2.400     2.423
    47   1 H        0.926     0.048     2.349     2.397
    48   1 H        0.926     0.032     2.556     2.500
    49   1 H        0.926     0.033     2.542     2.493
    50   1 H        0.926     0.033     2.546     2.495
    51   1 H        0.926     0.034     2.534     2.489
    52   1 H        0.926     0.044     2.392     2.419
    53   1 H        0.926     0.044     2.397     2.421
    54   1 H        0.926     0.047     2.357     2.401
    55   1 H        0.926     0.040     2.455     2.450
    56   1 H        0.926     0.040     2.454     2.450
    57   1 H        0.926     0.043     2.413     2.429
    58   1 H        0.926     0.045     2.380     2.412
    59   1 H        0.926     0.041     2.434     2.440
    60   1 H        0.926     0.040     2.454     2.450
    61   1 H        0.926     0.038     2.475     2.460
    62   1 H        0.926     0.055     2.264     2.353
    63   1 H        0.926     0.047     2.354     2.399
    64   1 H        0.926     0.034     2.525     2.485
    65   1 H        0.926     0.033     2.540     2.492
    66   1 H        0.926     0.033     2.540     2.492
    67   1 H        0.926     0.032     2.555     2.500
    68   1 H        0.926     0.047     2.352     2.398
    69   1 H        0.926     0.044     2.402     2.424

molecular dipole:
                 x           y           z       tot (Debye)
 q only:        1.670       0.085       0.074
   full:        2.143       0.379       0.290       5.580

 projected vibrational frequencies (cm⁻¹)
eigval :       -0.00    -0.00    -0.00    -0.00     0.00     0.00
eigval :       10.61    13.98    21.20    34.35    36.01    39.83
eigval :       44.79    52.06    65.57    79.72    83.29    94.14
eigval :      102.90   110.32   116.50   119.76   131.46   171.05
eigval :      182.77   183.24   197.46   210.05   213.36   226.25
eigval :      250.21   261.26   280.44   289.24   304.67   360.64
eigval :      364.51   373.97   374.92   384.42   396.59   400.93
eigval :      406.43   409.05   412.99   429.62   442.29   445.74
eigval :      447.03   452.62   458.21   488.85   493.70   524.81
eigval :      525.76   534.03   536.25   542.98   579.35   582.77
eigval :      585.15   589.70   592.99   604.90   619.38   629.89
eigval :      640.31   655.80   661.69   664.83   678.10   684.12
eigval :      690.58   693.19   695.24   713.40   730.89   738.65
eigval :      740.23   768.11   770.15   773.95   776.29   785.65
eigval :      786.49   815.32   820.59   865.98   870.14   871.86
eigval :      873.31   876.05   878.57   897.95   908.14   910.25
eigval :      915.96   918.09   918.27   918.97   921.03   924.11
eigval :      924.82   927.88   928.86   929.45   930.03   930.72
eigval :      931.90   939.33   953.11  1008.56  1017.21  1019.84
eigval :     1051.09  1079.89  1081.14  1081.97  1084.45  1098.69
eigval :     1127.16  1130.19  1133.82  1140.15  1143.04  1155.69
eigval :     1180.20  1180.36  1181.33  1182.87  1183.80  1185.40
eigval :     1205.55  1205.90  1214.69  1229.13  1241.90  1251.33
eigval :     1253.98  1258.72  1259.16  1262.12  1265.28  1276.54
eigval :     1285.85  1305.82  1309.35  1317.46  1325.40  1340.98
eigval :     1342.23  1348.10  1370.59  1382.64  1390.84  1398.47
eigval :     1401.99  1405.47  1416.04  1426.95  1428.42  1431.97
eigval :     1440.74  1463.29  1479.58  1490.26  1514.52  1515.52
eigval :     1524.85  1527.02  1539.54  1544.90  1545.31  1554.93
eigval :     1564.40  1574.62  1584.84  1589.01  1592.73  1603.62
eigval :     1606.57  1620.89  2361.10  3072.58  3072.95  3074.48
eigval :     3076.33  3078.68  3079.18  3079.62  3080.46  3080.99
eigval :     3081.77  3084.04  3084.32  3088.40  3088.70  3091.42
eigval :     3091.91  3092.15  3093.03  3093.38  3095.15  3098.36
eigval :     3102.12  3107.51  3111.94

   temp. (K)  partition function   enthalpy   heat capacity  entropy
                                   cal/mol     cal/K/mol   cal/K/mol   J/K/mol
 298.15  VIB  0.163E+16            19905.755    127.020    123.327
         ROT  0.835E+08              888.752      2.981     39.229
         INT  0.136E+24            20794.508    130.000    162.556
         TR   0.133E+29             1481.254      4.968     44.899
         TOT                       22275.7614   134.9686   207.4558   867.9949

       T/K    H(0)-H(T)+PV         H(T)/Eh          T*S/Eh         G(T)/Eh
   ------------------------------------------------------------------------
    298.15    0.354987E-01    0.551282E+00    0.985689E-01    0.452713E+00
   ------------------------------------------------------------------------

         :::::::::::::::::::::::::::::::::::::::::::::::::::::
         ::                  THERMODYNAMIC                  ::
         :::::::::::::::::::::::::::::::::::::::::::::::::::::
         :: total free energy        -111.692007688522 Eh   ::
         ::.................................................::
         :: total energy             -112.144720796456 Eh   ::
         :: zero point energy           0.515783350614 Eh   ::
         :: G(RRHO) w/o ZPVE           -0.063070242680 Eh   ::
         :: G(RRHO) contrib.            0.452713107934 Eh   ::
         :::::::::::::::::::::::::::::::::::::::::::::::::::::

           -------------------------------------------------
          | TOTAL ENERGY             -112.144720796456 Eh   |
          | TOTAL ENTHALPY           -111.593438760413 Eh   |
          | TOTAL FREE ENERGY        -111.692007688522 Eh   |
          | GRADIENT NORM               0.000087240003 Eh/α |
          | HOMO-LUMO GAP               2.063704194645 eV   |
           -------------------------------------------------

 * finished run on 2025/09/02 at 19:47:45.551
