   * xtb version 6.7.1 (edcfbbe) compiled by 'albert@albert-system' on 2024-07-22

   ID    Z sym.   atoms
    1    7 N      1, 20
    2    6 C      2-19, 21-34, 36-45
    3    8 O      35
    4    1 H      46-69

          program call               : xtb data2507/toluene/p-PO-ABN/p-PO-ABN_toluene_T1_crest.xyz --gfn 2 --uhf 2 --gbsa toluene --ohess vtight --parallel 40 --molden --ceasefiles --namespace data2507/toluene/p-PO-ABN/p-PO-ABN_toluene_T1_finalOpt
      * Solvation model:               GBSA
        Solvent                        toluene
        Solvent mass                       9.2140E+01 g/mol
          :  Hamiltonian                  GFN2-xTB          :
 * total energy  :  -112.0787701 Eh     change       -0.1027442E-07 Eh
 * total energy  :  -112.0788094 Eh     change       -0.3930374E-04 Eh
 * total energy  :  -112.0788055 Eh     change        0.3910674E-05 Eh
 * total energy  :  -112.0788220 Eh     change       -0.1652028E-04 Eh
 * total energy  :  -112.0788246 Eh     change       -0.2542664E-05 Eh
 * total energy  :  -112.0788264 Eh     change       -0.1873012E-05 Eh
 * total energy  :  -112.0788277 Eh     change       -0.1230555E-05 Eh
 * total energy  :  -112.0788286 Eh     change       -0.9836250E-06 Eh
 * total energy  :  -112.0788299 Eh     change       -0.1279585E-05 Eh
 * total energy  :  -112.0788312 Eh     change       -0.1307883E-05 Eh
 * total energy  :  -112.0788337 Eh     change       -0.7545211E-06 Eh
 * total energy  :  -112.0788346 Eh     change       -0.8867047E-06 Eh
 * total energy  :  -112.0788356 Eh     change       -0.9710842E-06 Eh
 * total energy  :  -112.0788367 Eh     change       -0.1076497E-05 Eh
 * total energy  :  -112.0788376 Eh     change       -0.9601014E-06 Eh
 * total energy  :  -112.0788384 Eh     change       -0.7991676E-06 Eh
 * total energy  :  -112.0788392 Eh     change       -0.7739436E-06 Eh
 * total energy  :  -112.0788401 Eh     change       -0.9179555E-06 Eh
 * total energy  :  -112.0788401 Eh     change       -0.1536310E-07 Eh
   *** GEOMETRY OPTIMIZATION CONVERGED AFTER 22 ITERATIONS ***

 final structure:
================
69
 xtb: 6.7.1 (edcfbbe)
N          -11.90709125953280        0.09684210151351       -0.02017400983996
C          -10.75674561090994        0.07901378772150       -0.01595527345567
C           -9.35087915540646        0.05768869207453       -0.01124652480258
C           -8.63646872452224        0.38392202290606       -1.17137973176184
C           -7.26147197028804        0.37292587903286       -1.15848305794811
C           -6.54865412982250        0.01792230696558       -0.00198894198079
C           -5.09440650199847       -0.00135781282174        0.00168056875541
C           -4.36457494125226        1.15197360543164       -0.42125581743513
C           -5.00889148275050        2.35091367879488       -0.75147709719006
C           -4.30918267459383        3.43342632078495       -1.26956879025856
C           -2.94784883094884        3.33072524442946       -1.48153664499047
C           -2.27326652773431        2.17838834593617       -1.09525602918506
C           -2.94020653316354        1.10508347345640       -0.49384458577551
C           -2.23620603258623       -0.03971610994568       -0.00032930690346
C           -0.78815735904276       -0.05795110086709       -0.00165456097342
C           -0.04826913575990        1.00742188317227        0.54263101178876
C            1.32465395220590        0.98941356862597        0.55157990467263
C            2.02441226514094       -0.08662792678442       -0.01205259877992
C            3.45765830221497       -0.11210183914416       -0.03012174869619
N            4.20511686960143       -1.07408762833672       -0.50805044368764
C            5.48938424845093       -0.66068145581546       -0.31400148019448
C            6.72123359573179       -1.29861537804095       -0.63589456338295
C            6.75567072331473       -2.55564199286649       -1.24818245993407
C            7.95747587303677       -3.15009299656972       -1.54638290531304
C            9.14365785128092       -2.48940191803419       -1.23302211938503
C            9.12242698712004       -1.25203098246499       -0.63156615651678
C            7.91620973520943       -0.60977533264815       -0.31050765931489
C            7.87321112239916        0.69705802878028        0.32479314324878
C            9.02973532019880        1.41732728190226        0.65781999614095
C            8.96534580362846        2.65376351513897        1.25897610667805
C            7.73576274235418        3.23730268246963        1.56156234918191
C            6.57797313298974        2.56871479398002        1.25299974168269
C            6.63055096739079        1.30930128727958        0.63897188453241
C            5.46598237603649        0.58462108844999        0.29764535393447
O            4.16984106063249        0.93528725930773        0.47960189772807
C            1.29812882543635       -1.15002525160826       -0.56792439881568
C           -0.07384870624531       -1.14029203915577       -0.54899263147431
C           -2.96985543695891       -1.16555801048566        0.49369604519780
C           -2.33029549116600       -2.25749912054575        1.09120535915966
C           -3.03516345394924       -3.39090091764875        1.47952584133210
C           -4.39970566906176       -3.45555287146095        1.27318728736408
C           -5.07120374586172       -2.35410008516723        0.75772601303282
C           -4.39526381664405       -1.17342364327285        0.42485285840166
C           -7.27871176505772       -0.31708384703659        1.14962340369482
C           -8.65360586309541       -0.28873481280217        1.15340532864048
H           -9.17585033433133        0.63867290015138       -2.07237852759175
H           -6.71616989315090        0.60233602493030       -2.06208113310626
H           -6.07299075190476        2.44201300628436       -0.59786160995326
H           -4.83733883887226        4.34125656392356       -1.52013674430288
H           -2.39949838715012        4.14473449642868       -1.93162754114318
H           -1.21112230584209        2.11102345913276       -1.27192118654083
H           -0.57567988113193        1.82745803646284        1.00761426382069
H            1.87826212607310        1.80158633490954        0.99915182662304
H            5.81535108511476       -3.03491527629346       -1.47443638264147
H            7.98649259088805       -4.12060161670667       -2.01890090508971
H           10.09137717989887       -2.95327471209472       -1.46491143927424
H           10.06404183710328       -0.77760525512639       -0.40699083908510
H           10.00206535577772        1.00491404161900        0.44274527368221
H            9.87834684558131        3.17820179613642        1.49991317511416
H            7.69758739105089        4.20750402784402        2.03394928448658
H            5.60987420674746        2.99410142899439        1.47378345110060
H            1.84497057819891       -1.96572510771819       -1.01416221088526
H           -0.62179393764494       -1.94919032665631       -1.00918098948906
H           -1.26577991194298       -2.22056298063274        1.26214868057337
H           -2.50762955300604       -4.22026646137574        1.92627563350278
H           -4.95189450159615       -4.34847575353776        1.52542457055948
H           -6.13794624968521       -2.41581765715748        0.60811837377138
H           -6.74625680626727       -0.56125507443389        2.05700770028820
H           -9.20595054323223       -0.52786685761647        2.05084334870978

          :  Hamiltonian                  GFN2-xTB          :
         :: gradient norm              0.000085103001 Eh/a0 ::
         :: HOMO-LUMO gap              0.688541409479 eV    ::
         :: SCC energy              -114.180106604853 Eh    ::
         :: -> dispersion             -0.097094605615 Eh    ::
         :: -> Gsolv                  -0.052224688232 Eh    ::
         :: repulsion energy           2.101266475060 Eh    ::

    * Orbital Energies and Occupations

         #    Occupation            Energy/Eh            Energy/eV
      -------------------------------------------------------------
         1        2.0000           -0.7534188             -20.5016
       ...           ...                  ...                  ...
        93        2.0000           -0.4196786             -11.4200
        94        2.0000           -0.4183818             -11.3847
        95        2.0000           -0.4171962             -11.3525
        96        2.0000           -0.4155603             -11.3080
        97        2.0000           -0.4102604             -11.1638
        98        2.0000           -0.4091299             -11.1330
        99        2.0000           -0.4058489             -11.0437
       100        2.0000           -0.4053222             -11.0294
       101        2.0000           -0.3989393             -10.8557
       102        2.0000           -0.3928232             -10.6893
       103        1.9999           -0.3773789             -10.2690
       104        1.0001           -0.3591678              -9.7735
       105        1.0000           -0.3018508              -8.2138 (HOMO)
       106        0.0000           -0.2765475              -7.5252 (LUMO)
       107                         -0.2683099              -7.3011
       108                         -0.2592940              -7.0558
       109                         -0.2523704              -6.8673
       110                         -0.2385825              -6.4922
       111                         -0.2363714              -6.4320
       112                         -0.2325231              -6.3273
       113                         -0.2294016              -6.2423
       114                         -0.2183303              -5.9411
       115                         -0.2083497              -5.6695
       116                         -0.1997745              -5.4361
       ...                                ...                  ...
       204                          1.1603220              31.5740
      -------------------------------------------------------------
                  HL-Gap            0.0253032 Eh            0.6885 eV

     #   Z          covCN         q      C6AA      α(0)
     1   7 N        0.911    -0.292    27.524     7.588
     2   6 C        1.911     0.114    28.283     8.589
     3   6 C        2.972     0.008    27.838     8.655
     4   6 C        2.922    -0.021    28.542     8.761
     5   6 C        2.921    -0.029    28.730     8.790
     6   6 C        2.973     0.022    27.507     8.603
     7   6 C        2.972    -0.003    28.104     8.696
     8   6 C        2.977     0.011    27.766     8.644
     9   6 C        2.921    -0.033    28.829     8.805
    10   6 C        2.914    -0.028    28.710     8.786
    11   6 C        2.914    -0.027    28.688     8.783
    12   6 C        2.921    -0.034    28.836     8.806
    13   6 C        2.977     0.011    27.758     8.642
    14   6 C        2.971    -0.003    28.101     8.695
    15   6 C        2.972     0.019    27.569     8.613
    16   6 C        2.921    -0.031    28.769     8.796
    17   6 C        2.918    -0.030    28.745     8.792
    18   6 C        2.973    -0.011    28.293     8.725
    19   6 C        3.216     0.214    22.911     7.787
    20   7 N        1.881    -0.321    29.175     8.007
    21   6 C        3.159     0.059    26.382     8.397
    22   6 C        2.985    -0.004    28.114     8.698
    23   6 C        2.920    -0.030    28.743     8.792
    24   6 C        2.917    -0.029    28.727     8.789
    25   6 C        2.917    -0.030    28.753     8.793
    26   6 C        2.921    -0.033    28.833     8.806
    27   6 C        2.978    -0.002    28.071     8.691
    28   6 C        2.980     0.001    28.005     8.681
    29   6 C        2.921    -0.032    28.803     8.801
    30   6 C        2.917    -0.030    28.748     8.792
    31   6 C        2.916    -0.029    28.725     8.789
    32   6 C        2.919    -0.031    28.781     8.798
    33   6 C        2.982    -0.010    28.266     8.721
    34   6 C        3.105     0.105    25.561     8.284
    35   8 O        1.723    -0.237    17.921     5.716
    36   6 C        2.920    -0.030    28.746     8.792
    37   6 C        2.920    -0.030    28.740     8.791
    38   6 C        2.977     0.011    27.757     8.642
    39   6 C        2.921    -0.033    28.830     8.805
    40   6 C        2.914    -0.027    28.678     8.782
    41   6 C        2.914    -0.028    28.704     8.785
    42   6 C        2.921    -0.033    28.824     8.804
    43   6 C        2.977     0.011    27.765     8.643
    44   6 C        2.921    -0.029    28.733     8.790
    45   6 C        2.922    -0.021    28.541     8.761
    46   1 H        0.926     0.039     2.468     2.457
    47   1 H        0.926     0.046     2.370     2.407
    48   1 H        0.926     0.040     2.447     2.446
    49   1 H        0.926     0.037     2.486     2.466
    50   1 H        0.926     0.037     2.483     2.464
    51   1 H        0.926     0.042     2.424     2.435
    52   1 H        0.926     0.046     2.370     2.408
    53   1 H        0.926     0.042     2.422     2.434
    54   1 H        0.926     0.047     2.354     2.399
    55   1 H        0.926     0.040     2.454     2.450
    56   1 H        0.926     0.040     2.452     2.449
    57   1 H        0.926     0.043     2.413     2.429
    58   1 H        0.926     0.045     2.382     2.414
    59   1 H        0.926     0.041     2.436     2.441
    60   1 H        0.926     0.039     2.455     2.450
    61   1 H        0.926     0.038     2.476     2.461
    62   1 H        0.926     0.053     2.285     2.364
    63   1 H        0.926     0.049     2.332     2.388
    64   1 H        0.926     0.043     2.408     2.427
    65   1 H        0.926     0.038     2.470     2.458
    66   1 H        0.926     0.038     2.480     2.463
    67   1 H        0.926     0.040     2.443     2.444
    68   1 H        0.926     0.046     2.369     2.407
    69   1 H        0.926     0.039     2.468     2.457

molecular dipole:
                 x           y           z       tot (Debye)
 q only:        2.069       0.066       0.069
   full:        2.548       0.396       0.233       6.581

 projected vibrational frequencies (cm⁻¹)
eigval :       -0.00    -0.00    -0.00    -0.00     0.00     0.00
eigval :       11.50    13.58    17.15    31.95    38.08    53.64
eigval :       58.63    60.45    78.45    85.37    89.58    90.30
eigval :      103.30   121.37   126.30   131.40   146.30   172.52
eigval :      179.84   182.10   203.10   217.97   220.82   237.26
eigval :      252.39   270.18   278.15   291.68   305.79   360.21
eigval :      366.63   369.99   371.06   377.32   393.11   394.05
eigval :      400.51   407.59   410.28   414.89   429.35   438.01
eigval :      442.41   444.69   467.25   488.13   489.38   521.56
eigval :      528.11   531.87   533.57   537.86   570.14   581.72
eigval :      582.78   583.90   589.57   602.51   612.80   623.25
eigval :      626.35   654.98   659.98   660.48   674.02   677.38
eigval :      680.11   686.03   692.53   702.79   722.75   727.15
eigval :      735.31   751.09   764.95   767.63   769.74   781.40
eigval :      784.12   818.14   827.82   850.75   857.59   866.60
eigval :      866.91   875.76   876.72   894.19   899.18   900.38
eigval :      905.34   909.82   910.09   912.19   915.40   921.83
eigval :      926.57   927.92   928.42   934.35   935.51   937.55
eigval :      939.24   941.30   946.15   998.68  1011.08  1015.57
eigval :     1050.28  1073.63  1081.76  1098.44  1102.59  1104.64
eigval :     1117.57  1126.70  1132.36  1134.18  1139.14  1154.60
eigval :     1174.82  1178.74  1179.68  1180.84  1181.06  1183.40
eigval :     1193.52  1202.81  1207.74  1231.78  1241.92  1251.03
eigval :     1251.82  1253.58  1262.00  1265.12  1276.76  1282.13
eigval :     1288.81  1290.32  1304.90  1310.75  1311.76  1322.78
eigval :     1332.69  1340.10  1341.98  1349.86  1354.09  1380.82
eigval :     1396.75  1403.34  1403.68  1409.70  1414.98  1416.14
eigval :     1427.54  1429.52  1444.21  1459.87  1472.26  1494.58
eigval :     1498.06  1505.91  1508.55  1512.74  1525.35  1527.76
eigval :     1534.99  1545.37  1555.09  1560.75  1567.01  1572.06
eigval :     1588.98  1600.85  2329.45  3074.62  3076.77  3077.15
eigval :     3078.16  3078.49  3078.88  3079.13  3081.10  3083.84
eigval :     3085.79  3087.11  3087.51  3089.31  3090.64  3091.01
eigval :     3092.80  3097.83  3098.40  3099.55  3100.98  3102.03
eigval :     3102.28  3105.92  3111.83

   temp. (K)  partition function   enthalpy   heat capacity  entropy
                                   cal/mol     cal/K/mol   cal/K/mol   J/K/mol
 298.15  VIB  0.619E+15            19862.949    128.615    122.481
         ROT  0.839E+08              888.752      2.981     39.239
         INT  0.520E+23            20751.702    131.596    161.719
         TR   0.133E+29             1481.254      4.968     44.899
         TOT                       22232.9557   136.5644   206.6185   864.4918

       T/K    H(0)-H(T)+PV         H(T)/Eh          T*S/Eh         G(T)/Eh
   ------------------------------------------------------------------------
    298.15    0.354305E-01    0.548938E+00    0.981711E-01    0.450767E+00
   ------------------------------------------------------------------------

         :::::::::::::::::::::::::::::::::::::::::::::::::::::
         ::                  THERMODYNAMIC                  ::
         :::::::::::::::::::::::::::::::::::::::::::::::::::::
         :: total free energy        -111.628073566455 Eh   ::
         ::.................................................::
         :: total energy             -112.078840129600 Eh   ::
         :: zero point energy           0.513507205757 Eh   ::
         :: G(RRHO) w/o ZPVE           -0.062740642612 Eh   ::
         :: G(RRHO) contrib.            0.450766563145 Eh   ::
         :::::::::::::::::::::::::::::::::::::::::::::::::::::

           -------------------------------------------------
          | TOTAL ENERGY             -112.078840129600 Eh   |
          | TOTAL ENTHALPY           -111.529902453756 Eh   |
          | TOTAL FREE ENERGY        -111.628073566455 Eh   |
          | GRADIENT NORM               0.000085090634 Eh/α |
          | HOMO-LUMO GAP               0.688536441073 eV   |
           -------------------------------------------------

 * finished run on 2025/09/02 at 19:55:27.266
