   * xtb version 6.7.1 (edcfbbe) compiled by 'albert@albert-system' on 2024-07-22

   ID    Z sym.   atoms
    1    7 N      1, 20
    2    6 C      2-19, 21-34, 36-45
    3    8 O      35
    4    1 H      46-69

          program call               : xtb data2507/toluene/p-PO-ABN/p-PO-ABN.xyz --gfn 2 --gbsa toluene --ohess vtight --parallel 40 --molden --ceasefiles --namespace data2507/toluene/p-PO-ABN/p-PO-ABN_toluene_S0_preOpt
      * Solvation model:               GBSA
        Solvent                        toluene
        Solvent mass                       9.2140E+01 g/mol
          :  Hamiltonian                  GFN2-xTB          :
 * total energy  :  -112.1254816 Eh     change       -0.1458957E-08 Eh
 * total energy  :  -112.1396976 Eh     change       -0.1421601E-01 Eh
 * total energy  :  -112.1433985 Eh     change       -0.3700985E-02 Eh
 * total energy  :  -112.1439277 Eh     change       -0.5291926E-03 Eh
 * total energy  :  -112.1441129 Eh     change       -0.1851933E-03 Eh
 * total energy  :  -112.1440953 Eh     change        0.1766944E-04 Eh
 * total energy  :  -112.1441819 Eh     change       -0.8658939E-04 Eh
 * total energy  :  -112.1442057 Eh     change       -0.2386242E-04 Eh
 * total energy  :  -112.1442404 Eh     change       -0.3468825E-04 Eh
 * total energy  :  -112.1442561 Eh     change       -0.1570269E-04 Eh
 * total energy  :  -112.1446213 Eh     change       -0.1434281E-05 Eh
 * total energy  :  -112.1446227 Eh     change       -0.1327739E-05 Eh
 * total energy  :  -112.1446240 Eh     change       -0.1376555E-05 Eh
 * total energy  :  -112.1446253 Eh     change       -0.1300649E-05 Eh
 * total energy  :  -112.1446261 Eh     change       -0.7538246E-06 Eh
 * total energy  :  -112.1446263 Eh     change       -0.2527498E-06 Eh
 * total energy  :  -112.1446265 Eh     change       -0.1709820E-06 Eh
 * total energy  :  -112.1446266 Eh     change       -0.1203658E-06 Eh
 * total energy  :  -112.1446267 Eh     change       -0.7372557E-07 Eh
   *** GEOMETRY OPTIMIZATION CONVERGED AFTER 114 ITERATIONS ***

 final structure:
================
69
 xtb: 6.7.1 (edcfbbe)
N          -12.01019749298318       -0.01718465564467       -0.01679309943874
C          -10.86187965292201       -0.00935243847976       -0.01297999684168
C           -9.45054863629563       -0.00019190373945       -0.00829200389426
C           -8.76063747634368        1.18663457318318        0.24989785988439
C           -7.38071531790218        1.18819174201203        0.25431492624564
C           -6.66742509425867        0.01773886951691       -0.00043616701840
C           -5.18869836855420        0.02829015356076        0.00301603977773
C           -4.49649366631775        0.15914067809811        1.21569106257421
C           -5.17484151438835        0.25199568286858        2.46017391715384
C           -4.49024960096433        0.36544521264025        3.63108440940304
C           -3.08076460988669        0.38251959525206        3.63265879026040
C           -2.39193374020471        0.28316466258403        2.46301914724798
C           -3.06649902229834        0.17225560507901        1.21805047653468
C           -2.36663852878367        0.05076597732065        0.00925718856635
C           -0.88733345598052        0.06000263946271        0.01252550312732
C           -0.17494613534845       -1.11814503640519       -0.20044120033487
C            1.20500010660262       -1.11552822811062       -0.19572258003102
C            1.90138355666459        0.07506574107827        0.01684020732321
C            3.34561552692097        0.09816677278637        0.01940811216073
N            4.09382764797213        1.15522896245769        0.16432999595532
C            5.37977651044590        0.69614555894521        0.09776570828032
C            6.61490878510539        1.39859428532939        0.18749060824860
C            6.65776524840772        2.78465134005895        0.36979158038162
C            7.86360684859790        3.43708594008394        0.44864757378578
C            9.04545336515207        2.70543548644743        0.34701067040588
C            9.01576278664704        1.34165880383591        0.16856503564023
C            7.80488620976950        0.63638213021204        0.08258185664703
C            7.75244363082894       -0.80431238642186       -0.10567756081496
C            8.90475882206907       -1.59847909393212       -0.20568166315595
C            8.83180499855756       -2.96095391795878       -0.38385936754389
C            7.59840911630770       -3.60442691810561       -0.47159476970874
C            6.44472264577584       -2.86659413077566       -0.37913245574051
C            6.50668595202584       -1.47882114211219       -0.19645624778060
C            5.34616803582449       -0.67536933824971       -0.09032325475719
O            4.04644896574829       -1.05655402784317       -0.14141138919826
C            1.19102452730349        1.25858602268100        0.22793821418766
C           -0.18787858073017        1.24651713064129        0.22834598425935
C           -3.05923831539367       -0.08050357156590       -1.20269975501893
C           -2.37760790504939       -0.17766818166907       -2.44495317994048
C           -3.05945350225045       -0.28708896286676       -3.61776102185671
C           -4.46900850797193       -0.29493579516095       -3.62227005313501
C           -5.16046472799602       -0.19445511263151       -2.45419159226275
C           -4.48924088887127       -0.09098690750792       -1.20667495106717
C           -7.36406727931732       -1.16184910664661       -0.25889668063459
C           -8.74393934796801       -1.17805655007749       -0.26227135516055
H           -9.31343186030899        2.09418863649440        0.44438467980983
H           -6.84288825220163        2.10378726808493        0.45167783408559
H           -6.25436815272921        0.22422291960983        2.46497688466352
H           -5.02167789080535        0.43581404426998        4.56901683228974
H           -2.55327705564868        0.46708717055556        4.57158105654146
H           -1.31211303583147        0.28147132944740        2.46561145322435
H           -0.71318124465241       -2.04022505006632       -0.36551636945653
H            1.75404128952909       -2.03115300628925       -0.35773675708444
H            5.72064978713056        3.31522758333533        0.44310603505667
H            7.89910463939153        4.50732182956567        0.58803557969455
H            9.99630715171702        3.21465036424442        0.40778634572975
H            9.95399809956570        0.81600690842220        0.09434250042946
H            9.87985003085766       -1.14358890441410       -0.14253502988436
H            9.74131114136506       -3.53916151598979       -0.45530972929044
H            7.55394755626167       -4.67423003991053       -0.61103277291511
H            5.47362791056281       -3.33567886812237       -0.44237402817964
H            1.74303184018057        2.17093895035207        0.38961373125951
H           -0.73734404086422        2.16207132494380        0.39142515864448
H           -1.29799296061113       -0.15556299166418       -2.44292854606071
H           -2.52652357160672       -0.36009893880902       -4.55460752353232
H           -4.99503625786260       -0.37342031374970       -4.56261034042504
H           -6.24026660093242       -0.18478327217436       -2.46372024300148
H           -6.81349867829502       -2.07048683858459       -0.45333371143205
H           -9.28402176195196       -2.09260774980969       -0.45973556288535

          :  Hamiltonian                  GFN2-xTB          :
         :: gradient norm              0.000076380087 Eh/a0 ::
         :: HOMO-LUMO gap              2.085796375804 eV    ::
         :: SCC energy              -114.265788932257 Eh    ::
         :: -> dispersion             -0.096852110466 Eh    ::
         :: -> Gsolv                  -0.051613863205 Eh    ::
         :: repulsion energy           2.121162217532 Eh    ::

    * Orbital Energies and Occupations

         #    Occupation            Energy/Eh            Energy/eV
      -------------------------------------------------------------
         1        2.0000           -0.7558236             -20.5670
       ...           ...                  ...                  ...
        92        2.0000           -0.4246230             -11.5546
        93        2.0000           -0.4197425             -11.4218
        94        2.0000           -0.4184668             -11.3871
        95        2.0000           -0.4179838             -11.3739
        96        2.0000           -0.4122434             -11.2177
        97        2.0000           -0.4102178             -11.1626
        98        2.0000           -0.4097668             -11.1503
        99        2.0000           -0.4067268             -11.0676
       100        2.0000           -0.4041570             -10.9977
       101        2.0000           -0.4005773             -10.9003
       102        2.0000           -0.3928366             -10.6896
       103        2.0000           -0.3774636             -10.2713
       104        2.0000           -0.3644460              -9.9171 (HOMO)
       105                         -0.2877944              -7.8313 (LUMO)
       106                         -0.2774128              -7.5488
       107                         -0.2730177              -7.4292
       108                         -0.2594759              -7.0607
       109                         -0.2524629              -6.8699
       110                         -0.2430222              -6.6130
       111                         -0.2364107              -6.4331
       112                         -0.2342025              -6.3730
       113                         -0.2248424              -6.1183
       114                         -0.2174730              -5.9177
       115                         -0.2134747              -5.8089
       ...                                ...                  ...
       204                          1.1582573              31.5178
      -------------------------------------------------------------
                  HL-Gap            0.0766516 Eh            2.0858 eV

     #   Z          covCN         q      C6AA      α(0)
     1   7 N        0.911    -0.276    27.128     7.533
     2   6 C        1.912     0.118    28.191     8.575
     3   6 C        2.973     0.014    27.702     8.633
     4   6 C        2.924    -0.019    28.473     8.751
     5   6 C        2.922    -0.027    28.671     8.781
     6   6 C        2.976     0.029    27.339     8.577
     7   6 C        2.977    -0.007    28.179     8.708
     8   6 C        2.983     0.008    27.827     8.653
     9   6 C        2.917    -0.035    28.872     8.811
    10   6 C        2.914    -0.029    28.720     8.788
    11   6 C        2.914    -0.029    28.725     8.789
    12   6 C        2.917    -0.034    28.846     8.807
    13   6 C        2.983     0.008    27.832     8.654
    14   6 C        2.977    -0.003    28.102     8.696
    15   6 C        2.977     0.023    27.476     8.598
    16   6 C        2.922    -0.030    28.745     8.792
    17   6 C        2.921    -0.028    28.707     8.786
    18   6 C        2.974    -0.009    28.240     8.717
    19   6 C        3.224     0.217    22.800     7.760
    20   7 N        1.882    -0.317    29.073     7.993
    21   6 C        3.162     0.056    26.421     8.402
    22   6 C        2.985    -0.003    28.098     8.695
    23   6 C        2.920    -0.030    28.755     8.794
    24   6 C        2.917    -0.029    28.723     8.788
    25   6 C        2.917    -0.030    28.759     8.794
    26   6 C        2.921    -0.034    28.835     8.806
    27   6 C        2.978    -0.002    28.072     8.691
    28   6 C        2.980     0.001    27.999     8.680
    29   6 C        2.921    -0.032    28.805     8.801
    30   6 C        2.917    -0.030    28.748     8.792
    31   6 C        2.917    -0.029    28.722     8.788
    32   6 C        2.919    -0.032    28.787     8.798
    33   6 C        2.982    -0.010    28.250     8.719
    34   6 C        3.110     0.103    25.581     8.286
    35   8 O        1.724    -0.232    17.839     5.703
    36   6 C        2.923    -0.028    28.708     8.787
    37   6 C        2.922    -0.028    28.706     8.786
    38   6 C        2.983     0.008    27.834     8.654
    39   6 C        2.917    -0.034    28.846     8.807
    40   6 C        2.914    -0.029    28.728     8.789
    41   6 C        2.914    -0.029    28.722     8.788
    42   6 C        2.917    -0.035    28.872     8.811
    43   6 C        2.983     0.008    27.828     8.653
    44   6 C        2.922    -0.027    28.672     8.781
    45   6 C        2.924    -0.019    28.475     8.751
    46   1 H        0.926     0.044     2.401     2.423
    47   1 H        0.926     0.048     2.347     2.396
    48   1 H        0.926     0.032     2.552     2.498
    49   1 H        0.926     0.033     2.539     2.492
    50   1 H        0.926     0.033     2.541     2.493
    51   1 H        0.926     0.034     2.535     2.490
    52   1 H        0.926     0.044     2.397     2.421
    53   1 H        0.926     0.044     2.395     2.420
    54   1 H        0.926     0.047     2.357     2.401
    55   1 H        0.926     0.040     2.455     2.450
    56   1 H        0.926     0.040     2.454     2.450
    57   1 H        0.926     0.043     2.413     2.429
    58   1 H        0.926     0.045     2.380     2.412
    59   1 H        0.926     0.041     2.434     2.440
    60   1 H        0.926     0.040     2.454     2.449
    61   1 H        0.926     0.038     2.475     2.460
    62   1 H        0.926     0.055     2.262     2.352
    63   1 H        0.926     0.047     2.358     2.401
    64   1 H        0.926     0.033     2.542     2.493
    65   1 H        0.926     0.033     2.545     2.495
    66   1 H        0.926     0.033     2.540     2.492
    67   1 H        0.926     0.032     2.552     2.498
    68   1 H        0.926     0.047     2.351     2.398
    69   1 H        0.926     0.043     2.403     2.424

molecular dipole:
                 x           y           z       tot (Debye)
 q only:        1.675      -0.128      -0.006
   full:        2.148      -0.493      -0.058       5.604

 projected vibrational frequencies (cm⁻¹)
eigval :       -0.00    -0.00     0.00     0.00     0.00     0.00
eigval :       11.74    13.54    14.48    34.22    36.35    38.48
eigval :       51.32    53.71    65.43    78.48    83.65    91.21
eigval :      101.89   105.21   115.59   121.50   130.94   168.95
eigval :      182.29   184.43   199.05   206.70   208.00   225.76
eigval :      247.35   262.09   281.01   289.83   304.75   360.55
eigval :      365.01   374.09   374.85   384.59   396.39   400.62
eigval :      407.16   409.16   414.02   428.14   440.64   443.03
eigval :      446.57   454.46   456.10   488.93   493.72   525.68
eigval :      525.85   533.81   536.24   542.77   577.64   582.86
eigval :      585.02   589.62   592.60   605.02   620.59   630.25
eigval :      637.78   656.02   661.88   664.44   678.62   685.25
eigval :      689.40   692.91   695.11   713.32   731.23   738.79
eigval :      739.27   766.98   770.34   773.85   775.59   783.59
eigval :      786.69   813.98   820.78   865.11   869.38   872.06
eigval :      874.92   876.20   876.97   898.07   908.87   910.48
eigval :      914.95   915.65   917.69   918.57   920.28   924.42
eigval :      925.04   926.92   927.40   928.24   928.75   929.80
eigval :      932.06   939.32   953.33  1008.80  1017.29  1019.94
eigval :     1051.29  1079.87  1083.09  1083.45  1084.64  1098.57
eigval :     1127.75  1130.64  1134.17  1141.32  1143.76  1157.30
eigval :     1181.67  1182.34  1182.40  1183.61  1184.51  1186.61
eigval :     1205.70  1206.84  1215.15  1233.76  1242.47  1251.12
eigval :     1254.12  1258.87  1261.98  1262.37  1265.20  1276.38
eigval :     1286.17  1306.11  1309.57  1316.89  1326.72  1341.33
eigval :     1342.39  1349.01  1370.82  1383.79  1390.58  1398.32
eigval :     1402.17  1405.50  1416.13  1427.47  1428.52  1431.91
eigval :     1441.13  1463.54  1480.69  1490.85  1514.73  1515.66
eigval :     1524.93  1527.25  1539.81  1544.85  1545.79  1555.47
eigval :     1564.86  1574.93  1584.49  1589.90  1592.96  1603.75
eigval :     1606.36  1620.78  2360.80  3072.45  3072.95  3075.66
eigval :     3076.76  3078.44  3078.96  3079.59  3080.29  3081.54
eigval :     3081.61  3084.07  3084.44  3087.68  3087.91  3091.26
eigval :     3092.15  3092.45  3092.56  3092.84  3094.43  3097.99
eigval :     3102.22  3107.85  3111.81

   temp. (K)  partition function   enthalpy   heat capacity  entropy
                                   cal/mol     cal/K/mol   cal/K/mol   J/K/mol
 298.15  VIB  0.217E+16            19930.151    127.145    123.839
         ROT  0.835E+08              888.752      2.981     39.229
         INT  0.181E+24            20818.904    130.126    163.068
         TR   0.133E+29             1481.254      4.968     44.899
         TOT                       22300.1575   135.0939   207.9673   870.1352

       T/K    H(0)-H(T)+PV         H(T)/Eh          T*S/Eh         G(T)/Eh
   ------------------------------------------------------------------------
    298.15    0.355376E-01    0.551306E+00    0.988120E-01    0.452494E+00
   ------------------------------------------------------------------------

         :::::::::::::::::::::::::::::::::::::::::::::::::::::
         ::                  THERMODYNAMIC                  ::
         :::::::::::::::::::::::::::::::::::::::::::::::::::::
         :: total free energy        -111.692132909940 Eh   ::
         ::.................................................::
         :: total energy             -112.144626709107 Eh   ::
         :: zero point energy           0.515768215003 Eh   ::
         :: G(RRHO) w/o ZPVE           -0.063274415837 Eh   ::
         :: G(RRHO) contrib.            0.452493799166 Eh   ::
         :::::::::::::::::::::::::::::::::::::::::::::::::::::

           -------------------------------------------------
          | TOTAL ENERGY             -112.144626709107 Eh   |
          | TOTAL ENTHALPY           -111.593320931130 Eh   |
          | TOTAL FREE ENERGY        -111.692132909940 Eh   |
          | GRADIENT NORM               0.000076388086 Eh/α |
          | HOMO-LUMO GAP               2.085796310123 eV   |
           -------------------------------------------------

 * finished run on 2025/09/02 at 19:42:26.001
