   * xtb version 6.7.1 (edcfbbe) compiled by 'albert@albert-system' on 2024-07-22

   ID    Z sym.   atoms
    1    7 N      1, 20
    2    6 C      2-19, 21-34, 36-45
    3    8 O      35
    4    1 H      46-69

          program call               : xtb data2507/toluene/p-PO-ABN/p-PO-ABN_toluene_S0_finalOpt.xtbopt.xyz --gfn 2 --uhf 2 --gbsa toluene --ohess vtight --parallel 40 --molden --ceasefiles --namespace data2507/toluene/p-PO-ABN/p-PO-ABN_toluene_T1_preOpt
      * Solvation model:               GBSA
        Solvent                        toluene
        Solvent mass                       9.2140E+01 g/mol
          :  Hamiltonian                  GFN2-xTB          :
 * total energy  :  -112.0683143 Eh     change       -0.4643340E-08 Eh
 * total energy  :  -112.0738404 Eh     change       -0.5526087E-02 Eh
 * total energy  :  -112.0753430 Eh     change       -0.1502665E-02 Eh
 * total energy  :  -112.0755812 Eh     change       -0.2381283E-03 Eh
 * total energy  :  -112.0759867 Eh     change       -0.4054866E-03 Eh
 * total energy  :  -112.0762952 Eh     change       -0.3085541E-03 Eh
 * total energy  :  -112.0766279 Eh     change       -0.3326911E-03 Eh
 * total energy  :  -112.0769619 Eh     change       -0.3340287E-03 Eh
 * total energy  :  -112.0772160 Eh     change       -0.2540408E-03 Eh
 * total energy  :  -112.0773930 Eh     change       -0.1770236E-03 Eh
 * total energy  :  -112.0788345 Eh     change       -0.5973224E-06 Eh
 * total energy  :  -112.0788351 Eh     change       -0.5896140E-06 Eh
 * total energy  :  -112.0788357 Eh     change       -0.5818408E-06 Eh
 * total energy  :  -112.0788363 Eh     change       -0.5736591E-06 Eh
 * total energy  :  -112.0788368 Eh     change       -0.5636035E-06 Eh
 * total energy  :  -112.0788374 Eh     change       -0.5537611E-06 Eh
 * total energy  :  -112.0788379 Eh     change       -0.5422877E-06 Eh
 * total energy  :  -112.0788385 Eh     change       -0.5306174E-06 Eh
 * total energy  :  -112.0788385 Eh     change       -0.4426866E-08 Eh
   *** GEOMETRY OPTIMIZATION CONVERGED AFTER 221 ITERATIONS ***

 final structure:
================
69
 xtb: 6.7.1 (edcfbbe)
N          -11.90740510281836        0.10755078806509        0.05163181207543
C          -10.75710528114393        0.08722375168989        0.04303278394941
C           -9.35133678421868        0.06288258550356        0.03285753090213
C           -8.64962752114374        0.27973408700527       -1.16022075191298
C           -7.27466984760269        0.26594666638293       -1.16236872985574
C           -6.54827696807954        0.01811932413838        0.01362705322350
C           -5.09454336819331       -0.00273957227854        0.00387337284391
C           -4.36785263129775        1.10213691877904       -0.53846906142177
C           -5.01391204269167        2.26204020924885       -0.98418095659582
C           -4.31692490413102        3.28813225986963       -1.60996808398881
C           -2.95585605215043        3.16708499796951       -1.81346926470465
C           -2.27892620319554        2.05977433212602       -1.31585543600668
C           -2.94376492640067        1.04910196252697       -0.61220427326496
C           -2.23650562382084       -0.04177736950916       -0.01363109740024
C           -0.78769807021473       -0.05823789099480       -0.01893890231035
C           -0.04890126461547        1.05000431818871        0.43197917191931
C            1.32417484158743        1.03256682611757        0.44375347595704
C            2.02389792284007       -0.08640671856036       -0.02852041037685
C            3.45747171831296       -0.11294413553796       -0.04210125400598
N            4.20609203377295       -1.08780134957444       -0.49075003964854
C            5.48994135593174       -0.66874854869393       -0.30516899499059
C            6.72274535766250       -1.31184697925947       -0.61262798296897
C            6.75903179766000       -2.57889927709854       -1.20374533550186
C            7.96170289059305       -3.17544169225728       -1.49408655872366
C            9.14684862179820       -2.50703464409012       -1.19342413427655
C            9.12379732003149       -1.26033401526378       -0.61163788478302
C            7.91664883077725       -0.61557962579343       -0.29928724911880
C            7.87170353630935        0.70140371449989        0.31461871345712
C            9.02713655850951        1.42373574483169        0.64695848760296
C            8.96066084866852        2.66930105360997        1.22875196644149
C            7.73002432541125        3.26089204474250        1.51069220092461
C            6.57324371209465        2.59072289419240        1.20176348913216
C            6.62808160378122        1.32147252679413        0.60865851209197
C            5.46466385534009        0.59184269668938        0.27399787862770
O            4.16802977533165        0.94795804374309        0.44076155725278
C            1.29830677728112       -1.19180600643683       -0.49578720107811
C           -0.07387150884143       -1.18187232654663       -0.47483121272464
C           -2.96559137590625       -1.11460438740124        0.59133177748692
C           -2.31997147627728       -2.14502138363928        1.28412948809874
C           -3.02129447038979       -3.23344634974973        1.78962938520595
C           -4.38797146084810       -3.31545076335812        1.60508367555245
C           -5.06412814568288       -2.26920581451212        0.98992204903667
C           -4.39152500815935       -1.12767331379906        0.53611053601968
C           -7.26595452201620       -0.20783018568986        1.19932601094117
C           -8.64055916565311       -0.17728563128827        1.21606954468436
H           -9.19866940623341        0.45212730941298       -2.07478684527196
H           -6.74024201280095        0.40811886909320       -2.09004437144206
H           -6.07734935935083        2.36846063191776       -0.83604340734415
H           -4.84705499703027        4.16591238538889       -1.94804680483278
H           -2.40963652766640        3.93398704061351       -2.34202767035418
H           -1.21667975830975        1.97702655190735       -1.48507577889750
H           -0.57668196609026        1.90732674447866        0.82349284643749
H            1.87758922747509        1.87955501550115        0.82148632790173
H            5.81938095055733       -3.06323817980509       -1.42183292890319
H            7.99220740500062       -4.15311817640522       -1.95149315468761
H           10.09521751850186       -2.97209976875198       -1.42016157257500
H           10.06464821067942       -0.77966503033430       -0.39739384886719
H           10.00023626289142        1.00500043363690        0.44820669412729
H            9.87285774671421        3.19460582127748        1.47081356300754
H            7.69018365645532        4.23804883544989        1.96838238167605
H            5.60428279418425        3.02142973067264        1.40798634230260
H            1.84522892791776       -2.04117808514883       -0.87385507551041
H           -0.62207090735973       -2.02751685693720       -0.86303135262502
H           -1.25345903298130       -2.09361148365008        1.43781242951428
H           -2.48961066760072       -4.01668440248187        2.30889654439272
H           -4.93818630856890       -4.17818565520970        1.94965400075240
H           -6.13211962612451       -2.34500241750606        0.85644080607443
H           -6.72375233335891       -0.36746591011896        2.11961839432338
H           -9.18242157787338       -0.33216645117715        2.13804162176711

          :  Hamiltonian                  GFN2-xTB          :
         :: gradient norm              0.000054684159 Eh/a0 ::
         :: HOMO-LUMO gap              0.685840446009 eV    ::
         :: SCC energy              -114.180243665763 Eh    ::
         :: -> dispersion             -0.097084624953 Eh    ::
         :: -> Gsolv                  -0.052249919227 Eh    ::
         :: repulsion energy           2.101405199061 Eh    ::

    * Orbital Energies and Occupations

         #    Occupation            Energy/Eh            Energy/eV
      -------------------------------------------------------------
         1        2.0000           -0.7535153             -20.5042
       ...           ...                  ...                  ...
        93        2.0000           -0.4196790             -11.4200
        94        2.0000           -0.4183484             -11.3838
        95        2.0000           -0.4172226             -11.3532
        96        2.0000           -0.4155727             -11.3083
        97        2.0000           -0.4102491             -11.1634
        98        2.0000           -0.4091962             -11.1348
        99        2.0000           -0.4058889             -11.0448
       100        2.0000           -0.4054033             -11.0316
       101        2.0000           -0.3990054             -10.8575
       102        2.0000           -0.3928318             -10.6895
       103        1.9999           -0.3773690             -10.2687
       104        1.0001           -0.3592456              -9.7756
       105        1.0000           -0.3018175              -8.2129 (HOMO)
       106        0.0000           -0.2766133              -7.5270 (LUMO)
       107                         -0.2682143              -7.2985
       108                         -0.2593067              -7.0561
       109                         -0.2523889              -6.8679
       110                         -0.2384639              -6.4889
       111                         -0.2363606              -6.4317
       112                         -0.2325818              -6.3289
       113                         -0.2295053              -6.2452
       114                         -0.2183027              -5.9403
       115                         -0.2082651              -5.6672
       116                         -0.1997218              -5.4347
       ...                                ...                  ...
       204                          1.1603697              31.5753
      -------------------------------------------------------------
                  HL-Gap            0.0252042 Eh            0.6858 eV

     #   Z          covCN         q      C6AA      α(0)
     1   7 N        0.911    -0.292    27.530     7.589
     2   6 C        1.911     0.114    28.285     8.589
     3   6 C        2.972     0.008    27.840     8.655
     4   6 C        2.922    -0.022    28.543     8.761
     5   6 C        2.921    -0.029    28.733     8.790
     6   6 C        2.972     0.022    27.510     8.603
     7   6 C        2.972    -0.003    28.102     8.695
     8   6 C        2.977     0.011    27.766     8.644
     9   6 C        2.921    -0.033    28.830     8.805
    10   6 C        2.914    -0.028    28.711     8.786
    11   6 C        2.914    -0.027    28.686     8.783
    12   6 C        2.921    -0.033    28.834     8.806
    13   6 C        2.977     0.011    27.757     8.642
    14   6 C        2.972    -0.003    28.101     8.695
    15   6 C        2.973     0.020    27.566     8.612
    16   6 C        2.921    -0.031    28.767     8.795
    17   6 C        2.919    -0.030    28.744     8.792
    18   6 C        2.973    -0.011    28.292     8.725
    19   6 C        3.216     0.214    22.906     7.786
    20   7 N        1.881    -0.321    29.173     8.007
    21   6 C        3.159     0.059    26.383     8.397
    22   6 C        2.985    -0.004    28.114     8.698
    23   6 C        2.920    -0.030    28.743     8.792
    24   6 C        2.917    -0.029    28.727     8.789
    25   6 C        2.917    -0.030    28.753     8.793
    26   6 C        2.921    -0.033    28.833     8.806
    27   6 C        2.978    -0.002    28.071     8.691
    28   6 C        2.980     0.001    28.005     8.681
    29   6 C        2.921    -0.032    28.803     8.801
    30   6 C        2.917    -0.030    28.748     8.792
    31   6 C        2.916    -0.029    28.725     8.789
    32   6 C        2.919    -0.031    28.782     8.798
    33   6 C        2.982    -0.010    28.265     8.721
    34   6 C        3.105     0.105    25.561     8.284
    35   8 O        1.723    -0.237    17.918     5.715
    36   6 C        2.920    -0.030    28.744     8.792
    37   6 C        2.920    -0.030    28.738     8.791
    38   6 C        2.977     0.011    27.756     8.642
    39   6 C        2.921    -0.033    28.831     8.805
    40   6 C        2.914    -0.027    28.677     8.781
    41   6 C        2.914    -0.028    28.705     8.786
    42   6 C        2.921    -0.033    28.824     8.804
    43   6 C        2.977     0.011    27.766     8.643
    44   6 C        2.921    -0.029    28.734     8.790
    45   6 C        2.922    -0.022    28.543     8.761
    46   1 H        0.926     0.038     2.469     2.457
    47   1 H        0.926     0.046     2.368     2.406
    48   1 H        0.926     0.040     2.443     2.444
    49   1 H        0.926     0.037     2.486     2.466
    50   1 H        0.926     0.037     2.483     2.464
    51   1 H        0.926     0.042     2.426     2.436
    52   1 H        0.926     0.046     2.372     2.408
    53   1 H        0.926     0.042     2.421     2.433
    54   1 H        0.926     0.047     2.354     2.400
    55   1 H        0.926     0.040     2.454     2.450
    56   1 H        0.926     0.040     2.452     2.449
    57   1 H        0.926     0.043     2.413     2.429
    58   1 H        0.926     0.045     2.382     2.414
    59   1 H        0.926     0.041     2.436     2.441
    60   1 H        0.926     0.039     2.455     2.450
    61   1 H        0.926     0.038     2.476     2.461
    62   1 H        0.926     0.053     2.284     2.363
    63   1 H        0.926     0.049     2.333     2.389
    64   1 H        0.926     0.043     2.411     2.428
    65   1 H        0.926     0.038     2.471     2.458
    66   1 H        0.926     0.038     2.480     2.463
    67   1 H        0.926     0.041     2.441     2.443
    68   1 H        0.926     0.046     2.369     2.407
    69   1 H        0.926     0.038     2.469     2.457

molecular dipole:
                 x           y           z       tot (Debye)
 q only:        2.084       0.065       0.048
   full:        2.562       0.399       0.198       6.611

 projected vibrational frequencies (cm⁻¹)
eigval :       -0.00     0.00     0.00     0.00     0.00     0.00
eigval :       11.10    12.69    15.13    30.88    37.38    52.56
eigval :       58.34    59.08    76.74    84.47    87.06    88.22
eigval :      103.12   120.80   126.24   130.55   145.62   172.27
eigval :      180.03   181.82   203.48   218.04   221.14   236.59
eigval :      253.25   268.98   278.31   291.34   305.36   361.05
eigval :      365.42   369.74   371.54   374.64   392.78   393.30
eigval :      400.00   407.29   410.17   414.66   428.48   437.72
eigval :      441.08   444.55   466.51   487.62   488.21   520.70
eigval :      528.19   531.45   533.71   537.29   571.07   581.67
eigval :      582.60   583.78   588.97   602.54   612.67   623.22
eigval :      626.65   654.86   659.75   660.19   673.61   676.27
eigval :      680.08   685.59   692.53   702.29   722.93   727.13
eigval :      735.52   746.84   760.90   766.48   769.68   781.19
eigval :      783.09   815.01   820.51   848.70   856.66   861.43
eigval :      865.74   871.21   875.86   894.03   896.06   897.62
eigval :      904.50   905.53   907.68   909.54   914.88   921.79
eigval :      924.94   925.31   926.86   928.27   934.32   935.44
eigval :      936.16   939.31   946.00   998.59  1011.16  1015.51
eigval :     1050.32  1073.41  1081.60  1098.37  1102.64  1104.76
eigval :     1116.77  1126.12  1129.83  1135.04  1139.23  1154.55
eigval :     1173.98  1178.30  1179.34  1179.53  1181.32  1182.99
eigval :     1192.74  1202.39  1207.68  1232.01  1241.85  1251.08
eigval :     1251.84  1253.47  1260.92  1264.72  1276.63  1281.66
eigval :     1288.86  1290.92  1304.82  1310.66  1311.64  1322.82
eigval :     1332.73  1340.16  1341.98  1350.12  1354.13  1380.01
eigval :     1396.78  1403.69  1403.71  1408.80  1414.78  1415.36
eigval :     1427.56  1429.54  1444.01  1459.97  1472.30  1495.02
eigval :     1497.89  1505.33  1509.38  1512.93  1525.11  1527.61
eigval :     1535.19  1545.34  1555.23  1560.72  1567.03  1571.95
eigval :     1589.10  1600.99  2329.20  3074.52  3076.57  3076.78
eigval :     3078.20  3078.81  3079.25  3079.65  3081.06  3084.28
eigval :     3084.84  3087.32  3087.84  3089.25  3090.80  3091.02
eigval :     3091.93  3097.42  3097.85  3099.21  3101.01  3101.91
eigval :     3102.09  3105.73  3111.66

   temp. (K)  partition function   enthalpy   heat capacity  entropy
                                   cal/mol     cal/K/mol   cal/K/mol   J/K/mol
 298.15  VIB  0.932E+15            19904.310    128.655    122.994
         ROT  0.839E+08              888.752      2.981     39.239
         INT  0.782E+23            20793.062    131.636    162.232
         TR   0.133E+29             1481.254      4.968     44.899
         TOT                       22274.3164   136.6041   207.1315   866.6381

       T/K    H(0)-H(T)+PV         H(T)/Eh          T*S/Eh         G(T)/Eh
   ------------------------------------------------------------------------
    298.15    0.354964E-01    0.548733E+00    0.984148E-01    0.450318E+00
   ------------------------------------------------------------------------

         :::::::::::::::::::::::::::::::::::::::::::::::::::::
         ::                  THERMODYNAMIC                  ::
         :::::::::::::::::::::::::::::::::::::::::::::::::::::
         :: total free energy        -111.628520349835 Eh   ::
         ::.................................................::
         :: total energy             -112.078838467921 Eh   ::
         :: zero point energy           0.513236580260 Eh   ::
         :: G(RRHO) w/o ZPVE           -0.062918462174 Eh   ::
         :: G(RRHO) contrib.            0.450318118085 Eh   ::
         :::::::::::::::::::::::::::::::::::::::::::::::::::::

           -------------------------------------------------
          | TOTAL ENERGY             -112.078838467921 Eh   |
          | TOTAL ENTHALPY           -111.530105505052 Eh   |
          | TOTAL FREE ENERGY        -111.628520349835 Eh   |
          | GRADIENT NORM               0.000054683949 Eh/α |
          | HOMO-LUMO GAP               0.685840231790 eV   |
           -------------------------------------------------

 * finished run on 2025/09/02 at 19:49:14.684
