   * xtb version 6.7.1 (edcfbbe) compiled by 'albert@albert-system' on 2024-07-22

   ID    Z sym.   atoms
    1    6 C      1-4, 6-24, 26-38, 40-49
    2    7 N      5, 25, 39
    3    1 H      50-80

          program call               : xtb data2507/gas/NIDPA-1/NIDPA-1_gas_T1_crest.xyz --gfn 2 --spinpol --tblite --uhf 2 --ohess vtight --parallel 40 --molden --ceasefiles --namespace data2507/gas/NIDPA-1/NIDPA-1_gas_T1_finalOpt
 * total energy  :  -123.0650123 Eh     change        0.6713893E-07 Eh
 * total energy  :  -123.0650540 Eh     change       -0.4174559E-04 Eh
 * total energy  :  -123.0650674 Eh     change       -0.1341623E-04 Eh
 * total energy  :  -123.0650689 Eh     change       -0.1455654E-05 Eh
 * total energy  :  -123.0650698 Eh     change       -0.9532317E-06 Eh
 * total energy  :  -123.0650703 Eh     change       -0.4143722E-06 Eh
 * total energy  :  -123.0650710 Eh     change       -0.7304098E-06 Eh
 * total energy  :  -123.0650717 Eh     change       -0.7218052E-06 Eh
 * total energy  :  -123.0650723 Eh     change       -0.6404210E-06 Eh
 * total energy  :  -123.0650728 Eh     change       -0.4494558E-06 Eh
 * total energy  :  -123.0650741 Eh     change       -0.3482799E-06 Eh
 * total energy  :  -123.0650745 Eh     change       -0.3595584E-06 Eh
 * total energy  :  -123.0650748 Eh     change       -0.2768559E-06 Eh
 * total energy  :  -123.0650749 Eh     change       -0.1607464E-06 Eh
 * total energy  :  -123.0650751 Eh     change       -0.1439862E-06 Eh
 * total energy  :  -123.0650753 Eh     change       -0.1727510E-06 Eh
 * total energy  :  -123.0650754 Eh     change       -0.1728520E-06 Eh
 * total energy  :  -123.0650756 Eh     change       -0.1883935E-06 Eh
 * total energy  :  -123.0650756 Eh     change       -0.1511967E-07 Eh
   *** GEOMETRY OPTIMIZATION CONVERGED AFTER 22 ITERATIONS ***

 final structure:
================
80
 xtb: 6.7.1 (edcfbbe)
C            8.42900261908712        2.67645396557496        1.58548163666055
C            8.74388635896569        1.93382782974407        0.45906004274036
C            7.83672202704449        1.03005583006794       -0.05874050779091
C            6.59489389292112        0.85514299364359        0.55275130176949
N            5.67399591039334       -0.06346429067066        0.03715562510119
C            6.12669652128946       -1.28006041200647       -0.47909443906842
C            7.19890678684582       -1.94632727693355        0.11654096464976
C            7.64110990662941       -3.14875835627234       -0.39818448469751
C            7.02239793690233       -3.70876008030519       -1.50497916700989
C            5.95600936373115       -3.05256061190491       -2.09840597950253
C            5.51023516200861       -1.84557120586320       -1.59699348127926
C            4.31566899142319        0.24214579124469        0.01996900899189
C            3.87736540073785        1.54564975174606       -0.16851387644445
C            2.51392047567302        1.81359982325282       -0.18084085800753
C            1.55883805343231        0.81492830656969        0.00043782406358
C            1.99310889261170       -0.55060465574716        0.20954764095562
C            3.37349330542451       -0.78766521764400        0.21180425440445
C            1.11344964710559       -1.64855478148084        0.41617504847053
C           -0.28016758799939       -1.41743592386455        0.39519985441915
C           -1.54047256827876       -2.07477260056617        0.56080989329839
C           -1.89232444318265       -3.39189879155070        0.84090425564462
C           -3.22804825185107       -3.72520359031099        0.92231589716479
C           -4.22463398578437       -2.78719831809595        0.66644290426011
C           -3.91897213151823       -1.46252917522368        0.36073330391427
N           -4.95124117334275       -0.58066741860919       -0.02276104629256
C           -4.86767916839459        0.08101017789061       -1.24576657527283
C           -3.98662100941318       -0.35767722132026       -2.23599137753056
C           -3.86433611421175        0.33868085786518       -3.42192802430962
C           -4.62211348950217        1.47360276778475       -3.65538634644718
C           -5.51179157865729        1.90564320307690       -2.68552228883385
C           -5.63496183993257        1.22391251588290       -1.49257795691574
C           -6.12529026625463       -0.59343996134278        0.73745368254393
C           -7.38675350161019       -0.60839228765339        0.14264416075404
C           -8.52290329854916       -0.62548473816800        0.92815207145826
C           -8.42270404011077       -0.63819708643686        2.30993856363836
C           -7.17143370041147       -0.63951436148693        2.90519143291918
C           -6.02959524088994       -0.61644983020551        2.12945852862264
C           -2.57901082122628       -1.07913367960566        0.38932194619070
N           -1.96033310507241        0.13990162401697        0.19810269879957
C           -2.11641473218979        1.52752455800412        0.12229472837204
C           -3.23400619991479        2.30861486667751        0.27859843499409
C           -3.09776004732417        3.69207145961653        0.16309127324562
C           -1.86048619087617        4.26902032603996       -0.07455408414654
C           -0.71405315459227        3.49684671394422       -0.16327449108967
C           -0.81179968583347        2.11241155609383       -0.04722300731742
C            0.15583699332544        1.05510561957329        0.00217497173511
C           -0.62323407822541       -0.09645932424830        0.17397635278185
C            6.28309663009095        1.60359185711563        1.68821260124301
C            7.19585806667941        2.50695317938833        2.19532414041497
H            9.13982655494927        3.38315684164568        1.98569324141644
H            9.70018653138243        2.06457508066011       -0.02531730539357
H            8.07805957097988        0.46028330232849       -0.94414969837020
H            7.67190689185208       -1.51891793462998        0.98855269952670
H            8.46887583427026       -3.65713927941711        0.07358414973685
H            7.36993430335813       -4.65016901268443       -1.90222530109074
H            5.47251196535113       -3.47942200218027       -2.96447760552227
H            4.68902806056077       -1.32667736804135       -2.06848869014835
H            4.58938581399811        2.34150763867782       -0.32489759369378
H            2.18220260650530        2.82490688522416       -0.35486048400435
H            3.72996907409750       -1.78947114284750        0.40290965746311
H            1.52891782544677       -2.63059806386295        0.57583051201808
H           -1.12355073652802       -4.13506754267092        0.98665540817862
H           -3.51672448012816       -4.74168626646657        1.14492053758337
H           -5.26087698376144       -3.09059841147181        0.66793401436099
H           -3.40288898245184       -1.25197835437107       -2.07711821579438
H           -3.17386407360848       -0.01515971386931       -4.17339808299273
H           -4.52258024431768        2.01498478265803       -4.58366175873554
H           -6.10921662555426        2.78951936707546       -2.85422109471890
H           -6.31819011334335        1.58516078158700       -0.73763964017876
H           -7.46856990462343       -0.62263745290908       -0.93431783046173
H           -9.49455252527660       -0.64047270614338        0.45647589880512
H           -9.31399083872117       -0.65293811784663        2.91862764367774
H           -7.08416166173414       -0.65304341482263        3.98156129942773
H           -5.05275123083561       -0.61540693338616        2.59095398162713
H           -4.19321592672640        1.87781996430167        0.50918004054524
H           -3.97159691986172        4.31649991754653        0.26934283488691
H           -1.78485732708725        5.34272106627220       -0.16691817084159
H            0.24603671536606        3.96770243480953       -0.30738212935932
H            5.32617060838683        1.46302718986316        2.16841895818400
H            6.94590542858475        3.07749956237471        3.07740202430540

 projected vibrational frequencies (cm⁻¹)
eigval :       -0.00    -0.00    -0.00    -0.00    -0.00     0.00
eigval :       10.48    14.67    20.75    21.89    33.31    39.39
eigval :       51.33    52.79    56.69    61.35    71.01    75.74
eigval :       85.30    95.42   102.51   111.25   112.28   141.28
eigval :      148.59   153.75   184.97   206.31   219.43   230.50
eigval :      234.48   243.67   244.90   255.72   275.13   284.41
eigval :      290.94   313.22   317.24   325.78   366.06   375.65
eigval :      377.38   377.65   380.84   384.56   388.74   399.83
eigval :      406.98   417.85   418.52   437.48   451.32   476.66
eigval :      483.75   488.82   490.54   500.04   507.10   537.62
eigval :      548.07   552.48   560.06   578.87   581.87   586.23
eigval :      587.48   588.81   592.08   597.16   611.67   614.95
eigval :      630.64   647.24   651.96   657.39   660.15   664.76
eigval :      667.91   675.12   680.13   682.75   696.56   700.52
eigval :      715.92   717.34   753.12   756.85   757.27   758.60
eigval :      760.50   783.25   791.31   800.15   803.92   834.91
eigval :      842.57   848.24   859.11   864.35   870.51   871.90
eigval :      874.02   875.46   886.61   891.37   893.65   896.23
eigval :      898.84   901.73   903.26   908.00   908.73   910.65
eigval :      918.91   925.57   926.36   926.85   927.59   928.06
eigval :      928.84   929.03   938.43   963.53   974.96   994.51
eigval :     1002.60  1003.50  1023.80  1066.62  1074.67  1081.57
eigval :     1082.58  1082.66  1087.80  1097.88  1104.97  1121.27
eigval :     1121.70  1123.51  1129.88  1135.67  1148.91  1164.60
eigval :     1171.37  1179.46  1179.69  1180.45  1180.85  1182.00
eigval :     1187.38  1192.37  1192.57  1195.36  1202.98  1210.15
eigval :     1221.39  1231.19  1239.67  1267.46  1272.46  1276.15
eigval :     1276.87  1279.35  1283.21  1299.37  1303.92  1311.78
eigval :     1315.57  1319.45  1322.53  1324.65  1326.90  1327.93
eigval :     1330.57  1342.65  1366.08  1368.56  1378.13  1386.36
eigval :     1394.96  1409.81  1433.22  1434.55  1435.46  1441.68
eigval :     1444.18  1456.15  1463.49  1465.17  1466.12  1469.15
eigval :     1472.10  1481.15  1493.75  1501.85  1520.16  1546.54
eigval :     1554.72  1570.77  1573.31  1575.46  1578.27  1583.49
eigval :     1585.35  1591.13  1591.67  1598.22  1602.57  3074.83
eigval :     3076.03  3076.85  3077.97  3078.06  3078.16  3078.61
eigval :     3079.12  3079.49  3081.57  3081.81  3085.44  3086.80
eigval :     3087.74  3088.57  3089.68  3089.90  3090.26  3090.45
eigval :     3092.83  3093.36  3093.73  3094.52  3096.34  3097.88
eigval :     3098.13  3098.76  3100.02  3100.46  3106.45  3129.44

   temp. (K)  partition function   enthalpy   heat capacity  entropy
                                   cal/mol     cal/K/mol   cal/K/mol   J/K/mol
 298.15  VIB  0.689E+17            22230.002    144.026    137.320
         ROT  0.837E+08              888.752      2.981     39.235
         INT  0.577E+25            23118.755    147.007    176.555
         TR   0.151E+29             1481.254      4.968     45.164
         TOT                       24600.0087   151.9751   221.7188   927.6715

       T/K    H(0)-H(T)+PV         H(T)/Eh          T*S/Eh         G(T)/Eh
   ------------------------------------------------------------------------
    298.15    0.392026E-01    0.654259E+00    0.105346E+00    0.548913E+00
   ------------------------------------------------------------------------

         :::::::::::::::::::::::::::::::::::::::::::::::::::::
         ::                  THERMODYNAMIC                  ::
         :::::::::::::::::::::::::::::::::::::::::::::::::::::
         :: total free energy        -122.516162460227 Eh   ::
         ::.................................................::
         :: total energy             -123.065075650533 Eh   ::
         :: zero point energy           0.615056345521 Eh   ::
         :: G(RRHO) w/o ZPVE           -0.066143155215 Eh   ::
         :: G(RRHO) contrib.            0.548913190306 Eh   ::
         :::::::::::::::::::::::::::::::::::::::::::::::::::::

           -------------------------------------------------
          | TOTAL ENERGY             -123.065075650533 Eh   |
          | TOTAL ENTHALPY           -122.410816695762 Eh   |
          | TOTAL FREE ENERGY        -122.516162460227 Eh   |
          | GRADIENT NORM               0.000062661588 Eh/α |
           -------------------------------------------------

 * finished run on 2025/09/04 at 11:42:55.833
