   * xtb version 6.7.1 (edcfbbe) compiled by 'albert@albert-system' on 2024-07-22

   ID    Z sym.   atoms
    1    6 C      1-4, 6-24, 26-38, 40-49
    2    7 N      5, 25, 39
    3    1 H      50-80

          program call               : xtb data2507/gas/NIDPA-1/NIDPA-1_gas_S0_crest.xyz --gfn 2 --ohess vtight --parallel 40 --molden --ceasefiles --namespace data2507/gas/NIDPA-1/NIDPA-1_gas_S0_finalOpt
          :  Hamiltonian                  GFN2-xTB          :
 * total energy  :  -123.1374309 Eh     change       -0.1233389E-08 Eh
 * total energy  :  -123.1374318 Eh     change       -0.8544161E-06 Eh
 * total energy  :  -123.1374324 Eh     change       -0.6145942E-06 Eh
 * total energy  :  -123.1374331 Eh     change       -0.7385949E-06 Eh
 * total energy  :  -123.1374333 Eh     change       -0.1452090E-06 Eh
 * total energy  :  -123.1374334 Eh     change       -0.1391218E-06 Eh
 * total energy  :  -123.1374336 Eh     change       -0.1742330E-06 Eh
 * total energy  :  -123.1374338 Eh     change       -0.1799786E-06 Eh
 * total energy  :  -123.1374339 Eh     change       -0.1614465E-06 Eh
 * total energy  :  -123.1374341 Eh     change       -0.1413800E-06 Eh
 * total energy  :  -123.1374342 Eh     change       -0.1322930E-06 Eh
 * total energy  :  -123.1374343 Eh     change       -0.1285157E-06 Eh
 * total energy  :  -123.1374344 Eh     change       -0.1130522E-06 Eh
 * total energy  :  -123.1374345 Eh     change       -0.8911499E-07 Eh
   *** GEOMETRY OPTIMIZATION CONVERGED AFTER 14 ITERATIONS ***

 final structure:
================
80
 xtb: 6.7.1 (edcfbbe)
C            8.36768520588201        2.65537913575582       -1.67758668720792
C            7.11818868468596        2.47312281324573       -2.24693898327394
C            6.22827693658128        1.56499912907719       -1.70733931222278
C            6.57585685764174        0.82759313084655       -0.57523694660694
N            5.67391598752525       -0.08482173952321       -0.01882182908828
C            6.13664791219162       -1.29029567145203        0.52029045129583
C            7.20423459870891       -1.96637012343773       -0.07008068417696
C            7.66198164461754       -3.15237884585202        0.47014599008424
C            7.06175796237230       -3.68857330726708        1.59746529055408
C            5.99757487758321       -3.02385119685051        2.18486088491929
C            5.53794072464751       -1.83328779852839        1.65721949583247
C            4.30357199939606        0.20046616270429       -0.02447627666204
C            3.86329174417951        1.52226883533990        0.19656310768783
C            2.52992459345643        1.81357390903500        0.19915877980075
C            1.55569139090330        0.81915924085672       -0.00333958297262
C            1.98760218463210       -0.53627184858686       -0.22052426907928
C            3.37231451409049       -0.79228818765682       -0.23182625354611
C            1.09496810835866       -1.62333522147595       -0.44702407402196
C           -0.25810489358538       -1.38552990151152       -0.43161464677883
C           -1.54284798997955       -2.04443289619224       -0.60095625028608
C           -1.87329273304625       -3.35876076472225       -0.88037770917238
C           -3.21191783908504       -3.70510970591499       -0.95577681132776
C           -4.20048633087304       -2.77446295747350       -0.68541882068156
C           -3.90298830468096       -1.44512336385528       -0.37979106691080
N           -4.93606114368468       -0.57045521282579        0.01044826157380
C           -6.12629184402203       -0.61226904805101       -0.72918582655290
C           -6.05546574686654       -0.61558163505287       -2.12201704054529
C           -7.21014394792615       -0.66700850705533       -2.87787468083951
C           -8.44937452733655       -0.71203353122260       -2.26042213826277
C           -8.52425157757237       -0.71785023788157       -0.87717086565945
C           -7.37459001967620       -0.67460378101005       -0.11217223485646
C           -4.85387232557846        0.08571974725348        1.24024091004541
C           -3.95124099246056       -0.33206087318036        2.21810354030434
C           -3.83321533605710        0.36395022193379        3.40569342273464
C           -4.61724818588153        1.47697988461692        3.65202388276387
C           -5.52905927102205        1.88759226844404        2.69352130237573
C           -5.64755790233905        1.20635535826968        1.49984430422486
C           -2.56460143862755       -1.05997054775711       -0.41941043387252
N           -1.95613161403032        0.17558535864043       -0.21868902961507
C           -2.11189048394420        1.55024881617301       -0.12117445484345
C           -3.23697217461924        2.34194862016464       -0.25366840726891
C           -3.09501736036548        3.71144859661941       -0.11887216792695
C           -1.85338864072064        4.28868794208095        0.11831523671897
C           -0.71059733549030        3.51456073700936        0.18812550531587
C           -0.81543340878694        2.13722748344302        0.05429502633036
C            0.16038511243715        1.06804430371507       -0.00983249027183
C           -0.61358924915226       -0.05491244330001       -0.19298560960307
C            7.83369466458945        1.01889875101749       -0.00298478925206
C            8.71979597111513        1.92232512470708       -0.55589348816184
H            9.06194743428436        3.36310900745269       -2.10452948460018
H            6.83637540846702        3.03617152023284       -3.12468314628930
H            5.25888667777441        1.41691371007905       -2.16056936094214
H            7.66810782964315       -1.55632867918998       -0.95532320073021
H            8.48855468199799       -3.66602100698025        0.00131009463917
H            7.42018690564572       -4.61727113330366        2.01491492676059
H            5.52608920465610       -3.43135822623242        3.06721153856218
H            4.71359151276191       -1.31323473109739        2.12280753211593
H            4.59520250610463        2.29684577188865        0.37214670393518
H            2.20262336948302        2.82636280329978        0.37517849676806
H            3.70810620466088       -1.80516668638490       -0.40485408801933
H            1.51022175860635       -2.60316925176866       -0.62937333513604
H           -1.09812856759645       -4.09391889306968       -1.03049200183018
H           -3.49361073435089       -4.72127914705544       -1.18608395557599
H           -5.23704371104386       -3.07840997272657       -0.68309769575523
H           -5.08790292424570       -0.57889055635749       -2.60184370611552
H           -7.14200685239410       -0.66568584429498       -3.95577621625258
H           -9.35081822572970       -0.74760558579937       -2.85307532903544
H           -9.48605918222410       -0.76803782087007       -0.38805610178298
H           -7.43624276870811       -0.70021864431515        0.96592913395289
H           -3.34441318737285       -1.20996077842346        2.05270811786791
H           -3.12384402551953        0.02608806694299        4.14701083713795
H           -4.52118962381179        2.01813488764702        4.58078771444538
H           -6.14857321991853        2.75424885077140        2.87192731032644
H           -6.34987469873205        1.55043673467889        0.75445161184674
H           -4.19760265616759        1.91195571399013       -0.47901954848383
H           -3.96623460661031        4.34241885214700       -0.21150084482710
H           -1.77856310326963        5.36086107227665        0.22393617946319
H            0.25248279461656        3.98001898875050        0.33134111390419
H            8.10681451139721        0.45697045942698        0.87826626351321
H            9.68980089741102        2.06173289907289       -0.10148157527626

          :  Hamiltonian                  GFN2-xTB          :
         :: gradient norm              0.000039570430 Eh/a0 ::
         :: HOMO-LUMO gap              1.897924654606 eV    ::
         :: SCC energy              -125.468668284849 Eh    ::
         :: -> dispersion             -0.119735427042 Eh    ::
         :: repulsion energy           2.331233752161 Eh    ::

    * Orbital Energies and Occupations

         #    Occupation            Energy/Eh            Energy/eV
      -------------------------------------------------------------
         1        2.0000           -0.6843051             -18.6209
       ...           ...                  ...                  ...
       103        2.0000           -0.4104901             -11.1700
       104        2.0000           -0.4070127             -11.0754
       105        2.0000           -0.4054522             -11.0329
       106        2.0000           -0.4052760             -11.0281
       107        2.0000           -0.4040004             -10.9934
       108        2.0000           -0.4032929             -10.9742
       109        2.0000           -0.4021026             -10.9418
       110        2.0000           -0.4001606             -10.8889
       111        2.0000           -0.3879337             -10.5562
       112        2.0000           -0.3770424             -10.2598
       113        2.0000           -0.3684346             -10.0256
       114        2.0000           -0.3499093              -9.5215
       115        2.0000           -0.3436201              -9.3504 (HOMO)
       116                         -0.2738726              -7.4525 (LUMO)
       117                         -0.2382127              -6.4821
       118                         -0.2328988              -6.3375
       119                         -0.2290954              -6.2340
       120                         -0.2281345              -6.2079
       121                         -0.2254486              -6.1348
       122                         -0.2246409              -6.1128
       123                         -0.2234207              -6.0796
       124                         -0.2193931              -5.9700
       125                         -0.2185595              -5.9473
       126                         -0.2119882              -5.7685
       ...                                ...                  ...
       227                          0.7709834              20.9795
      -------------------------------------------------------------
                  HL-Gap            0.0697475 Eh            1.8979 eV

     #   Z          covCN         q      C6AA      α(0)
     1   6 C        2.919    -0.039    28.967     8.826
     2   6 C        2.919    -0.029    28.736     8.791
     3   6 C        2.922    -0.048    29.192     8.860
     4   6 C        2.924     0.066    26.533     8.447
     5   7 N        2.753    -0.076    22.722     7.080
     6   6 C        2.924     0.065    26.542     8.449
     7   6 C        2.922    -0.048    29.191     8.860
     8   6 C        2.920    -0.030    28.737     8.791
     9   6 C        2.919    -0.039    28.967     8.826
    10   6 C        2.920    -0.029    28.735     8.791
    11   6 C        2.922    -0.048    29.186     8.859
    12   6 C        2.919     0.062    26.617     8.460
    13   6 C        2.918    -0.045    29.118     8.849
    14   6 C        2.914    -0.036    28.907     8.816
    15   6 C        2.997     0.005    27.895     8.664
    16   6 C        2.982     0.005    27.910     8.666
    17   6 C        2.927    -0.056    29.403     8.893
    18   6 C        2.937    -0.040    28.983     8.829
    19   6 C        3.017    -0.013    28.321     8.730
    20   6 C        3.103    -0.011    28.167     8.697
    21   6 C        2.911    -0.038    28.942     8.822
    22   6 C        2.918    -0.038    28.948     8.823
    23   6 C        2.926    -0.048    29.203     8.862
    24   6 C        2.918     0.051    26.849     8.497
    25   7 N        2.750    -0.083    22.859     7.101
    26   6 C        2.926     0.065    26.535     8.448
    27   6 C        2.924    -0.047    29.168     8.857
    28   6 C        2.919    -0.029    28.723     8.789
    29   6 C        2.919    -0.038    28.940     8.822
    30   6 C        2.920    -0.029    28.734     8.790
    31   6 C        2.921    -0.048    29.183     8.859
    32   6 C        2.919     0.067    26.502     8.442
    33   6 C        2.923    -0.052    29.288     8.875
    34   6 C        2.920    -0.029    28.722     8.788
    35   6 C        2.919    -0.040    29.003     8.831
    36   6 C        2.920    -0.030    28.738     8.791
    37   6 C        2.923    -0.049    29.228     8.866
    38   6 C        3.075     0.039    27.054     8.528
    39   7 N        2.830    -0.031    21.842     6.941
    40   6 C        3.090     0.049    26.807     8.487
    41   6 C        2.909    -0.047    29.168     8.856
    42   6 C        2.924    -0.033    28.821     8.804
    43   6 C        2.919    -0.039    28.958     8.825
    44   6 C        2.912    -0.033    28.820     8.803
    45   6 C        3.120    -0.011    28.113     8.684
    46   6 C        3.021    -0.027    28.644     8.779
    47   6 C        3.451     0.034    22.397     7.155
    48   6 C        2.922    -0.048    29.192     8.860
    49   6 C        2.920    -0.029    28.736     8.791
    50   1 H        0.926     0.029     2.597     2.520
    51   1 H        0.926     0.031     2.577     2.511
    52   1 H        0.926     0.031     2.570     2.507
    53   1 H        0.926     0.031     2.569     2.506
    54   1 H        0.926     0.031     2.577     2.510
    55   1 H        0.926     0.029     2.596     2.520
    56   1 H        0.926     0.031     2.575     2.509
    57   1 H        0.926     0.032     2.564     2.504
    58   1 H        0.926     0.033     2.540     2.492
    59   1 H        0.926     0.037     2.493     2.469
    60   1 H        0.926     0.032     2.561     2.503
    61   1 H        0.926     0.034     2.534     2.489
    62   1 H        0.926     0.038     2.476     2.460
    63   1 H        0.926     0.035     2.517     2.481
    64   1 H        0.926     0.035     2.511     2.478
    65   1 H        0.926     0.030     2.592     2.518
    66   1 H        0.926     0.032     2.562     2.503
    67   1 H        0.926     0.030     2.580     2.512
    68   1 H        0.926     0.032     2.564     2.504
    69   1 H        0.926     0.034     2.532     2.489
    70   1 H        0.926     0.025     2.663     2.552
    71   1 H        0.926     0.028     2.608     2.526
    72   1 H        0.926     0.028     2.616     2.529
    73   1 H        0.926     0.030     2.593     2.518
    74   1 H        0.926     0.030     2.590     2.517
    75   1 H        0.926     0.037     2.486     2.466
    76   1 H        0.926     0.031     2.574     2.509
    77   1 H        0.926     0.030     2.588     2.516
    78   1 H        0.926     0.032     2.563     2.504
    79   1 H        0.926     0.031     2.569     2.507
    80   1 H        0.926     0.031     2.577     2.511

molecular dipole:
                 x           y           z       tot (Debye)
 q only:       -0.089      -0.128      -0.137
   full:       -0.202      -0.181      -0.128       0.763

 projected vibrational frequencies (cm⁻¹)
eigval :       -0.00    -0.00    -0.00    -0.00     0.00     0.00
eigval :       10.53    14.58    20.61    22.68    32.59    39.46
eigval :       50.72    51.87    56.64    62.21    70.84    76.75
eigval :       85.42    95.68   102.03   111.19   113.03   141.42
eigval :      150.19   154.78   186.07   204.81   218.55   232.64
eigval :      235.40   244.54   250.89   261.76   275.81   288.06
eigval :      291.97   314.05   321.16   331.32   368.24   376.97
eigval :      377.54   378.47   383.76   387.17   390.56   406.03
eigval :      410.71   418.96   437.40   446.14   454.50   478.68
eigval :      489.26   490.47   493.86   498.83   514.62   543.70
eigval :      553.52   565.01   570.80   582.77   584.57   588.87
eigval :      589.58   591.13   595.30   600.22   611.52   623.01
eigval :      634.33   655.04   657.16   660.10   665.27   667.47
eigval :      671.04   683.35   694.04   701.89   703.75   718.17
eigval :      720.24   754.67   756.77   759.35   759.72   772.01
eigval :      795.84   798.27   813.31   838.92   847.48   849.17
eigval :      866.85   872.50   873.58   875.11   876.44   877.36
eigval :      883.28   889.35   891.21   893.42   897.50   900.92
eigval :      907.81   909.15   913.67   914.69   916.03   920.77
eigval :      925.85   926.84   927.30   928.23   928.62   928.84
eigval :      929.36   929.89   938.97   970.64   975.36  1001.78
eigval :     1003.83  1006.95  1024.81  1076.13  1082.93  1083.31
eigval :     1084.28  1084.41  1089.09  1102.13  1116.37  1121.83
eigval :     1122.25  1124.50  1131.24  1150.67  1160.85  1168.64
eigval :     1180.35  1180.77  1180.80  1180.90  1181.80  1186.48
eigval :     1193.84  1195.40  1196.18  1200.88  1208.80  1214.76
eigval :     1224.65  1231.97  1246.28  1270.02  1277.41  1278.57
eigval :     1279.75  1282.98  1289.80  1303.34  1310.68  1318.49
eigval :     1321.22  1322.07  1324.32  1325.26  1327.83  1331.15
eigval :     1349.59  1356.55  1356.66  1374.09  1396.17  1406.70
eigval :     1417.47  1432.57  1435.61  1442.70  1443.51  1445.73
eigval :     1457.24  1472.13  1473.60  1477.30  1478.75  1481.75
eigval :     1487.75  1520.12  1565.37  1575.49  1576.18  1576.71
eigval :     1580.92  1582.13  1585.40  1594.74  1595.31  1596.41
eigval :     1599.06  1602.29  1604.23  1607.85  1637.42  3074.46
eigval :     3074.83  3075.12  3075.25  3075.48  3076.11  3076.23
eigval :     3076.64  3076.72  3078.70  3083.60  3084.28  3084.73
eigval :     3085.11  3085.36  3085.69  3086.59  3088.17  3088.62
eigval :     3089.18  3089.46  3089.97  3092.74  3096.20  3096.68
eigval :     3097.21  3097.53  3098.33  3102.68  3103.63  3132.28

   temp. (K)  partition function   enthalpy   heat capacity  entropy
                                   cal/mol     cal/K/mol   cal/K/mol   J/K/mol
 298.15  VIB  0.562E+17            22023.897    142.492    136.198
         ROT  0.838E+08              888.752      2.981     39.235
         INT  0.471E+25            22912.650    145.473    175.433
         TR   0.151E+29             1481.254      4.968     45.164
         TOT                       24393.9035   150.4412   220.5969   922.9773

       T/K    H(0)-H(T)+PV         H(T)/Eh          T*S/Eh         G(T)/Eh
   ------------------------------------------------------------------------
    298.15    0.388742E-01    0.657386E+00    0.104813E+00    0.552573E+00
   ------------------------------------------------------------------------

         :::::::::::::::::::::::::::::::::::::::::::::::::::::
         ::                  THERMODYNAMIC                  ::
         :::::::::::::::::::::::::::::::::::::::::::::::::::::
         :: total free energy        -122.584861573463 Eh   ::
         ::.................................................::
         :: total energy             -123.137434532685 Eh   ::
         :: zero point energy           0.618511491078 Eh   ::
         :: G(RRHO) w/o ZPVE           -0.065938531856 Eh   ::
         :: G(RRHO) contrib.            0.552572959222 Eh   ::
         :::::::::::::::::::::::::::::::::::::::::::::::::::::

           -------------------------------------------------
          | TOTAL ENERGY             -123.137434532685 Eh   |
          | TOTAL ENTHALPY           -122.480048881905 Eh   |
          | TOTAL FREE ENERGY        -122.584861573463 Eh   |
          | GRADIENT NORM               0.000039547836 Eh/α |
          | HOMO-LUMO GAP               1.897925550092 eV   |
           -------------------------------------------------

 * finished run on 2025/09/04 at 11:35:02.919
