   * xtb version 6.7.1 (edcfbbe) compiled by 'albert@albert-system' on 2024-07-22

   ID    Z sym.   atoms
    1    6 C      1-4, 6-24, 26-38, 40-49
    2    7 N      5, 25, 39
    3    1 H      50-80

          program call               : xtb data2507/gas/NIDPA-1/NIDPA-1_gas_S0_finalOpt.xtbopt.xyz --gfn 2 --spinpol --tblite --uhf 2 --ohess vtight --parallel 40 --molden --ceasefiles --namespace data2507/gas/NIDPA-1/NIDPA-1_gas_T1_preOpt
 * total energy  :  -123.0606439 Eh     change       -0.1659157E-07 Eh
 * total energy  :  -123.0639737 Eh     change       -0.3329778E-02 Eh
 * total energy  :  -123.0649120 Eh     change       -0.9383077E-03 Eh
 * total energy  :  -123.0649728 Eh     change       -0.6076939E-04 Eh
 * total energy  :  -123.0650054 Eh     change       -0.3262061E-04 Eh
 * total energy  :  -123.0650190 Eh     change       -0.1362767E-04 Eh
 * total energy  :  -123.0650305 Eh     change       -0.1145047E-04 Eh
 * total energy  :  -123.0650428 Eh     change       -0.1228065E-04 Eh
 * total energy  :  -123.0650488 Eh     change       -0.6056264E-05 Eh
 * total energy  :  -123.0650530 Eh     change       -0.4133834E-05 Eh
 * total energy  :  -123.0650748 Eh     change       -0.3326474E-06 Eh
 * total energy  :  -123.0650753 Eh     change       -0.5542626E-06 Eh
 * total energy  :  -123.0650750 Eh     change        0.3666354E-06 Eh
 * total energy  :  -123.0650755 Eh     change       -0.5814672E-06 Eh
 * total energy  :  -123.0650757 Eh     change       -0.1656327E-06 Eh
 * total energy  :  -123.0650761 Eh     change       -0.3605983E-06 Eh
 * total energy  :  -123.0650763 Eh     change       -0.2019659E-06 Eh
 * total energy  :  -123.0650764 Eh     change       -0.1669618E-06 Eh
 * total energy  :  -123.0650765 Eh     change       -0.2995468E-07 Eh
   *** GEOMETRY OPTIMIZATION CONVERGED AFTER 30 ITERATIONS ***

 final structure:
================
80
 xtb: 6.7.1 (edcfbbe)
C            8.42095937253077        2.67448541019173       -1.61152314459704
C            7.18520482328379        2.50180122086548       -2.21515453759777
C            6.27488958351695        1.60075757710472       -1.69968574579233
C            6.59156087568532        0.85797569239284       -0.56177847798390
N            5.67252657258505       -0.05747136546485       -0.03799074657501
C            6.12521339483957       -1.26977296306031        0.48808651727421
C            7.19769611145839       -1.94122246311862       -0.10116114795143
C            7.63900711278447       -3.13957272094615        0.42379825263465
C            7.01915004635600       -3.69036652918055        1.53456350878053
C            5.95236591254766       -3.02908585196302        2.12160623027896
C            5.50745949537144       -1.82612146850703        1.60991558403389
C            4.31364826734845        0.24682146127741       -0.02226853612121
C            3.87362347406620        1.55008231002004        0.16348097440314
C            2.50972127108178        1.81588791975084        0.17595576874720
C            1.55620042405052        0.81543747225782       -0.00380881173408
C            1.99253533097218       -0.54952811621053       -0.21233781331414
C            3.37324817346036       -0.78466939484191       -0.21280747736129
C            1.11477385727367       -1.64877218726564       -0.41998767675189
C           -0.27917346945887       -1.41998386515037       -0.39878428120442
C           -1.53847908943161       -2.07923655210085       -0.56474202772587
C           -1.88874116041857       -3.39627039558882       -0.84720827581442
C           -3.22413182649850       -3.73141208373687       -0.92721606493589
C           -4.22189991785836       -2.79592627584877       -0.66660931213116
C           -3.91776175447971       -1.47145325776424       -0.35855756398781
N           -4.94919016855539       -0.59206798954276        0.03201469086608
C           -6.12912606926669       -0.60636964281741       -0.71888260838811
C           -6.04497503160037       -0.62892062358492       -2.11161529255282
C           -7.19328080840581       -0.65269285386629       -2.87774211325488
C           -8.43952578551294       -0.65269507452244       -2.27203611002973
C           -8.52821790593522       -0.64054912131144       -0.88945216354386
C           -7.38555266487467       -0.62259443474645       -0.11351528434425
C           -4.85777166456156        0.07023033007784        1.25431006492066
C           -3.97198909774833       -0.36922909221781        2.23992443851856
C           -3.84150194371817        0.32821901992502        3.42435598129577
C           -4.59561528008545        1.46496777523418        3.66077556711444
C           -5.49051203193613        1.89732180321035        2.69587235180850
C           -5.62206352225458        1.21433667984944        1.50453886501659
C           -2.57848656975489       -1.08569720028767       -0.39054092643395
N           -1.96183983714156        0.13418121736295       -0.19882602974794
C           -2.12040016239993        1.52145280133597       -0.12341383529423
C           -3.23947446394431        2.30025453367449       -0.28046230696864
C           -3.10586227889689        3.68402828304046       -0.16570834030996
C           -1.86970543695571        4.26335407299480        0.07193581816482
C           -0.72176099619675        3.49343094840104        0.16105648871138
C           -0.81681105157682        2.10876163217993        0.04549444776991
C            0.15273967259321        1.05317357076866       -0.00445141822414
C           -0.62430959148854       -0.09981441961214       -0.17580748515793
C            7.83602747593365        1.03615391842165        0.04346155941312
C            8.74079807174129        1.93739299996352       -0.48285916541847
H            9.12991028619339        3.37934152407374       -2.01825581592294
H            6.93125969325488        3.06795480523072       -3.09892343225880
H            5.31599487244979        1.45760583448145       -2.17517159619433
H            7.67156451990349       -1.52120313945295       -0.97628469449654
H            8.46697715408899       -3.65211311249083       -0.04309463141514
H            7.36601985981095       -4.62862420773978        1.93977578926054
H            5.46788778057514       -3.44872179666568        2.99065678252076
H            4.68587088685811       -1.30323309501554        2.07629841346452
H            4.58463574628032        2.34722083621626        0.31798186825782
H            2.17640151731811        2.82686329418847        0.34878035043618
H            3.73146930960024       -1.78629143320529       -0.40159925149313
H            1.53196821720692       -2.62997628234560       -0.58030556515139
H           -1.11912657088127       -4.13800124511553       -0.99584056171795
H           -3.51149763053464       -4.74782518682725       -1.15185660310039
H           -5.25753236442709       -3.10140495559471       -0.66586224297073
H           -5.07200658117201       -0.62683304629423       -2.58122646038000
H           -7.11504834828664       -0.66564972035484       -3.95481202882901
H           -9.33585624882144       -0.66796844657453       -2.87325731381755
H           -9.49586616621443       -0.65661345212476       -0.40966288905863
H           -7.45820333063665       -0.63696024575505        0.96410426064285
H           -3.39100724708932       -1.26489782542354        2.07864748734988
H           -3.14748917796677       -0.02617435650738        4.17229354339339
H           -4.48934281661584        2.00745947738684        4.58765661568943
H           -6.08533755494919        2.78245522798437        2.86710111147758
H           -6.30957783398434        1.57543150193309        0.75342983888464
H           -4.19769842046532        1.86735691885942       -0.51135737440637
H           -3.98080707368782        4.30680656918518       -0.27261235145306
H           -1.79611912912132        5.33724737376828        0.16377167202572
H            0.23739791192423        3.96625035802939        0.30494712110395
H            8.08133959145168        0.47106278242752        0.93077329603828
H            9.69919740941807        2.07061723524888       -0.00332245847238

 projected vibrational frequencies (cm⁻¹)
eigval :       -0.00     0.00     0.00     0.00     0.00     0.00
eigval :       10.37    14.76    20.87    22.45    33.19    39.37
eigval :       51.58    52.77    56.71    61.44    71.03    76.05
eigval :       85.26    95.56   102.69   111.45   112.35   141.32
eigval :      148.73   153.57   185.15   206.14   219.43   230.71
eigval :      234.45   243.47   244.84   255.59   275.24   284.53
eigval :      290.87   313.46   317.31   325.76   366.00   375.81
eigval :      377.39   377.78   380.85   384.65   388.63   400.02
eigval :      407.08   417.86   418.45   437.44   451.27   476.63
eigval :      483.68   488.85   490.15   500.03   507.03   537.46
eigval :      548.12   552.53   560.01   578.84   581.77   586.24
eigval :      587.37   588.70   592.07   597.04   611.74   614.86
eigval :      630.76   647.32   651.82   657.50   660.06   664.74
eigval :      667.91   675.00   680.01   682.63   696.59   700.51
eigval :      715.95   717.63   753.27   756.84   757.49   758.51
eigval :      760.69   783.48   791.51   800.29   804.13   834.92
eigval :      842.61   848.58   859.28   864.58   870.77   871.85
eigval :      874.18   875.72   886.94   891.70   893.52   896.16
eigval :      898.99   901.84   903.50   908.20   908.88   910.73
eigval :      919.13   925.67   926.63   926.81   927.92   928.09
eigval :      928.78   929.02   938.51   963.61   975.03   994.68
eigval :     1002.73  1003.55  1024.00  1066.72  1074.97  1081.87
eigval :     1082.80  1082.81  1087.92  1097.84  1104.87  1121.52
eigval :     1121.80  1123.76  1130.06  1135.56  1148.79  1164.25
eigval :     1171.20  1179.65  1179.78  1180.06  1180.82  1181.71
eigval :     1187.22  1192.27  1192.65  1195.18  1202.82  1210.56
eigval :     1221.15  1231.21  1239.62  1267.06  1272.43  1276.25
eigval :     1276.81  1279.38  1283.36  1299.27  1304.22  1311.56
eigval :     1315.42  1319.61  1322.69  1324.62  1326.96  1327.74
eigval :     1330.60  1342.40  1365.90  1368.64  1377.81  1386.22
eigval :     1394.86  1409.57  1433.18  1434.42  1435.14  1441.76
eigval :     1444.02  1456.16  1463.52  1465.09  1466.12  1469.08
eigval :     1471.97  1481.04  1493.73  1501.54  1520.00  1546.33
eigval :     1554.63  1570.83  1573.39  1575.49  1578.32  1583.48
eigval :     1585.41  1591.17  1591.78  1598.27  1602.54  3074.54
eigval :     3075.37  3076.29  3077.56  3077.92  3077.96  3078.27
eigval :     3078.79  3079.15  3081.27  3081.53  3085.12  3086.32
eigval :     3087.24  3088.26  3089.25  3089.40  3089.67  3089.93
eigval :     3092.36  3093.04  3093.32  3094.38  3095.25  3097.43
eigval :     3097.75  3098.51  3099.76  3100.21  3106.21  3128.39

   temp. (K)  partition function   enthalpy   heat capacity  entropy
                                   cal/mol     cal/K/mol   cal/K/mol   J/K/mol
 298.15  VIB  0.665E+17            22227.015    144.030    137.281
         ROT  0.836E+08              888.752      2.981     39.233
         INT  0.556E+25            23115.767    147.011    176.513
         TR   0.151E+29             1481.254      4.968     45.164
         TOT                       24597.0209   151.9791   221.6770   927.4965

       T/K    H(0)-H(T)+PV         H(T)/Eh          T*S/Eh         G(T)/Eh
   ------------------------------------------------------------------------
    298.15    0.391978E-01    0.654235E+00    0.105326E+00    0.548909E+00
   ------------------------------------------------------------------------

         :::::::::::::::::::::::::::::::::::::::::::::::::::::
         ::                  THERMODYNAMIC                  ::
         :::::::::::::::::::::::::::::::::::::::::::::::::::::
         :: total free energy        -122.516167050937 Eh   ::
         ::.................................................::
         :: total energy             -123.065076472308 Eh   ::
         :: zero point energy           0.615037457439 Eh   ::
         :: G(RRHO) w/o ZPVE           -0.066128036068 Eh   ::
         :: G(RRHO) contrib.            0.548909421371 Eh   ::
         :::::::::::::::::::::::::::::::::::::::::::::::::::::

           -------------------------------------------------
          | TOTAL ENERGY             -123.065076472308 Eh   |
          | TOTAL ENTHALPY           -122.410841166980 Eh   |
          | TOTAL FREE ENERGY        -122.516167050937 Eh   |
          | GRADIENT NORM               0.000050738531 Eh/α |
           -------------------------------------------------

 * finished run on 2025/09/04 at 11:35:11.797
