   * xtb version 6.7.1 (edcfbbe) compiled by 'albert@albert-system' on 2024-07-22

   ID    Z sym.   atoms
    1    6 C      1-4, 6-24, 26-38, 40-49
    2    7 N      5, 25, 39
    3    1 H      50-80

          program call               : xtb data2507/gas/NIDPA-1/NIDPA-1.xyz --gfn 2 --ohess vtight --parallel 40 --molden --ceasefiles --namespace data2507/gas/NIDPA-1/NIDPA-1_gas_S0_preOpt
          :  Hamiltonian                  GFN2-xTB          :
 * total energy  :  -123.0962199 Eh     change       -0.1850722E-08 Eh
 * total energy  :  -123.1210063 Eh     change       -0.2478640E-01 Eh
 * total energy  :  -123.1303235 Eh     change       -0.9317200E-02 Eh
 * total energy  :  -123.1336879 Eh     change       -0.3364397E-02 Eh
 * total energy  :  -123.1353338 Eh     change       -0.1645886E-02 Eh
 * total energy  :  -123.1359573 Eh     change       -0.6234492E-03 Eh
 * total energy  :  -123.1362271 Eh     change       -0.2698100E-03 Eh
 * total energy  :  -123.1364186 Eh     change       -0.1915496E-03 Eh
 * total energy  :  -123.1365760 Eh     change       -0.1573231E-03 Eh
 * total energy  :  -123.1367005 Eh     change       -0.1245769E-03 Eh
 * total energy  :  -123.1374330 Eh     change       -0.2111906E-06 Eh
 * total energy  :  -123.1374332 Eh     change       -0.2360820E-06 Eh
 * total energy  :  -123.1374334 Eh     change       -0.2155818E-06 Eh
 * total energy  :  -123.1374336 Eh     change       -0.1835930E-06 Eh
 * total energy  :  -123.1374338 Eh     change       -0.1954966E-06 Eh
 * total energy  :  -123.1374340 Eh     change       -0.2374083E-06 Eh
 * total energy  :  -123.1374342 Eh     change       -0.2055575E-06 Eh
 * total energy  :  -123.1374343 Eh     change       -0.1213739E-06 Eh
 * total energy  :  -123.1374344 Eh     change       -0.3774687E-07 Eh
   *** GEOMETRY OPTIMIZATION CONVERGED AFTER 86 ITERATIONS ***

 final structure:
================
80
 xtb: 6.7.1 (edcfbbe)
C            7.07149691236916       -3.89602164105691       -0.68362869093261
C            5.99881146015986       -3.40335642332501       -1.40886921169830
C            5.52404718505270       -2.12727132734690       -1.17806891894551
C            6.11590721062177       -1.32197290497076       -0.20484338567878
N            5.63724666337239       -0.02907689321214        0.03328728470675
C            6.52503755733232        1.00081578821755        0.35967332941245
C            6.16289953023103        1.97934943064688        1.28572785831325
C            7.03907744961436        3.00034626340325        1.59826796807735
C            8.28888203706214        3.05992557666758        1.00408815045153
C            8.65502007851424        2.08870901151139        0.08633314654637
C            7.78281023857077        1.06898097864301       -0.23996964365614
C            4.26319809989985        0.23172797056591       -0.02797251072361
C            3.80671397207038        1.45449062999705       -0.56289690206973
C            2.46972069529108        1.71933467276986       -0.63435018185607
C            1.50799368256400        0.79226027206877       -0.19310905819130
C            1.95679911052167       -0.46347800656337        0.34786782859368
C            3.34457873716699       -0.69230941494664        0.41685388835209
C            1.07796084645305       -1.47180343575534        0.83838888807508
C           -0.27790558695029       -1.26015240095640        0.77227698248712
C           -1.55386878355665       -1.87019259632659        1.10839651414478
C           -1.86698721933822       -3.07761151681237        1.70739463450619
C           -3.20087849954418       -3.40756565367254        1.87877284178003
C           -4.20202540377614       -2.58195536542628        1.39658860113568
C           -3.92217300060515       -1.36694355983346        0.76857121388814
N           -4.96912126018153       -0.62513981816304        0.18657454587324
C           -4.90929246661199       -0.29870101264250       -1.16959288468109
C           -4.01302927413934       -0.94125434267331       -2.02363889709305
C           -3.91786336349014       -0.56630487963026       -3.34993562063181
C           -4.71849582172760        0.44154287892215       -3.85736405148581
C           -5.62339682101342        1.07283639185974       -3.01989524769606
C           -5.71929593358413        0.71359991583629       -1.69144875098413
C           -6.14894116508822       -0.48870098684063        0.93142827790925
C           -6.05916520654932       -0.14317736401101        2.27961709409155
C           -7.20279550090696       -0.01217327888358        3.04261510204621
C           -8.44974946695475       -0.21893788914188        2.47577724837756
C           -8.54336648667316       -0.57078135402751        1.13918721425790
C           -7.40478165425533       -0.71202362033205        0.36944308818637
C           -2.58813732658555       -0.97156828261814        0.69740834001481
N           -1.99538506996827        0.18182063638400        0.19191820838991
C           -2.16793883853247        1.48825202587845       -0.24063269513062
C           -3.30220859552606        2.27549218919698       -0.30240565046019
C           -3.17714931583782        3.57066332344336       -0.77226878735444
C           -1.94314124398465        4.08526864748029       -1.15105618114178
C           -0.79126546095548        3.33065285003224       -1.03337650549132
C           -0.87914466574829        2.02806001879909       -0.56275745128142
C            0.10968104950355        1.01846769306963       -0.24275040146760
C           -0.65024224818511       -0.03352935486653        0.21494894925781
C            7.19204902281626       -1.82499464523039        0.52611581191656
C            7.66484059942533       -3.09968166116369        0.28199150508779
H            7.44172481049127       -4.89284926137608       -0.86930492583479
H            5.53241607435795       -4.01484475597167       -2.16746184916870
H            4.69301471801262       -1.74320207500511       -1.75135488521300
H            5.19323436018521        1.92931358285126        1.75935449093870
H            6.74632680895992        3.75013612645474        2.31868330822440
H            8.97254573287597        3.85695983477215        1.25410972999502
H            9.62524969571434        2.13025514211728       -0.38670494989461
H            8.06683158710426        0.31929063878841       -0.96402595786944
H            4.52925678000055        2.17225173824676       -0.92244524806872
H            2.12974184936939        2.65438204880364       -1.05141165547552
H            3.69326201679584       -1.62829353364351        0.83036039376138
H            1.50550983260729       -2.37185090369151        1.25416326870876
H           -1.08220168733508       -3.74495024112310        2.02777701776917
H           -3.46907909784220       -4.33776285353749        2.35604010942889
H           -5.23508701834853       -2.88625400051083        1.48046757037107
H           -3.39330626281978       -1.74340739845394       -1.65107646269504
H           -3.21339681460787       -1.07396985674489       -3.99252165360410
H           -4.64051969646624        0.73151862237438       -4.89395098519727
H           -6.25540486105856        1.86115459278644       -3.40179959673391
H           -6.41660636170238        1.22856721781332       -1.04660356954837
H           -5.08563213579895        0.01916436385079        2.71966071851540
H           -7.11995811091159        0.25867669974602        4.08487033660368
H           -9.34259376036190       -0.11197642911845        3.07285425967769
H           -9.51115377382642       -0.74843299635812        0.69347348065321
H           -7.48089574944068       -1.00680467237087       -0.66692592506335
H           -4.25717766366444        1.90380563430150        0.02662034826961
H           -4.05581915134209        4.19501700778270       -0.83424554546275
H           -1.88154001013543        5.09877752218983       -1.51890344130415
H            0.16574393684263        3.75683243648939       -1.29257111060146
H            7.65059315414911       -1.21060096656659        1.28717728438551
H            8.49789233984606       -3.47682179988711        0.85701655719545

          :  Hamiltonian                  GFN2-xTB          :
         :: gradient norm              0.000058573614 Eh/a0 ::
         :: HOMO-LUMO gap              1.896509996090 eV    ::
         :: SCC energy              -125.468706099962 Eh    ::
         :: -> dispersion             -0.119672301919 Eh    ::
         :: repulsion energy           2.331271712157 Eh    ::

    * Orbital Energies and Occupations

         #    Occupation            Energy/Eh            Energy/eV
      -------------------------------------------------------------
         1        2.0000           -0.6843929             -18.6233
       ...           ...                  ...                  ...
       103        2.0000           -0.4105647             -11.1720
       104        2.0000           -0.4070022             -11.0751
       105        2.0000           -0.4054461             -11.0327
       106        2.0000           -0.4052347             -11.0270
       107        2.0000           -0.4039956             -10.9933
       108        2.0000           -0.4032786             -10.9738
       109        2.0000           -0.4020586             -10.9406
       110        2.0000           -0.4001790             -10.8894
       111        2.0000           -0.3880198             -10.5586
       112        2.0000           -0.3770903             -10.2611
       113        2.0000           -0.3684756             -10.0267
       114        2.0000           -0.3499416              -9.5224
       115        2.0000           -0.3436684              -9.3517 (HOMO)
       116                         -0.2739729              -7.4552 (LUMO)
       117                         -0.2382957              -6.4844
       118                         -0.2329665              -6.3393
       119                         -0.2290790              -6.2336
       120                         -0.2280744              -6.2062
       121                         -0.2254524              -6.1349
       122                         -0.2246621              -6.1134
       123                         -0.2233603              -6.0779
       124                         -0.2193389              -5.9685
       125                         -0.2185717              -5.9476
       126                         -0.2120617              -5.7705
       ...                                ...                  ...
       227                          0.7709115              20.9776
      -------------------------------------------------------------
                  HL-Gap            0.0696955 Eh            1.8965 eV

     #   Z          covCN         q      C6AA      α(0)
     1   6 C        2.919    -0.039    28.969     8.826
     2   6 C        2.920    -0.029    28.735     8.791
     3   6 C        2.922    -0.048    29.188     8.860
     4   6 C        2.924     0.065    26.542     8.449
     5   7 N        2.753    -0.076    22.724     7.080
     6   6 C        2.924     0.066    26.533     8.447
     7   6 C        2.922    -0.048    29.193     8.860
     8   6 C        2.919    -0.029    28.736     8.791
     9   6 C        2.919    -0.039    28.967     8.826
    10   6 C        2.920    -0.029    28.737     8.791
    11   6 C        2.922    -0.048    29.192     8.860
    12   6 C        2.919     0.062    26.616     8.460
    13   6 C        2.918    -0.045    29.116     8.848
    14   6 C        2.914    -0.036    28.906     8.816
    15   6 C        2.997     0.005    27.894     8.664
    16   6 C        2.982     0.005    27.910     8.666
    17   6 C        2.927    -0.056    29.399     8.892
    18   6 C        2.937    -0.040    28.983     8.829
    19   6 C        3.017    -0.013    28.321     8.729
    20   6 C        3.103    -0.011    28.166     8.696
    21   6 C        2.911    -0.038    28.940     8.821
    22   6 C        2.918    -0.038    28.948     8.823
    23   6 C        2.926    -0.048    29.201     8.862
    24   6 C        2.919     0.051    26.848     8.497
    25   7 N        2.750    -0.083    22.861     7.101
    26   6 C        2.919     0.067    26.502     8.442
    27   6 C        2.923    -0.052    29.289     8.875
    28   6 C        2.920    -0.029    28.722     8.789
    29   6 C        2.919    -0.040    29.004     8.832
    30   6 C        2.920    -0.030    28.738     8.791
    31   6 C        2.923    -0.050    29.230     8.866
    32   6 C        2.926     0.065    26.535     8.448
    33   6 C        2.924    -0.047    29.169     8.857
    34   6 C        2.919    -0.029    28.723     8.789
    35   6 C        2.919    -0.038    28.940     8.822
    36   6 C        2.920    -0.029    28.735     8.790
    37   6 C        2.921    -0.048    29.183     8.859
    38   6 C        3.075     0.039    27.052     8.528
    39   7 N        2.830    -0.031    21.842     6.941
    40   6 C        3.090     0.049    26.807     8.487
    41   6 C        2.909    -0.047    29.170     8.856
    42   6 C        2.924    -0.033    28.821     8.804
    43   6 C        2.919    -0.039    28.958     8.824
    44   6 C        2.912    -0.033    28.820     8.803
    45   6 C        3.120    -0.011    28.113     8.684
    46   6 C        3.021    -0.027    28.644     8.779
    47   6 C        3.451     0.034    22.401     7.157
    48   6 C        2.922    -0.048    29.193     8.860
    49   6 C        2.920    -0.030    28.737     8.791
    50   1 H        0.926     0.029     2.597     2.520
    51   1 H        0.926     0.031     2.576     2.510
    52   1 H        0.926     0.031     2.566     2.505
    53   1 H        0.926     0.031     2.572     2.508
    54   1 H        0.926     0.031     2.578     2.511
    55   1 H        0.926     0.029     2.597     2.520
    56   1 H        0.926     0.031     2.577     2.511
    57   1 H        0.926     0.031     2.569     2.506
    58   1 H        0.926     0.033     2.539     2.492
    59   1 H        0.926     0.037     2.492     2.469
    60   1 H        0.926     0.032     2.561     2.502
    61   1 H        0.926     0.034     2.534     2.489
    62   1 H        0.926     0.038     2.475     2.460
    63   1 H        0.926     0.035     2.516     2.480
    64   1 H        0.926     0.035     2.511     2.478
    65   1 H        0.926     0.025     2.664     2.552
    66   1 H        0.926     0.028     2.608     2.526
    67   1 H        0.926     0.028     2.616     2.529
    68   1 H        0.926     0.029     2.594     2.518
    69   1 H        0.926     0.030     2.591     2.517
    70   1 H        0.926     0.030     2.593     2.518
    71   1 H        0.926     0.032     2.562     2.503
    72   1 H        0.926     0.030     2.580     2.512
    73   1 H        0.926     0.032     2.564     2.504
    74   1 H        0.926     0.034     2.532     2.488
    75   1 H        0.926     0.037     2.484     2.465
    76   1 H        0.926     0.031     2.574     2.509
    77   1 H        0.926     0.030     2.588     2.516
    78   1 H        0.926     0.032     2.563     2.504
    79   1 H        0.926     0.031     2.569     2.507
    80   1 H        0.926     0.031     2.577     2.511

molecular dipole:
                 x           y           z       tot (Debye)
 q only:       -0.090      -0.089       0.168
   full:       -0.203      -0.144       0.175       0.774

 projected vibrational frequencies (cm⁻¹)
eigval :       -0.00    -0.00    -0.00    -0.00    -0.00     0.00
eigval :       10.42    14.47    20.55    22.56    32.51    39.36
eigval :       50.64    51.69    56.56    62.20    70.83    76.75
eigval :       85.40    95.46   101.86   111.29   112.84   141.35
eigval :      150.08   154.71   185.94   204.67   218.42   232.53
eigval :      235.30   244.58   250.82   261.68   275.68   288.30
eigval :      291.94   313.97   321.22   331.26   367.90   376.92
eigval :      377.48   378.41   383.79   387.21   390.64   405.94
eigval :      410.61   418.90   437.39   446.14   454.57   478.65
eigval :      489.11   490.49   493.85   498.83   514.61   543.59
eigval :      553.47   564.84   570.80   582.76   584.53   588.91
eigval :      589.58   591.14   595.36   600.25   611.54   623.21
eigval :      634.38   655.08   657.12   660.04   665.19   667.51
eigval :      671.07   683.34   694.09   701.99   703.77   718.20
eigval :      720.27   754.60   756.71   759.39   759.72   771.88
eigval :      795.81   798.25   813.20   838.91   847.42   849.16
eigval :      866.63   872.41   873.51   875.05   876.37   877.25
eigval :      883.38   889.26   891.09   893.36   897.52   900.79
eigval :      907.84   909.18   913.67   914.67   915.87   920.71
eigval :      925.80   926.80   927.24   928.21   928.54   928.76
eigval :      929.35   929.93   939.12   970.65   975.36  1001.80
eigval :     1003.84  1006.94  1024.79  1076.13  1082.93  1083.31
eigval :     1084.28  1084.41  1089.15  1102.17  1116.39  1121.85
eigval :     1122.26  1124.54  1131.22  1150.53  1160.82  1168.61
eigval :     1180.32  1180.77  1180.81  1180.90  1181.79  1186.47
eigval :     1194.00  1195.39  1196.16  1200.86  1208.78  1214.62
eigval :     1224.59  1231.93  1246.25  1269.99  1277.43  1278.59
eigval :     1279.75  1282.91  1289.86  1303.31  1310.60  1318.61
eigval :     1321.26  1322.27  1324.35  1325.32  1327.87  1331.18
eigval :     1349.57  1356.57  1356.62  1374.04  1396.15  1406.68
eigval :     1417.39  1432.60  1435.65  1442.67  1443.55  1445.76
eigval :     1457.16  1472.15  1473.67  1477.34  1478.81  1481.75
eigval :     1487.74  1520.07  1565.44  1575.51  1576.18  1576.71
eigval :     1580.91  1582.12  1585.45  1594.73  1595.35  1596.44
eigval :     1599.10  1602.29  1604.24  1607.85  1637.35  3074.41
eigval :     3074.77  3075.03  3075.23  3075.41  3076.07  3076.18
eigval :     3076.59  3076.71  3078.74  3083.62  3084.18  3084.71
eigval :     3085.12  3085.35  3085.63  3086.54  3088.20  3088.51
eigval :     3089.22  3089.36  3089.97  3092.76  3096.25  3096.63
eigval :     3097.10  3097.52  3098.36  3102.70  3103.66  3133.15

   temp. (K)  partition function   enthalpy   heat capacity  entropy
                                   cal/mol     cal/K/mol   cal/K/mol   J/K/mol
 298.15  VIB  0.587E+17            22027.448    142.485    136.246
         ROT  0.838E+08              888.752      2.981     39.237
         INT  0.492E+25            22916.200    145.466    175.484
         TR   0.151E+29             1481.254      4.968     45.164
         TOT                       24397.4542   150.4344   220.6474   923.1887

       T/K    H(0)-H(T)+PV         H(T)/Eh          T*S/Eh         G(T)/Eh
   ------------------------------------------------------------------------
    298.15    0.388798E-01    0.657382E+00    0.104837E+00    0.552545E+00
   ------------------------------------------------------------------------

         :::::::::::::::::::::::::::::::::::::::::::::::::::::
         ::                  THERMODYNAMIC                  ::
         :::::::::::::::::::::::::::::::::::::::::::::::::::::
         :: total free energy        -122.584889533326 Eh   ::
         ::.................................................::
         :: total energy             -123.137434387803 Eh   ::
         :: zero point energy           0.618501735513 Eh   ::
         :: G(RRHO) w/o ZPVE           -0.065956881035 Eh   ::
         :: G(RRHO) contrib.            0.552544854477 Eh   ::
         :::::::::::::::::::::::::::::::::::::::::::::::::::::

           -------------------------------------------------
          | TOTAL ENERGY             -123.137434387803 Eh   |
          | TOTAL ENTHALPY           -122.480052834229 Eh   |
          | TOTAL FREE ENERGY        -122.584889533326 Eh   |
          | GRADIENT NORM               0.000058533637 Eh/α |
          | HOMO-LUMO GAP               1.896510728831 eV   |
           -------------------------------------------------

 * finished run on 2025/09/04 at 11:29:05.413
