   * xtb version 6.7.1 (edcfbbe) compiled by 'albert@albert-system' on 2024-07-22

   ID    Z sym.   atoms
    1    6 C      1-9, 11-16, 18, 20-22, 24
    2    7 N      10, 17, 19, 23
    3    1 H      25-38

          program call               : xtb data2507/toluene/czpzpy/czpzpy.xyz --gfn 2 --gbsa toluene --ohess vtight --parallel 40 --molden --ceasefiles --namespace data2507/toluene/czpzpy/czpzpy_toluene_S0_preOpt
      * Solvation model:               GBSA
        Solvent                        toluene
        Solvent mass                       9.2140E+01 g/mol
          :  Hamiltonian                  GFN2-xTB          :
 * total energy  :   -61.6878106 Eh     change       -0.5367369E-09 Eh
 * total energy  :   -61.6965039 Eh     change       -0.8693373E-02 Eh
 * total energy  :   -61.6984278 Eh     change       -0.1923854E-02 Eh
 * total energy  :   -61.6987000 Eh     change       -0.2721736E-03 Eh
 * total energy  :   -61.6989108 Eh     change       -0.2108467E-03 Eh
 * total energy  :   -61.6989812 Eh     change       -0.7036975E-04 Eh
 * total energy  :   -61.6990446 Eh     change       -0.6344761E-04 Eh
 * total energy  :   -61.6990908 Eh     change       -0.4618961E-04 Eh
 * total energy  :   -61.6991178 Eh     change       -0.2695227E-04 Eh
 * total energy  :   -61.6991794 Eh     change       -0.6158945E-04 Eh
 * total energy  :   -61.6998455 Eh     change       -0.2822860E-06 Eh
 * total energy  :   -61.6998460 Eh     change       -0.4364771E-06 Eh
 * total energy  :   -61.6998463 Eh     change       -0.3620589E-06 Eh
 * total energy  :   -61.6998466 Eh     change       -0.2691214E-06 Eh
 * total energy  :   -61.6998469 Eh     change       -0.2691865E-06 Eh
 * total energy  :   -61.6998472 Eh     change       -0.3545754E-06 Eh
 * total energy  :   -61.6998476 Eh     change       -0.3825022E-06 Eh
 * total energy  :   -61.6998478 Eh     change       -0.2284581E-06 Eh
 * total energy  :   -61.6998479 Eh     change       -0.9254798E-07 Eh
   *** GEOMETRY OPTIMIZATION CONVERGED AFTER 52 ITERATIONS ***

 final structure:
================
38
 xtb: 6.7.1 (edcfbbe)
C            2.01387138687523        2.21164447038776        1.34749945548486
C            0.87738373268139        1.42981647230951        1.22956304610417
C            0.97687857798686        0.19247311221074        0.58545623011686
C           -0.16928871690422       -0.70898189980066        0.42759806000463
C            0.02699436303284       -2.08576061778567        0.51207425212375
C           -1.02519916611883       -2.98670884262430        0.41667193151767
C           -2.32120125477589       -2.54979309898118        0.21271211541974
C           -2.54933052157726       -1.18601013839959        0.08777462385484
C           -1.47487919460742       -0.26824651056810        0.19309980448406
N           -1.96067216393388        1.00016772181359       -0.00253959648166
C           -3.31198871016624        0.94075124374597       -0.24190052713118
C           -4.20919969747214        1.96631024729265       -0.49850947537384
C           -5.53469273619511        1.62527765245292       -0.69217290354670
C           -5.95844456297346        0.29872336819025       -0.63205724860395
C           -5.06730545387297       -0.72555949378658       -0.37755909046084
C           -3.72924086737757       -0.40832974799509       -0.17865197297234
N            2.13833578802652       -0.25068097662899        0.11321170198147
C            3.22057960691497        0.49500856326467        0.23261916562164
N            4.39819542109218       -0.05606055708480       -0.27886268586784
C            5.53521596446930        0.60002321344522       -0.63674045939198
C            6.41663928751755       -0.34509852215996       -1.08965734382138
C            5.72013424689466       -1.56263887426944       -0.96420264813765
N            4.51494228317739       -1.37179053239334       -0.48335537550172
C            3.21620480066589        1.75435655599704        0.83600146012127
H            1.96860810195877        3.16830979649990        1.84760018626290
H           -0.05392282742832        1.74864057453887        1.67019645055248
H            1.03442345491575       -2.44053107858705        0.66525107224018
H           -0.82233450652186       -4.04375023999389        0.50334929613470
H           -3.13945510026862       -3.25015145945958        0.14062983628005
H           -1.40009032119813        1.83156578074961       -0.08174365595231
H           -3.88340054170190        2.99504676301809       -0.54670908149900
H           -6.25773943044753        2.40201861342934       -0.89446396828922
H           -7.00312516896758        0.07280137728105       -0.78850848022644
H           -5.40075256843692       -1.75144228311573       -0.33292194168553
H            5.62983881053911        1.66448093313227       -0.57245851588966
H            7.41080665079144       -0.19349484996194       -1.45724902276445
H            6.05758206174642       -2.55202550540138       -1.20340071488857
H            4.11563097165640        2.33963976923385        0.93235702017911

          :  Hamiltonian                  GFN2-xTB          :
         :: gradient norm              0.000098350476 Eh/a0 ::
         :: HOMO-LUMO gap              2.761050635631 eV    ::
         :: SCC energy               -62.783164447274 Eh    ::
         :: -> dispersion             -0.045716260946 Eh    ::
         :: -> Gsolv                  -0.026623752598 Eh    ::
         :: repulsion energy           1.083316524426 Eh    ::

    * Orbital Energies and Occupations

         #    Occupation            Energy/Eh            Energy/eV
      -------------------------------------------------------------
         1        2.0000           -0.6952325             -18.9182
       ...           ...                  ...                  ...
        45        2.0000           -0.4437882             -12.0761
        46        2.0000           -0.4371296             -11.8949
        47        2.0000           -0.4335746             -11.7982
        48        2.0000           -0.4211336             -11.4596
        49        2.0000           -0.4195498             -11.4165
        50        2.0000           -0.4184645             -11.3870
        51        2.0000           -0.4088241             -11.1247
        52        2.0000           -0.4063337             -11.0569
        53        2.0000           -0.3966485             -10.7934
        54        2.0000           -0.3909794             -10.6391
        55        2.0000           -0.3788864             -10.3100
        56        2.0000           -0.3759681             -10.2306
        57        2.0000           -0.3675113             -10.0005 (HOMO)
        58                         -0.2660446              -7.2394 (LUMO)
        59                         -0.2627975              -7.1511
        60                         -0.2396459              -6.5211
        61                         -0.2187480              -5.9524
        62                         -0.2009178              -5.4673
        63                         -0.1926703              -5.2428
        64                         -0.1805709              -4.9136
        65                         -0.1639551              -4.4614
        66                         -0.1144568              -3.1145
        67                         -0.0855752              -2.3286
        68                         -0.0590705              -1.6074
       ...                                ...                  ...
       110                          0.7436434              20.2356
      -------------------------------------------------------------
                  HL-Gap            0.1014668 Eh            2.7611 eV

     #   Z          covCN         q      C6AA      α(0)
     1   6 C        2.927    -0.015    28.392     8.738
     2   6 C        2.916    -0.059    29.466     8.901
     3   6 C        2.956     0.098    25.836     8.337
     4   6 C        2.971    -0.019    28.489     8.755
     5   6 C        2.928    -0.030    28.759     8.795
     6   6 C        2.918    -0.041    29.010     8.832
     7   6 C        2.912    -0.032    28.797     8.800
     8   6 C        3.072    -0.016    28.345     8.729
     9   6 C        3.064     0.051    26.798     8.489
    10   7 N        2.756    -0.122    23.650     7.223
    11   6 C        3.070     0.054    26.729     8.477
    12   6 C        2.909    -0.056    29.381     8.888
    13   6 C        2.924    -0.034    28.846     8.808
    14   6 C        2.920    -0.042    29.054     8.839
    15   6 C        2.912    -0.034    28.840     8.806
    16   6 C        3.068    -0.017    28.352     8.731
    17   7 N        1.856    -0.240    27.113     7.718
    18   6 C        2.896     0.144    24.875     8.177
    19   7 N        3.054     0.088    19.720     6.596
    20   6 C        3.029    -0.017    28.414     8.744
    21   6 C        3.015    -0.068    29.681     8.937
    22   6 C        3.123     0.032    27.114     8.527
    23   7 N        2.005    -0.213    26.414     7.623
    24   6 C        2.915    -0.066    29.642     8.928
    25   1 H        0.926     0.048     2.349     2.397
    26   1 H        0.926     0.044     2.402     2.423
    27   1 H        0.926     0.053     2.284     2.363
    28   1 H        0.926     0.037     2.491     2.468
    29   1 H        0.926     0.039     2.466     2.456
    30   1 H        0.860     0.162     1.321     1.801
    31   1 H        0.926     0.030     2.593     2.518
    32   1 H        0.926     0.032     2.553     2.499
    33   1 H        0.926     0.030     2.583     2.513
    34   1 H        0.926     0.034     2.533     2.489
    35   1 H        0.926     0.040     2.452     2.449
    36   1 H        0.926     0.033     2.544     2.494
    37   1 H        0.926     0.033     2.537     2.491
    38   1 H        0.926     0.043     2.408     2.427

molecular dipole:
                 x           y           z       tot (Debye)
 q only:       -0.416       1.021       0.276
   full:        0.074       1.813       0.341       4.693

 projected vibrational frequencies (cm⁻¹)
eigval :       -0.00    -0.00    -0.00    -0.00     0.00     0.00
eigval :       20.98    41.33    47.32    64.95    91.99   109.50
eigval :      113.19   149.35   188.63   232.76   238.90   256.08
eigval :      279.48   299.19   329.43   367.82   400.54   413.30
eigval :      449.96   456.78   467.80   498.70   532.85   535.42
eigval :      544.87   571.11   586.29   592.50   624.04   629.38
eigval :      652.61   659.01   690.45   709.17   712.07   731.63
eigval :      771.10   778.26   787.06   800.23   815.77   850.14
eigval :      855.11   857.24   862.62   864.42   880.59   882.06
eigval :      892.83   899.42   915.29   920.39   929.41   943.06
eigval :      995.96  1032.43  1060.17  1066.36  1073.15  1099.93
eigval :     1118.50  1125.18  1140.56  1151.26  1159.86  1165.11
eigval :     1174.07  1178.97  1193.88  1228.80  1262.32  1274.33
eigval :     1291.43  1301.18  1309.59  1323.49  1339.82  1354.30
eigval :     1370.22  1381.78  1399.62  1403.84  1422.93  1430.43
eigval :     1444.87  1485.38  1487.71  1534.98  1552.12  1564.44
eigval :     1576.41  1583.99  1597.03  1613.19  3070.73  3075.36
eigval :     3075.46  3079.87  3083.00  3090.53  3092.76  3098.22
eigval :     3105.03  3108.16  3164.08  3173.41  3186.74  3479.91

   temp. (K)  partition function   enthalpy   heat capacity  entropy
                                   cal/mol     cal/K/mol   cal/K/mol   J/K/mol
 298.15  VIB  0.294E+07             9579.255     65.429     57.565
         ROT  0.994E+07              888.752      2.981     35.000
         INT  0.292E+14            10468.007     68.410     92.565
         TR   0.529E+28             1481.254      4.968     43.074
         TOT                       11949.2611    73.3778   135.6389   567.5130

       T/K    H(0)-H(T)+PV         H(T)/Eh          T*S/Eh         G(T)/Eh
   ------------------------------------------------------------------------
    298.15    0.190424E-01    0.305971E+00    0.644464E-01    0.241525E+00
   ------------------------------------------------------------------------

         :::::::::::::::::::::::::::::::::::::::::::::::::::::
         ::                  THERMODYNAMIC                  ::
         :::::::::::::::::::::::::::::::::::::::::::::::::::::
         :: total free energy         -61.458323015817 Eh   ::
         ::.................................................::
         :: total energy              -61.699847920345 Eh   ::
         :: zero point energy           0.286928941292 Eh   ::
         :: G(RRHO) w/o ZPVE           -0.045404036765 Eh   ::
         :: G(RRHO) contrib.            0.241524904527 Eh   ::
         :::::::::::::::::::::::::::::::::::::::::::::::::::::

           -------------------------------------------------
          | TOTAL ENERGY              -61.699847920345 Eh   |
          | TOTAL ENTHALPY            -61.393876619391 Eh   |
          | TOTAL FREE ENERGY         -61.458323015817 Eh   |
          | GRADIENT NORM               0.000098336371 Eh/α |
          | HOMO-LUMO GAP               2.761050989523 eV   |
           -------------------------------------------------

 * finished run on 2025/09/12 at 08:47:10.166
