   * xtb version 6.7.1 (edcfbbe) compiled by 'albert@albert-system' on 2024-07-22

   ID    Z sym.   atoms
    1    6 C      1-9, 11-16, 18, 20-22, 24
    2    7 N      10, 17, 19, 23
    3    1 H      25-38

          program call               : xtb data2507/toluene/czpzpy/czpzpy_toluene_S0_finalOpt.xtbopt.xyz --gfn 2 --uhf 2 --gbsa toluene --ohess vtight --parallel 40 --molden --ceasefiles --namespace data2507/toluene/czpzpy/czpzpy_toluene_T1_preOpt
      * Solvation model:               GBSA
        Solvent                        toluene
        Solvent mass                       9.2140E+01 g/mol
          :  Hamiltonian                  GFN2-xTB          :
 * total energy  :   -61.6075140 Eh     change       -0.1548599E-08 Eh
 * total energy  :   -61.6131493 Eh     change       -0.5635300E-02 Eh
 * total energy  :   -61.6153315 Eh     change       -0.2182225E-02 Eh
 * total energy  :   -61.6155491 Eh     change       -0.2175553E-03 Eh
 * total energy  :   -61.6158192 Eh     change       -0.2701489E-03 Eh
 * total energy  :   -61.6159304 Eh     change       -0.1111831E-03 Eh
 * total energy  :   -61.6160356 Eh     change       -0.1052530E-03 Eh
 * total energy  :   -61.6160963 Eh     change       -0.6066536E-04 Eh
 * total energy  :   -61.6161467 Eh     change       -0.5038281E-04 Eh
 * total energy  :   -61.6161770 Eh     change       -0.3029000E-04 Eh
 * total energy  :   -61.6166409 Eh     change       -0.1045585E-05 Eh
 * total energy  :   -61.6166419 Eh     change       -0.9644982E-06 Eh
 * total energy  :   -61.6166428 Eh     change       -0.8927892E-06 Eh
 * total energy  :   -61.6166436 Eh     change       -0.8278516E-06 Eh
 * total energy  :   -61.6166444 Eh     change       -0.7693455E-06 Eh
 * total energy  :   -61.6166451 Eh     change       -0.7156529E-06 Eh
 * total energy  :   -61.6166457 Eh     change       -0.6617951E-06 Eh
 * total energy  :   -61.6166464 Eh     change       -0.6074807E-06 Eh
 * total energy  :   -61.6166464 Eh     change       -0.5761919E-08 Eh
   *** GEOMETRY OPTIMIZATION CONVERGED AFTER 68 ITERATIONS ***

 final structure:
================
38
 xtb: 6.7.1 (edcfbbe)
C            3.15806469610409        2.68799876255657       -0.26999427397281
C            1.81270475624636        2.90648099471364       -0.16741280099613
C            0.90882192668404        1.80404214869243       -0.02757184681444
C           -0.48755068838569        1.95321704180177        0.01894121370657
C           -1.18222929344679        3.21674241745962        0.10515102799505
C           -2.54428811266022        3.29214073251539        0.18215598104196
C           -3.38266182526136        2.15553714725903        0.16611131902215
C           -2.76404516971139        0.90703733645797        0.06924049091826
C           -1.36440340368816        0.82348046804949       -0.00636280785403
N           -0.99109245765450       -0.47799041888976       -0.12800180063092
C           -2.08875716520329       -1.27864481942192       -0.11773283216868
C           -2.19174904497408       -2.66321926558523       -0.21394172308258
C           -3.45634794787678       -3.21425813600063       -0.18831776441735
C           -4.59544605011886       -2.40814271084257       -0.07112905705061
C           -4.50379262119961       -1.03100342767102        0.02320779587371
C           -3.24520201873077       -0.44537246155846        0.00138473236737
N            1.41940844313317        0.51904648020811        0.03313156455309
C            2.71600901987342        0.34851186364394       -0.04936393836445
N            3.17175504573253       -0.96795759115169        0.06045148978462
C            2.48783741153776       -2.04091193732398        0.53420844033936
C            3.33459586900920       -3.11602330280249        0.46711993088615
C            4.52590238693564       -2.59247256046613       -0.06951601398350
N            4.41356829339637       -1.30411556330401       -0.30177224689560
C            3.65514931115054        1.37514429343173       -0.21220704002971
H            3.84420108884533        3.51296278165229       -0.39023512460094
H            1.41933039162020        3.90697764873813       -0.22862135536742
H           -0.60658257040259        4.12677099042157        0.13009001651789
H           -3.00775302049337        4.26567833660613        0.25750338954180
H           -4.45345994599507        2.25628735487609        0.21484587106390
H            0.00663195779405       -0.68399455581009       -0.16726216566434
H           -1.31020818402812       -3.27975403628162       -0.30728064546870
H           -3.57375607172368       -4.28461208585398       -0.26035780873308
H           -5.56712853756075       -2.87883509841923       -0.05642385559621
H           -5.39107008622821       -0.42296844333829        0.11018322513377
H            1.48798791509236       -1.94650900270657        0.90464763605844
H            3.13877382674361       -4.12678085118778        0.76005234439849
H            5.44337497855640       -3.10268326546487       -0.28732518780496
H            4.70359151806964        1.14294184843982       -0.26414231317637

          :  Hamiltonian                  GFN2-xTB          :
         :: gradient norm              0.000064057194 Eh/a0 ::
         :: HOMO-LUMO gap              0.517665341442 eV    ::
         :: SCC energy               -62.678768846030 Eh    ::
         :: -> dispersion             -0.046867257391 Eh    ::
         :: -> Gsolv                  -0.026774006680 Eh    ::
         :: repulsion energy           1.062122484291 Eh    ::

    * Orbital Energies and Occupations

         #    Occupation            Energy/Eh            Energy/eV
      -------------------------------------------------------------
         1        2.0000           -0.7035507             -19.1446
       ...           ...                  ...                  ...
        46        2.0000           -0.4403713             -11.9831
        47        2.0000           -0.4376673             -11.9095
        48        2.0000           -0.4319934             -11.7551
        49        2.0000           -0.4281347             -11.6501
        50        2.0000           -0.4267691             -11.6130
        51        2.0000           -0.4170782             -11.3493
        52        2.0000           -0.4127501             -11.2315
        53        2.0000           -0.4048637             -11.0169
        54        2.0000           -0.3984194             -10.8415
        55        2.0000           -0.3880416             -10.5591
        56        1.9993           -0.3853928             -10.4871
        57        1.0008           -0.3717313             -10.1153
        58        1.0000           -0.2799207              -7.6170 (HOMO)
        59        0.0000           -0.2608967              -7.0994 (LUMO)
        60                         -0.2460598              -6.6956
        61                         -0.2239011              -6.0927
        62                         -0.2077930              -5.6543
        63                         -0.1981490              -5.3919
        64                         -0.1822088              -4.9582
        65                         -0.1718412              -4.6760
        66                         -0.1189922              -3.2379
        67                         -0.0904451              -2.4611
        68                         -0.0653238              -1.7776
        69                          0.0015447               0.0420
       ...                                ...                  ...
       110                          0.7284884              19.8232
      -------------------------------------------------------------
                  HL-Gap            0.0190239 Eh            0.5177 eV

     #   Z          covCN         q      C6AA      α(0)
     1   6 C        2.916    -0.025    28.627     8.774
     2   6 C        2.912    -0.043    29.072     8.841
     3   6 C        2.932     0.061    26.629     8.463
     4   6 C        2.963    -0.007    28.192     8.709
     5   6 C        2.913    -0.058    29.450     8.899
     6   6 C        2.910    -0.028    28.689     8.783
     7   6 C        2.908    -0.047    29.177     8.857
     8   6 C        3.059    -0.022    28.485     8.752
     9   6 C        3.092     0.049    26.806     8.486
    10   7 N        2.764    -0.097    23.143     7.145
    11   6 C        3.075     0.053    26.732     8.477
    12   6 C        2.907    -0.045    29.123     8.849
    13   6 C        2.921    -0.035    28.883     8.813
    14   6 C        2.919    -0.029    28.716     8.788
    15   6 C        2.909    -0.032    28.789     8.798
    16   6 C        3.084    -0.010    28.175     8.701
    17   7 N        1.848    -0.315    29.028     7.985
    18   6 C        2.876     0.150    24.734     8.153
    19   7 N        3.057     0.085    19.767     6.603
    20   6 C        3.028    -0.012    28.273     8.722
    21   6 C        3.017    -0.069    29.703     8.940
    22   6 C        3.122     0.034    27.054     8.518
    23   7 N        2.005    -0.238    27.016     7.709
    24   6 C        2.915    -0.069    29.723     8.940
    25   1 H        0.926     0.039     2.455     2.450
    26   1 H        0.926     0.043     2.405     2.425
    27   1 H        0.926     0.034     2.531     2.488
    28   1 H        0.926     0.039     2.459     2.452
    29   1 H        0.926     0.038     2.471     2.458
    30   1 H        0.860     0.213     1.043     1.600
    31   1 H        0.926     0.038     2.471     2.458
    32   1 H        0.926     0.045     2.387     2.416
    33   1 H        0.926     0.046     2.367     2.406
    34   1 H        0.926     0.046     2.374     2.409
    35   1 H        0.926     0.041     2.429     2.437
    36   1 H        0.926     0.039     2.468     2.457
    37   1 H        0.926     0.037     2.495     2.470
    38   1 H        0.926     0.051     2.309     2.376

molecular dipole:
                 x           y           z       tot (Debye)
 q only:       -1.240      -0.327       0.060
   full:       -0.952      -0.362       0.150       2.617

 projected vibrational frequencies (cm⁻¹)
eigval :       -0.00    -0.00     0.00     0.00     0.00     0.00
eigval :       35.60    45.20    50.68    68.77   100.96   111.52
eigval :      116.12   130.24   173.27   214.54   243.02   261.59
eigval :      279.11   291.65   297.92   367.36   369.12   399.39
eigval :      433.59   439.23   481.73   498.94   512.83   527.82
eigval :      545.07   560.20   576.27   597.43   612.90   628.14
eigval :      637.19   656.71   668.58   685.55   708.56   720.61
eigval :      724.89   737.11   759.58   777.34   787.87   791.93
eigval :      826.34   834.32   837.99   854.29   858.84   859.43
eigval :      881.03   890.21   894.22   895.40   910.54   931.76
eigval :      968.49   988.14  1034.41  1050.42  1053.70  1061.13
eigval :     1068.54  1093.53  1101.84  1126.02  1130.20  1151.35
eigval :     1158.58  1174.81  1192.05  1206.93  1224.28  1248.30
eigval :     1270.94  1296.49  1302.65  1320.75  1327.53  1353.63
eigval :     1358.84  1367.18  1375.73  1393.21  1396.52  1416.41
eigval :     1429.51  1438.67  1462.10  1476.25  1481.69  1514.17
eigval :     1533.54  1550.46  1555.12  1572.08  3072.44  3080.54
eigval :     3080.76  3084.25  3093.42  3100.74  3108.28  3115.10
eigval :     3118.39  3137.52  3167.88  3177.39  3190.42  3207.58

   temp. (K)  partition function   enthalpy   heat capacity  entropy
                                   cal/mol     cal/K/mol   cal/K/mol   J/K/mol
 298.15  VIB  0.193E+07             9798.031     67.595     58.630
         ROT  0.956E+07              888.752      2.981     34.922
         INT  0.185E+14            10686.784     70.576     93.552
         TR   0.529E+28             1481.254      4.968     43.074
         TOT                       12168.0376    75.5437   136.6259   571.6429

       T/K    H(0)-H(T)+PV         H(T)/Eh          T*S/Eh         G(T)/Eh
   ------------------------------------------------------------------------
    298.15    0.193910E-01    0.302024E+00    0.649154E-01    0.237108E+00
   ------------------------------------------------------------------------

         :::::::::::::::::::::::::::::::::::::::::::::::::::::
         ::                  THERMODYNAMIC                  ::
         :::::::::::::::::::::::::::::::::::::::::::::::::::::
         :: total free energy         -61.379538050671 Eh   ::
         ::.................................................::
         :: total energy              -61.616646362164 Eh   ::
         :: zero point energy           0.282632702111 Eh   ::
         :: G(RRHO) w/o ZPVE           -0.045524390617 Eh   ::
         :: G(RRHO) contrib.            0.237108311493 Eh   ::
         :::::::::::::::::::::::::::::::::::::::::::::::::::::

           -------------------------------------------------
          | TOTAL ENERGY              -61.616646362164 Eh   |
          | TOTAL ENTHALPY            -61.314622657926 Eh   |
          | TOTAL FREE ENERGY         -61.379538050671 Eh   |
          | GRADIENT NORM               0.000064060448 Eh/α |
          | HOMO-LUMO GAP               0.517666970190 eV   |
           -------------------------------------------------

 * finished run on 2025/09/12 at 08:48:16.314
