   * xtb version 6.7.1 (edcfbbe) compiled by 'albert@albert-system' on 2024-07-22

   ID    Z sym.   atoms
    1    6 C      1-9, 11-16, 18, 20-22, 24
    2    7 N      10, 17, 19, 23
    3    1 H      25-38

          program call               : xtb data2507/toluene/czpzpy/czpzpy_toluene_S0_crest.xyz --gfn 2 --gbsa toluene --ohess vtight --parallel 40 --molden --ceasefiles --namespace data2507/toluene/czpzpy/czpzpy_toluene_S0_finalOpt
      * Solvation model:               GBSA
        Solvent                        toluene
        Solvent mass                       9.2140E+01 g/mol
          :  Hamiltonian                  GFN2-xTB          :
 * total energy  :   -61.7126682 Eh     change       -0.3817320E-09 Eh
 * total energy  :   -61.7126843 Eh     change       -0.1610024E-04 Eh
 * total energy  :   -61.7126903 Eh     change       -0.6062724E-05 Eh
 * total energy  :   -61.7126935 Eh     change       -0.3192968E-05 Eh
 * total energy  :   -61.7126978 Eh     change       -0.4289063E-05 Eh
 * total energy  :   -61.7126970 Eh     change        0.7995670E-06 Eh
 * total energy  :   -61.7126997 Eh     change       -0.2652741E-05 Eh
 * total energy  :   -61.7127011 Eh     change       -0.1449076E-05 Eh
 * total energy  :   -61.7127029 Eh     change       -0.1774052E-05 Eh
 * total energy  :   -61.7127045 Eh     change       -0.1629195E-05 Eh
 * total energy  :   -61.7127078 Eh     change       -0.6331711E-06 Eh
 * total energy  :   -61.7127085 Eh     change       -0.6459633E-06 Eh
 * total energy  :   -61.7127089 Eh     change       -0.4831538E-06 Eh
 * total energy  :   -61.7127093 Eh     change       -0.3157880E-06 Eh
 * total energy  :   -61.7127095 Eh     change       -0.1905379E-06 Eh
 * total energy  :   -61.7127096 Eh     change       -0.1803208E-06 Eh
 * total energy  :   -61.7127098 Eh     change       -0.1895020E-06 Eh
 * total energy  :   -61.7127101 Eh     change       -0.2308975E-06 Eh
 * total energy  :   -61.7127101 Eh     change       -0.2998512E-08 Eh
   *** GEOMETRY OPTIMIZATION CONVERGED AFTER 22 ITERATIONS ***

 final structure:
================
38
 xtb: 6.7.1 (edcfbbe)
C            3.12293904686742        2.65109064635720       -0.59543286203706
C            1.76428650075620        2.85415223792676       -0.42482488553648
C            0.94881119447881        1.77343571507592       -0.07529229839730
C           -0.49811037476735        1.90428676168283        0.10291544745123
C           -1.12403802778794        3.12409265101968        0.35920350465383
C           -2.50124144858959        3.22870852849758        0.50844273141283
C           -3.32607392955030        2.12249741618627        0.40349890687168
C           -2.74341859455435        0.88779488032079        0.15668827310158
C           -1.33689467410026        0.78538994346427        0.02168103102376
N           -1.00496000621483       -0.51599921310443       -0.21219450033486
C           -2.14177334626056       -1.28209068349153       -0.23347521103226
C           -2.28833909829078       -2.64684006839971       -0.43326922747294
C           -3.56922272628770       -3.16555233735881       -0.40539070747121
C           -4.67814921478149       -2.35035514997624       -0.18357196638095
C           -4.53774912016353       -0.99099549747613        0.01691161375549
C           -3.26056127356118       -0.44435162042743       -0.00635212815793
N            1.46395293184245        0.54878216201353        0.08556520103182
C            2.76644892128415        0.37004455487829       -0.06622736797126
N            3.23214980971111       -0.92788868782861        0.13553520872507
C            2.55016389524947       -1.97263228184574        0.67308635464209
C            3.40378675397377       -3.04391279692675        0.67812285332031
C            4.59558466062932       -2.54886931912446        0.11610986460235
N            4.47843393834916       -1.27910452244701       -0.20009433924594
C            3.65386006744797        1.38654389777518       -0.40947724261444
H            3.76570118391106        3.47326302923705       -0.87297705752567
H            1.33808108304724        3.83038121507570       -0.58387582385510
H           -0.52625348356829        4.01569468461640        0.46792267553177
H           -2.93212627538760        4.19786363210103        0.71151189620475
H           -4.39546634496645        2.21587591230724        0.51498452871808
H           -0.04575291024916       -0.80669942881887       -0.31508128103923
H           -1.43075893765123       -3.28015189468751       -0.60737653126889
H           -3.71524539457274       -4.22473291722784       -0.55895455652219
H           -5.66248542804373       -2.79461217877175       -0.16953558233110
H           -5.40003225505650       -0.36440516536402        0.18843152502755
H            1.54521584223564       -1.85893385776706        1.02389584449887
H            3.21146624795220       -4.03578703342806        1.03159021750024
H            5.51678582474056       -3.06731123405523       -0.06319188735704
H            4.70117427612894        1.16605019799158       -0.52606787632142

          :  Hamiltonian                  GFN2-xTB          :
         :: gradient norm              0.000040738769 Eh/a0 ::
         :: HOMO-LUMO gap              2.583025252238 eV    ::
         :: SCC energy               -62.795635571687 Eh    ::
         :: -> dispersion             -0.046722360823 Eh    ::
         :: -> Gsolv                  -0.026068280726 Eh    ::
         :: repulsion energy           1.082925513357 Eh    ::

    * Orbital Energies and Occupations

         #    Occupation            Energy/Eh            Energy/eV
      -------------------------------------------------------------
         1        2.0000           -0.7042911             -19.1647
       ...           ...                  ...                  ...
        45        2.0000           -0.4491675             -12.2225
        46        2.0000           -0.4423908             -12.0381
        47        2.0000           -0.4385816             -11.9344
        48        2.0000           -0.4273689             -11.6293
        49        2.0000           -0.4240388             -11.5387
        50        2.0000           -0.4216364             -11.4733
        51        2.0000           -0.4168567             -11.3432
        52        2.0000           -0.4110823             -11.1861
        53        2.0000           -0.4060293             -11.0486
        54        2.0000           -0.3996082             -10.8739
        55        2.0000           -0.3905186             -10.6266
        56        2.0000           -0.3827731             -10.4158
        57        2.0000           -0.3694267             -10.0526 (HOMO)
        58                         -0.2745023              -7.4696 (LUMO)
        59                         -0.2690022              -7.3199
        60                         -0.2414972              -6.5715
        61                         -0.2212078              -6.0194
        62                         -0.2046528              -5.5689
        63                         -0.1959903              -5.3332
        64                         -0.1818940              -4.9496
        65                         -0.1713175              -4.6618
        66                         -0.1174657              -3.1964
        67                         -0.0845966              -2.3020
        68                         -0.0607001              -1.6517
       ...                                ...                  ...
       110                          0.7408300              20.1590
      -------------------------------------------------------------
                  HL-Gap            0.0949244 Eh            2.5830 eV

     #   Z          covCN         q      C6AA      α(0)
     1   6 C        2.927    -0.012    28.317     8.727
     2   6 C        2.916    -0.053    29.304     8.877
     3   6 C        2.950     0.096    25.859     8.340
     4   6 C        2.968    -0.024    28.609     8.773
     5   6 C        2.926    -0.039    28.977     8.828
     6   6 C        2.918    -0.043    29.074     8.842
     7   6 C        2.911    -0.032    28.793     8.799
     8   6 C        3.070    -0.019    28.397     8.738
     9   6 C        3.081     0.058    26.616     8.458
    10   7 N        2.758    -0.130    23.808     7.247
    11   6 C        3.076     0.054    26.702     8.472
    12   6 C        2.909    -0.056    29.403     8.892
    13   6 C        2.924    -0.034    28.844     8.807
    14   6 C        2.920    -0.043    29.061     8.840
    15   6 C        2.912    -0.034    28.848     8.807
    16   6 C        3.073    -0.018    28.392     8.737
    17   7 N        1.853    -0.283    28.183     7.868
    18   6 C        2.896     0.143    24.894     8.181
    19   7 N        3.057     0.086    19.746     6.600
    20   6 C        3.026    -0.011    28.263     8.720
    21   6 C        3.017    -0.069    29.690     8.938
    22   6 C        3.121     0.035    27.051     8.518
    23   7 N        2.003    -0.238    27.025     7.710
    24   6 C        2.916    -0.058    29.439     8.897
    25   1 H        0.926     0.053     2.286     2.364
    26   1 H        0.926     0.051     2.302     2.373
    27   1 H        0.926     0.039     2.455     2.450
    28   1 H        0.926     0.038     2.478     2.462
    29   1 H        0.926     0.041     2.440     2.443
    30   1 H        0.860     0.186     1.178     1.700
    31   1 H        0.926     0.028     2.621     2.532
    32   1 H        0.926     0.034     2.524     2.484
    33   1 H        0.926     0.033     2.547     2.496
    34   1 H        0.926     0.036     2.508     2.477
    35   1 H        0.926     0.047     2.356     2.400
    36   1 H        0.926     0.038     2.471     2.458
    37   1 H        0.926     0.037     2.491     2.468
    38   1 H        0.926     0.063     2.167     2.302

molecular dipole:
                 x           y           z       tot (Debye)
 q only:       -0.269       0.449      -0.042
   full:       -0.004       0.409       0.009       1.039

 projected vibrational frequencies (cm⁻¹)
eigval :       -0.00    -0.00    -0.00     0.00     0.00     0.00
eigval :       23.91    44.21    48.12    73.47    97.76   107.47
eigval :      118.59   140.36   199.65   220.22   254.32   274.21
eigval :      285.95   290.44   309.68   371.97   397.96   412.18
eigval :      445.55   476.53   490.82   511.17   534.99   537.35
eigval :      556.74   578.66   586.93   596.36   620.66   622.51
eigval :      649.05   666.36   690.39   701.89   711.42   734.81
eigval :      771.40   786.97   787.54   797.89   809.06   846.84
eigval :      852.14   853.47   865.32   865.71   876.77   882.18
eigval :      884.35   900.03   911.86   920.62   931.74   942.43
eigval :      998.12  1022.80  1047.84  1064.90  1067.49  1097.86
eigval :     1106.06  1111.27  1129.01  1133.24  1160.21  1164.32
eigval :     1171.72  1184.44  1202.34  1225.26  1271.22  1279.25
eigval :     1295.27  1306.40  1309.79  1319.04  1344.86  1353.59
eigval :     1369.38  1394.16  1397.09  1400.85  1421.61  1433.18
eigval :     1443.45  1485.75  1490.54  1534.58  1545.37  1568.66
eigval :     1577.20  1582.03  1595.59  1614.11  3072.32  3076.77
eigval :     3080.35  3083.89  3084.21  3090.91  3093.58  3099.31
eigval :     3116.61  3127.06  3167.64  3178.85  3191.61  3434.78

   temp. (K)  partition function   enthalpy   heat capacity  entropy
                                   cal/mol     cal/K/mol   cal/K/mol   J/K/mol
 298.15  VIB  0.196E+07             9520.411     65.539     57.016
         ROT  0.961E+07              888.752      2.981     34.934
         INT  0.189E+14            10409.163     68.520     91.950
         TR   0.529E+28             1481.254      4.968     43.074
         TOT                       11890.4174    73.4885   135.0242   564.9411

       T/K    H(0)-H(T)+PV         H(T)/Eh          T*S/Eh         G(T)/Eh
   ------------------------------------------------------------------------
    298.15    0.189486E-01    0.305968E+00    0.641543E-01    0.241813E+00
   ------------------------------------------------------------------------

         :::::::::::::::::::::::::::::::::::::::::::::::::::::
         ::                  THERMODYNAMIC                  ::
         :::::::::::::::::::::::::::::::::::::::::::::::::::::
         :: total free energy         -61.470896865712 Eh   ::
         ::.................................................::
         :: total energy              -61.712710058871 Eh   ::
         :: zero point energy           0.287018941938 Eh   ::
         :: G(RRHO) w/o ZPVE           -0.045205748778 Eh   ::
         :: G(RRHO) contrib.            0.241813193160 Eh   ::
         :::::::::::::::::::::::::::::::::::::::::::::::::::::

           -------------------------------------------------
          | TOTAL ENERGY              -61.712710058871 Eh   |
          | TOTAL ENTHALPY            -61.406742530666 Eh   |
          | TOTAL FREE ENERGY         -61.470896865712 Eh   |
          | GRADIENT NORM               0.000040740636 Eh/α |
          | HOMO-LUMO GAP               2.583025234022 eV   |
           -------------------------------------------------

 * finished run on 2025/09/12 at 08:48:13.854
