   * xtb version 6.7.1 (edcfbbe) compiled by 'albert@albert-system' on 2024-07-22

   ID    Z sym.   atoms
    1    6 C      1-9, 11-16, 18, 20-22, 24
    2    7 N      10, 17, 19, 23
    3    1 H      25-38

          program call               : xtb data2507/toluene/czpzpy/czpzpy_toluene_T1_crest.xyz --gfn 2 --uhf 2 --gbsa toluene --ohess vtight --parallel 40 --molden --ceasefiles --namespace data2507/toluene/czpzpy/czpzpy_toluene_T1_finalOpt
      * Solvation model:               GBSA
        Solvent                        toluene
        Solvent mass                       9.2140E+01 g/mol
          :  Hamiltonian                  GFN2-xTB          :
 * total energy  :   -61.6181196 Eh     change       -0.2005507E-09 Eh
 * total energy  :   -61.6181465 Eh     change       -0.2690836E-04 Eh
 * total energy  :   -61.6181581 Eh     change       -0.1157474E-04 Eh
 * total energy  :   -61.6181627 Eh     change       -0.4591394E-05 Eh
 * total energy  :   -61.6181653 Eh     change       -0.2574489E-05 Eh
 * total energy  :   -61.6181657 Eh     change       -0.4544615E-06 Eh
 * total energy  :   -61.6181658 Eh     change       -0.1046630E-06 Eh
 * total energy  :   -61.6181658 Eh     change        0.1545030E-07 Eh
 * total energy  :   -61.6181659 Eh     change       -0.8500732E-07 Eh
   *** GEOMETRY OPTIMIZATION CONVERGED AFTER 9 ITERATIONS ***

 final structure:
================
38
 xtb: 6.7.1 (edcfbbe)
C            3.29687348815101        2.66857703775038       -0.01131665435465
C            1.95847905349750        2.94905504813489       -0.00871132267138
C            1.01074450897366        1.87301818299288       -0.00307159012956
C           -0.38704447603037        2.01688376483408       -0.00066205954705
C           -1.08715309526852        3.27681034510221        0.00373432009565
C           -2.45181852203386        3.34755301243588        0.00958280914143
C           -3.27853983644994        2.20225306950186        0.01047081658774
C           -2.64986664301339        0.95606437300213        0.00480688774626
C           -1.24567759835752        0.86881876607486       -0.00094241641786
N           -0.86836952893098       -0.43858229186435       -0.00764584391245
C           -1.96850614642217       -1.23226236613453       -0.00573410472777
C           -2.06727597830276       -2.62120931807482       -0.01150126918893
C           -3.33117803545339       -3.17449527835502       -0.00897563358400
C           -4.47493317771601       -2.36650060723705       -0.00075882732594
C           -4.38859172973307       -0.98480463248467        0.00475745550830
C           -3.13097247982320       -0.39839118378759        0.00203984758663
N            1.48054259630341        0.58679945838957       -0.00041386497659
C            2.75963227549785        0.34048397807827       -0.00274783179020
N            3.06745363675007       -1.02546461629482        0.00124207208845
C            4.28187399101873       -1.63020935160602        0.01348653157767
C            4.05755774232863       -2.98291557831700        0.01469536565529
C            2.65728132769511       -3.10711123621276        0.00224425101694
N            2.07647985769300       -1.92795958264608       -0.00535801689488
C            3.75076349629307        1.33642791684039       -0.00808548019938
H            4.02268390903385        3.46885507988910       -0.01604252766344
H            1.61409136067623        3.96956675787079       -0.01252289895627
H           -0.51182687953261        4.18790447586316        0.00346200795805
H           -2.92506297013866        4.31924262465562        0.01352826949153
H           -4.35129875161496        2.29496526307849        0.01464620331880
H            0.13026474703372       -0.67791246096931       -0.00904562361921
H           -1.17804391591989       -3.23225649126451       -0.01781110423641
H           -3.44566884510380       -4.24763612113987       -0.01335805474789
H           -5.44625148941530       -2.83816486184072        0.00108497121076
H           -5.27999132359822       -0.37642548450480        0.01077510316470
H            5.19909364911652       -1.07912747807795        0.02116072360476
H            4.78424925355199       -3.76874303509927        0.02304768685067
H            2.06819364299446       -4.00313442867129       -0.00124112725430
H            4.80202629114982        1.11047817898784       -0.00954094860546

          :  Hamiltonian                  GFN2-xTB          :
         :: gradient norm              0.000099755354 Eh/a0 ::
         :: HOMO-LUMO gap              0.460672470302 eV    ::
         :: SCC energy               -62.680057829200 Eh    ::
         :: -> dispersion             -0.047328884216 Eh    ::
         :: -> Gsolv                  -0.027280897830 Eh    ::
         :: repulsion energy           1.061891913181 Eh    ::

    * Orbital Energies and Occupations

         #    Occupation            Energy/Eh            Energy/eV
      -------------------------------------------------------------
         1        2.0000           -0.7058431             -19.2070
       ...           ...                  ...                  ...
        46        2.0000           -0.4412903             -12.0081
        47        2.0000           -0.4387082             -11.9379
        48        2.0000           -0.4318213             -11.7505
        49        2.0000           -0.4279608             -11.6454
        50        2.0000           -0.4276492             -11.6369
        51        2.0000           -0.4199948             -11.4286
        52        2.0000           -0.4130088             -11.2385
        53        2.0000           -0.4102517             -11.1635
        54        2.0000           -0.3988810             -10.8541
        55        2.0000           -0.3881199             -10.5613
        56        1.9880           -0.3803412             -10.3496
        57        1.0120           -0.3719569             -10.1215
        58        0.9999           -0.2797385              -7.6121 (HOMO)
        59        0.0001           -0.2628092              -7.1514 (LUMO)
        60                         -0.2460136              -6.6944
        61                         -0.2241543              -6.0995
        62                         -0.2085297              -5.6744
        63                         -0.1985531              -5.4029
        64                         -0.1827686              -4.9734
        65                         -0.1736038              -4.7240
        66                         -0.1182401              -3.2175
        67                         -0.0892863              -2.4296
        68                         -0.0644807              -1.7546
        69                         -0.0030333              -0.0825
       ...                                ...                  ...
       110                          0.7273988              19.7935
      -------------------------------------------------------------
                  HL-Gap            0.0169293 Eh            0.4607 eV

     #   Z          covCN         q      C6AA      α(0)
     1   6 C        2.918    -0.025    28.629     8.774
     2   6 C        2.908    -0.048    29.192     8.859
     3   6 C        2.932     0.058    26.691     8.473
     4   6 C        2.967    -0.006    28.176     8.707
     5   6 C        2.912    -0.061    29.508     8.908
     6   6 C        2.910    -0.028    28.697     8.784
     7   6 C        2.907    -0.050    29.252     8.868
     8   6 C        3.059    -0.023    28.527     8.759
     9   6 C        3.091     0.051    26.742     8.476
    10   7 N        2.759    -0.107    23.338     7.175
    11   6 C        3.081     0.055    26.675     8.467
    12   6 C        2.907    -0.044    29.095     8.845
    13   6 C        2.921    -0.037    28.923     8.819
    14   6 C        2.919    -0.029    28.727     8.789
    15   6 C        2.908    -0.033    28.829     8.804
    16   6 C        3.080    -0.012    28.221     8.709
    17   7 N        1.864    -0.279    28.085     7.855
    18   6 C        2.874     0.144    24.855     8.173
    19   7 N        3.057     0.083    19.802     6.609
    20   6 C        3.027    -0.014    28.333     8.731
    21   6 C        3.016    -0.069    29.699     8.939
    22   6 C        3.118     0.032    27.110     8.528
    23   7 N        2.006    -0.235    26.942     7.698
    24   6 C        2.910    -0.085    30.116     8.999
    25   1 H        0.926     0.036     2.509     2.477
    26   1 H        0.926     0.039     2.468     2.457
    27   1 H        0.926     0.033     2.550     2.497
    28   1 H        0.926     0.040     2.455     2.450
    29   1 H        0.926     0.038     2.481     2.463
    30   1 H        0.859     0.255     0.864     1.456
    31   1 H        0.926     0.041     2.432     2.439
    32   1 H        0.926     0.045     2.385     2.415
    33   1 H        0.926     0.048     2.346     2.395
    34   1 H        0.926     0.046     2.371     2.408
    35   1 H        0.927     0.042     2.416     2.431
    36   1 H        0.926     0.038     2.476     2.461
    37   1 H        0.926     0.032     2.553     2.499
    38   1 H        0.926     0.029     2.596     2.520

molecular dipole:
                 x           y           z       tot (Debye)
 q only:       -0.529      -0.323      -0.001
   full:        0.395      -0.211       0.001       1.138

 projected vibrational frequencies (cm⁻¹)
eigval :       -0.00    -0.00     0.00     0.00     0.00     0.00
eigval :       22.17    31.47    50.79    52.75    85.63    94.97
eigval :      107.73   131.25   161.24   217.97   223.99   250.55
eigval :      286.53   287.08   297.98   365.25   372.12   391.07
eigval :      430.93   439.43   473.09   486.01   515.41   522.39
eigval :      547.04   554.95   576.99   585.45   611.41   618.12
eigval :      633.99   656.11   666.62   683.04   693.46   714.09
eigval :      721.01   756.13   766.02   774.97   776.71   818.18
eigval :      833.45   836.00   838.34   849.50   856.49   858.30
eigval :      881.46   889.63   894.59   896.23   908.46   931.35
eigval :      968.80   982.00  1029.82  1050.62  1052.09  1063.65
eigval :     1068.52  1097.15  1106.09  1126.11  1139.31  1156.39
eigval :     1160.97  1173.16  1189.44  1201.27  1218.92  1244.08
eigval :     1269.66  1282.56  1296.26  1315.09  1330.71  1345.55
eigval :     1353.59  1366.19  1376.29  1390.76  1397.09  1417.79
eigval :     1428.79  1442.75  1458.05  1478.53  1482.21  1525.84
eigval :     1534.18  1551.22  1554.66  1572.80  3072.58  3073.40
eigval :     3083.50  3088.09  3088.42  3094.28  3101.33  3104.54
eigval :     3111.73  3115.54  3123.64  3164.98  3179.58  3192.24

   temp. (K)  partition function   enthalpy   heat capacity  entropy
                                   cal/mol     cal/K/mol   cal/K/mol   J/K/mol
 298.15  VIB  0.810E+07             9965.070     67.092     60.230
         ROT  0.907E+07              888.752      2.981     34.817
         INT  0.734E+14            10853.822     70.073     95.047
         TR   0.529E+28             1481.254      4.968     43.074
         TOT                       12335.0763    75.0411   138.1212   577.8990

       T/K    H(0)-H(T)+PV         H(T)/Eh          T*S/Eh         G(T)/Eh
   ------------------------------------------------------------------------
    298.15    0.196572E-01    0.301509E+00    0.656258E-01    0.235883E+00
   ------------------------------------------------------------------------

         :::::::::::::::::::::::::::::::::::::::::::::::::::::
         ::                  THERMODYNAMIC                  ::
         :::::::::::::::::::::::::::::::::::::::::::::::::::::
         :: total free energy         -61.382282674164 Eh   ::
         ::.................................................::
         :: total energy              -61.618165916734 Eh   ::
         :: zero point energy           0.281851870518 Eh   ::
         :: G(RRHO) w/o ZPVE           -0.045968627948 Eh   ::
         :: G(RRHO) contrib.            0.235883242570 Eh   ::
         :::::::::::::::::::::::::::::::::::::::::::::::::::::

           -------------------------------------------------
          | TOTAL ENERGY              -61.618165916734 Eh   |
          | TOTAL ENTHALPY            -61.316656850822 Eh   |
          | TOTAL FREE ENERGY         -61.382282674164 Eh   |
          | GRADIENT NORM               0.000100022463 Eh/α |
          | HOMO-LUMO GAP               0.460669265972 eV   |
           -------------------------------------------------

 * finished run on 2025/09/12 at 08:49:28.348
