   * xtb version 6.7.1 (edcfbbe) compiled by 'albert@albert-system' on 2024-07-22

   ID    Z sym.   atoms
    1    6 C      1-35
    2    1 H      36-57

          program call               : xtb data2507/gas/2SBFN/2SBFN_gas_T1_crest.xyz --gfn 2 --spinpol --tblite --uhf 2 --ohess vtight --parallel 40 --molden --ceasefiles --namespace data2507/gas/2SBFN/2SBFN_gas_T1_finalOpt
 * total energy  :   -86.1004525 Eh     change       -0.1049531E-07 Eh
 * total energy  :   -86.1004872 Eh     change       -0.3466368E-04 Eh
 * total energy  :   -86.1005093 Eh     change       -0.2213666E-04 Eh
 * total energy  :   -86.1005126 Eh     change       -0.3284665E-05 Eh
 * total energy  :   -86.1005140 Eh     change       -0.1359935E-05 Eh
 * total energy  :   -86.1005144 Eh     change       -0.4007150E-06 Eh
 * total energy  :   -86.1005152 Eh     change       -0.7985718E-06 Eh
 * total energy  :   -86.1005164 Eh     change       -0.1210150E-05 Eh
 * total energy  :   -86.1005177 Eh     change       -0.1307589E-05 Eh
 * total energy  :   -86.1005185 Eh     change       -0.8324943E-06 Eh
 * total energy  :   -86.1005189 Eh     change       -0.3956966E-06 Eh
 * total energy  :   -86.1005191 Eh     change       -0.1854181E-06 Eh
 * total energy  :   -86.1005193 Eh     change       -0.2469143E-06 Eh
 * total energy  :   -86.1005196 Eh     change       -0.2429763E-06 Eh
 * total energy  :   -86.1005197 Eh     change       -0.1469353E-06 Eh
 * total energy  :   -86.1005199 Eh     change       -0.2165613E-06 Eh
 * total energy  :   -86.1005200 Eh     change       -0.9853670E-07 Eh
   *** GEOMETRY OPTIMIZATION CONVERGED AFTER 17 ITERATIONS ***

 final structure:
================
57
 xtb: 6.7.1 (edcfbbe)
C           -2.94354482255121        3.00050994391390        2.83017694153451
C           -2.65159045439374        1.73949045015454        3.32827737607963
C           -2.38908200806178        0.67945550375475        2.47087207460096
C           -2.42558262589947        0.90999774274525        1.11321404935108
C           -2.71971522594437        2.18313649539485        0.60359279321873
C           -2.98063261080436        3.23591164690159        1.46509640331370
C           -2.68395955309005        2.11748661670931       -0.84888875278593
C           -2.90148163221207        3.08764380124589       -1.81325988064944
C           -2.79901171045867        2.73034181790547       -3.14815477148513
C           -2.48503034773256        1.43048501200528       -3.51583891187371
C           -2.26548966607372        0.45277727320582       -2.55477614567970
C           -2.36706961827989        0.80450559680594       -1.22680092706779
C           -2.17680786313903       -0.06781371653675       -0.00957231584761
C           -3.09733485998379       -1.26362105956512        0.02080438470120
C           -4.46872477367447       -1.28495155209999       -0.01211739917646
C           -5.11762061510807       -2.51751975412289        0.02515895625224
C           -4.39079210143035       -3.70310056385542        0.09441967844847
C           -3.01215699987144       -3.69404545463689        0.12818336360315
C           -2.34666322190953       -2.46360031282770        0.09212571870084
C           -0.96332255197772       -2.14021763053806        0.11515256843672
C            0.19633459711311       -2.93542855310011        0.17597417852736
C            1.42110196346523       -2.33959818767341        0.16705834801441
C            1.59425841154723       -0.91440512933329        0.11639999686289
C            2.87681906910231       -0.32403326437928        0.12685919048366
C            3.07303489238316        1.05725579332136        0.39781576832587
C            4.30688963719312        1.62189833796004        0.43476414961942
C            5.49382141181568        0.86308439240700        0.17799386019266
C            6.75927854230592        1.42405432629360        0.19986441800529
C            7.89145274314690        0.64731761799566       -0.06158838370802
C            7.75421856479702       -0.70261074123032       -0.34901532122775
C            6.50571341729657       -1.28869289845903       -0.37667388678548
C            5.33890014009761       -0.52588488446791       -0.11279374288245
C            4.07098653506261       -1.09187205488762       -0.13197935808369
C            0.39911692423378       -0.12288803474503        0.06307649716791
C           -0.81562639602112       -0.72152594977222        0.05783606067117
H           -3.14467410677993        3.80991729172360        3.51697386222721
H           -2.62815032175376        1.58009738975467        4.39630984143690
H           -2.16142702425214       -0.30312613273455        2.85819574158710
H           -3.20834621465650        4.21976657030227        1.08223805252175
H           -3.14634852833526        4.10122421455625       -1.53200356860336
H           -2.96592455616539        3.47392273586037       -3.91397903917272
H           -2.41056411373349        1.17555428705060       -4.56278701700815
H           -2.02099657590936       -0.56003250668366       -2.84066411609321
H           -5.03476696727768       -0.36619715443954       -0.06635156916167
H           -6.19632377293434       -2.55372150844920       -0.00035282681190
H           -4.92001541118288       -4.64479322869730        0.12207141251721
H           -2.45238157817876       -4.61574711669859        0.18213319489385
H            0.10873457220163       -4.01065227866178        0.23359829532748
H            2.29591600919125       -2.96485305388522        0.24473284899734
H            2.21796173813632        1.67485560477826        0.62525523850556
H            4.41860076972906        2.67063471839405        0.67141145572495
H            6.87044573410733        2.47655826491129        0.41932672074300
H            8.87031175079403        1.10194457338127       -0.04044185292375
H            8.63165713965287       -1.29919702807654       -0.55327720653711
H            6.39981592172287       -2.34065538263063       -0.59876218361374
H            3.98855592895152       -2.13325195910172       -0.39817485524131
H            0.46137290292899        0.95134632895673       -0.01167196137470

 projected vibrational frequencies (cm⁻¹)
eigval :       -0.00    -0.00    -0.00    -0.00     0.00     0.00
eigval :       16.36    20.90    26.10    39.95    45.41    55.50
eigval :       73.57    86.30   111.88   130.24   140.47   156.37
eigval :      165.31   180.44   204.48   215.38   226.58   244.92
eigval :      268.22   298.06   304.87   340.11   351.46   375.55
eigval :      386.99   402.18   411.83   414.45   433.80   440.22
eigval :      448.06   460.17   463.32   468.96   488.69   503.40
eigval :      520.31   530.63   540.84   545.57   575.56   576.16
eigval :      590.76   600.15   616.17   623.68   651.46   671.52
eigval :      688.63   692.19   695.17   706.91   721.76   732.71
eigval :      741.80   748.16   755.65   758.88   768.78   786.06
eigval :      786.67   796.21   802.86   833.79   834.95   839.28
eigval :      858.75   877.82   878.84   879.73   884.99   894.96
eigval :      897.89   903.77   904.82   905.87   909.91   910.45
eigval :      912.57   917.76   927.28   928.09   934.60   974.01
eigval :     1008.56  1014.54  1053.58  1069.82  1073.46  1073.87
eigval :     1079.10  1096.69  1126.60  1139.22  1143.59  1151.00
eigval :     1164.63  1168.36  1173.23  1178.26  1180.96  1186.81
eigval :     1190.42  1209.48  1209.90  1220.47  1223.36  1241.24
eigval :     1254.79  1260.24  1261.51  1274.87  1276.79  1285.99
eigval :     1301.45  1327.61  1331.21  1342.74  1356.42  1366.70
eigval :     1372.94  1382.82  1394.70  1416.99  1428.83  1430.28
eigval :     1435.52  1438.05  1450.99  1462.34  1470.39  1471.97
eigval :     1493.02  1505.01  1528.41  1542.17  1548.91  1578.27
eigval :     1584.93  1596.04  1601.52  1604.29  1607.28  3068.48
eigval :     3070.24  3072.75  3072.90  3073.32  3073.42  3075.69
eigval :     3076.75  3077.40  3077.71  3080.93  3083.61  3085.70
eigval :     3086.77  3090.80  3091.44  3092.66  3093.09  3094.44
eigval :     3097.08  3102.20  3109.38

   temp. (K)  partition function   enthalpy   heat capacity  entropy
                                   cal/mol     cal/K/mol   cal/K/mol   J/K/mol
 298.15  VIB  0.450E+11            14930.441    100.029     90.009
         ROT  0.301E+08              888.752      2.981     37.201
         INT  0.135E+19            15819.193    103.010    127.209
         TR   0.901E+28             1481.254      4.968     44.132
         TOT                       17300.4473   107.9777   171.3407   716.8893

       T/K    H(0)-H(T)+PV         H(T)/Eh          T*S/Eh         G(T)/Eh
   ------------------------------------------------------------------------
    298.15    0.275700E-01    0.464171E+00    0.814095E-01    0.382762E+00
   ------------------------------------------------------------------------

         :::::::::::::::::::::::::::::::::::::::::::::::::::::
         ::                  THERMODYNAMIC                  ::
         :::::::::::::::::::::::::::::::::::::::::::::::::::::
         :: total free energy         -85.717758332036 Eh   ::
         ::.................................................::
         :: total energy              -86.100520091537 Eh   ::
         :: zero point energy           0.436601216754 Eh   ::
         :: G(RRHO) w/o ZPVE           -0.053839457254 Eh   ::
         :: G(RRHO) contrib.            0.382761759500 Eh   ::
         :::::::::::::::::::::::::::::::::::::::::::::::::::::

           -------------------------------------------------
          | TOTAL ENERGY              -86.100520091537 Eh   |
          | TOTAL ENTHALPY            -85.636348857073 Eh   |
          | TOTAL FREE ENERGY         -85.717758332036 Eh   |
          | GRADIENT NORM               0.000038782267 Eh/α |
           -------------------------------------------------

 * finished run on 2025/09/10 at 08:52:28.457
