   * xtb version 6.7.1 (edcfbbe) compiled by 'albert@albert-system' on 2024-07-22

   ID    Z sym.   atoms
    1    6 C      1-35
    2    1 H      36-57

          program call               : xtb data2507/gas/2SBFN/2SBFN_gas_S0_finalOpt.xtbopt.xyz --gfn 2 --spinpol --tblite --uhf 2 --ohess vtight --parallel 40 --molden --ceasefiles --namespace data2507/gas/2SBFN/2SBFN_gas_T1_preOpt
 * total energy  :   -86.0879145 Eh     change       -0.8939736E-08 Eh
 * total energy  :   -86.0956336 Eh     change       -0.7719093E-02 Eh
 * total energy  :   -86.0977111 Eh     change       -0.2077536E-02 Eh
 * total energy  :   -86.0981074 Eh     change       -0.3962477E-03 Eh
 * total energy  :   -86.0985152 Eh     change       -0.4078346E-03 Eh
 * total energy  :   -86.0987896 Eh     change       -0.2743619E-03 Eh
 * total energy  :   -86.0990898 Eh     change       -0.3002183E-03 Eh
 * total energy  :   -86.0993525 Eh     change       -0.2626856E-03 Eh
 * total energy  :   -86.0995472 Eh     change       -0.1947584E-03 Eh
 * total energy  :   -86.0997031 Eh     change       -0.1558192E-03 Eh
 * total energy  :   -86.1005119 Eh     change       -0.2732205E-05 Eh
 * total energy  :   -86.1005143 Eh     change       -0.2457046E-05 Eh
 * total energy  :   -86.1005164 Eh     change       -0.2086504E-05 Eh
 * total energy  :   -86.1005180 Eh     change       -0.1561511E-05 Eh
 * total energy  :   -86.1005190 Eh     change       -0.1029592E-05 Eh
 * total energy  :   -86.1005196 Eh     change       -0.5790678E-06 Eh
 * total energy  :   -86.1005197 Eh     change       -0.1308940E-06 Eh
 * total energy  :   -86.1005201 Eh     change       -0.3514116E-06 Eh
 * total energy  :   -86.1005202 Eh     change       -0.6269921E-07 Eh
   *** GEOMETRY OPTIMIZATION CONVERGED AFTER 46 ITERATIONS ***

 final structure:
================
57
 xtb: 6.7.1 (edcfbbe)
C           -2.91605777409898        3.12784991626668        2.71537937549921
C           -2.63364761230620        1.88194422849327        3.25525128630683
C           -2.38023630406748        0.79172044181921        2.43369432588736
C           -2.41580157552066        0.97692234028572        1.06908036995812
C           -2.69999380499801        2.23471534233595        0.51732485653645
C           -2.95211501194279        3.31773915113037        1.34320095271316
C           -2.66481062277433        2.12060623430338       -0.93216784431592
C           -2.87475990348932        3.05972947618897       -1.92841832764460
C           -2.77442772379128        2.65747539513232       -3.25062355893384
C           -2.46978461291692        1.34387346393343       -3.57473174474282
C           -2.25824293698278        0.39699870664445       -2.58156505131086
C           -2.35795095074545        0.79346117235653       -1.26612119293590
C           -2.17666783929993       -0.03992261925608       -0.02035520304756
C           -3.11147092655865       -1.22326464593232        0.04565686998058
C           -4.48313709384144       -1.22865871454481        0.01753222083688
C           -5.14674802316305       -2.45182833933134        0.08875404772240
C           -4.43400741430559       -3.64400369976912        0.18597361070922
C           -3.05524275608998       -3.65087455128588        0.21518426646638
C           -2.37504489007175       -2.42993969894805        0.14574418872438
C           -0.98782390293045       -2.12257398290768        0.15848851068084
C            0.16228433703292       -2.93000290035239        0.23662041822734
C            1.39408338510648       -2.34900794122323        0.21487750892498
C            1.58354334627397       -0.92740691181104        0.13548814288497
C            2.87281037676722       -0.35157267908894        0.14200266197400
C            3.08337972610960        1.03028705926696        0.39768762699367
C            4.32372454693093        1.58063912219396        0.43613798078854
C            5.50294197998384        0.80492877971270        0.19481962639061
C            6.77483005289197        1.35105617394943        0.21876437042066
C            7.89927594331926        0.55839084222385       -0.02816061048328
C            7.74769055859624       -0.79248868680282       -0.30315972123210
C            6.49244253613361       -1.36413055955035       -0.33215594458678
C            5.33329596408971       -0.58509335755523       -0.08258005425250
C            4.05888642344906       -1.13634043878450       -0.10262561785008
C            0.39824743813005       -0.12321939129681        0.06043997083483
C           -0.82352202737290       -0.70750955656304        0.06678351822500
H           -3.11040268839219        3.96133604616172        3.37478213964684
H           -2.61065142552955        1.75822468415635        4.32801064809283
H           -2.16011391945989       -0.17910220781443        2.85364305587010
H           -3.17223367506078        4.29000321235542        0.92768857742773
H           -3.11235779942718        4.08385673709344       -1.68121677911788
H           -2.93571683316696        3.37634270934267       -4.04085372585668
H           -2.39652954026020        1.05379213202779       -4.61257320123028
H           -2.02116774781729       -0.62655627023002       -2.83340607696040
H           -5.03810835627103       -0.30470725157655       -0.05856929307979
H           -6.22589770208510       -2.47554378403760        0.06780576518166
H           -4.97448201324862       -4.57816187335738        0.23938816782550
H           -2.50651895801744       -4.57766227523646        0.29110231126420
H            0.06193659642682       -4.00260495006246        0.31756443337773
H            2.26179341944253       -2.98231521950269        0.30619878164189
H            2.23412028288164        1.66002131604432        0.61360295767316
H            4.44657876248845        2.63039239933120        0.66254117620533
H            6.89723180224522        2.40427627233914        0.42848969294064
H            8.88330443513882        1.00164288468404       -0.00554731225067
H            8.61910691553881       -1.40141193374475       -0.49646813595023
H            6.37542340881999       -2.41694712618535       -0.54426435378346
H            3.96481344015280       -2.17917791839353       -0.35928186233691
H            0.47392521829968        0.94807139742438       -0.04024815245954

 projected vibrational frequencies (cm⁻¹)
eigval :       -0.00    -0.00     0.00     0.00     0.00     0.00
eigval :       16.41    21.18    26.11    39.93    46.00    55.37
eigval :       73.67    86.25   111.96   130.25   140.48   156.64
eigval :      165.53   180.31   204.49   215.69   226.78   244.85
eigval :      268.32   298.18   304.90   340.19   351.40   375.67
eigval :      387.00   402.35   411.89   414.44   433.69   440.36
eigval :      448.25   460.22   463.43   469.06   488.66   503.40
eigval :      520.24   530.72   540.85   545.46   575.61   576.17
eigval :      590.79   600.17   616.30   623.72   651.48   671.63
eigval :      688.71   692.27   695.20   707.12   721.94   732.73
eigval :      741.84   748.26   755.60   758.93   768.76   786.07
eigval :      786.52   796.55   802.91   833.82   835.19   839.57
eigval :      858.80   877.69   878.84   879.72   885.03   895.02
eigval :      898.01   903.71   904.82   905.92   909.90   910.46
eigval :      912.48   917.78   927.28   928.10   934.80   973.87
eigval :     1008.55  1014.44  1053.29  1069.79  1073.24  1073.85
eigval :     1079.07  1096.58  1126.62  1139.15  1143.63  1151.14
eigval :     1164.72  1168.42  1173.30  1178.27  1180.95  1186.71
eigval :     1190.50  1209.27  1209.89  1220.45  1223.37  1240.95
eigval :     1254.66  1260.07  1261.58  1275.24  1276.52  1286.00
eigval :     1301.31  1327.63  1331.30  1342.63  1356.37  1366.70
eigval :     1373.13  1383.00  1394.91  1417.00  1428.90  1430.27
eigval :     1435.53  1438.11  1451.03  1462.35  1470.37  1472.01
eigval :     1492.93  1504.90  1528.39  1541.94  1548.88  1578.24
eigval :     1584.93  1596.05  1601.51  1604.30  1607.11  3068.49
eigval :     3070.46  3072.79  3073.00  3073.35  3073.45  3075.69
eigval :     3076.82  3077.34  3077.73  3081.15  3083.72  3085.83
eigval :     3086.77  3090.51  3091.47  3092.58  3092.99  3094.32
eigval :     3096.61  3101.62  3109.02

   temp. (K)  partition function   enthalpy   heat capacity  entropy
                                   cal/mol     cal/K/mol   cal/K/mol   J/K/mol
 298.15  VIB  0.436E+11            14927.326    100.035     89.979
         ROT  0.301E+08              888.752      2.981     37.201
         INT  0.131E+19            15816.079    103.016    127.180
         TR   0.901E+28             1481.254      4.968     44.132
         TOT                       17297.3326   107.9843   171.3117   716.7680

       T/K    H(0)-H(T)+PV         H(T)/Eh          T*S/Eh         G(T)/Eh
   ------------------------------------------------------------------------
    298.15    0.275651E-01    0.464172E+00    0.813957E-01    0.382776E+00
   ------------------------------------------------------------------------

         :::::::::::::::::::::::::::::::::::::::::::::::::::::
         ::                  THERMODYNAMIC                  ::
         :::::::::::::::::::::::::::::::::::::::::::::::::::::
         :: total free energy         -85.717743842238 Eh   ::
         ::.................................................::
         :: total energy              -86.100520154866 Eh   ::
         :: zero point energy           0.436606958785 Eh   ::
         :: G(RRHO) w/o ZPVE           -0.053830646158 Eh   ::
         :: G(RRHO) contrib.            0.382776312628 Eh   ::
         :::::::::::::::::::::::::::::::::::::::::::::::::::::

           -------------------------------------------------
          | TOTAL ENERGY              -86.100520154866 Eh   |
          | TOTAL ENTHALPY            -85.636348141944 Eh   |
          | TOTAL FREE ENERGY         -85.717743842238 Eh   |
          | GRADIENT NORM               0.000097289638 Eh/α |
           -------------------------------------------------

 * finished run on 2025/09/10 at 08:50:18.533
