   * xtb version 6.7.1 (edcfbbe) compiled by 'albert@albert-system' on 2024-07-22

   ID    Z sym.   atoms
    1    6 C      1-35
    2    1 H      36-57

          program call               : xtb data2507/gas/2SBFN/2SBFN_gas_S0_crest.xyz --gfn 2 --ohess vtight --parallel 40 --molden --ceasefiles --namespace data2507/gas/2SBFN/2SBFN_gas_S0_finalOpt
          :  Hamiltonian                  GFN2-xTB          :
 * total energy  :   -86.1896072 Eh     change       -0.7637624E-09 Eh
 * total energy  :   -86.1896077 Eh     change       -0.4922831E-06 Eh
 * total energy  :   -86.1896080 Eh     change       -0.2775218E-06 Eh
 * total energy  :   -86.1896082 Eh     change       -0.1916482E-06 Eh
 * total energy  :   -86.1896084 Eh     change       -0.2011460E-06 Eh
 * total energy  :   -86.1896086 Eh     change       -0.1662669E-06 Eh
 * total energy  :   -86.1896087 Eh     change       -0.1036320E-06 Eh
 * total energy  :   -86.1896087 Eh     change       -0.7804833E-07 Eh
   *** GEOMETRY OPTIMIZATION CONVERGED AFTER 8 ITERATIONS ***

 final structure:
================
57
 xtb: 6.7.1 (edcfbbe)
C           -2.89141958122512        3.18135733398960        2.62669264023124
C           -2.64820203892531        1.94122060391176        3.19779052901606
C           -2.39879257508341        0.82941434470952        2.40422411963293
C           -2.39890057405146        0.98775764010371        1.03588606023186
C           -2.64295506043033        2.23943013751861        0.45242536438185
C           -2.89133812493733        3.34391922865701        1.25048793182528
C           -2.57575257016503        2.09476527413521       -0.99330261537081
C           -2.74414438201679        3.01670201263730       -2.01313158280589
C           -2.62191502039581        2.58506356431907       -3.32421815906114
C           -2.33645253122972        1.25934699689705       -3.61424262314715
C           -2.16626072806690        0.32946195292057       -2.59725798161058
C           -2.28774485916843        0.75537383839193       -1.29299539862406
C           -2.15459737927390       -0.05569980325323       -0.02704031529188
C           -3.11274596662801       -1.22043912623932        0.03962227717276
C           -4.48798043567248       -1.20025329527287       -0.03176920678289
C           -5.17153979276625       -2.40612454309649        0.05114486815443
C           -4.48621810659282       -3.60231661608962        0.20196064050619
C           -3.10271235865044       -3.62613243951408        0.27409928555215
C           -2.41381174291309       -2.42706671092064        0.19229911959575
C           -0.99181338439988       -2.13248342228682        0.23795845179623
C            0.11394699157531       -2.95500627006697        0.38031233178974
C            1.37261097703869       -2.38185606784186        0.39746530624725
C            1.54941655856211       -1.00247185673005        0.27854217595332
C            2.89830846730078       -0.42142680908089        0.31538295359162
C            3.12932248063509        0.77480203131187        1.03080135541110
C            4.37505513050871        1.32759781131395        1.08880027662751
C            5.46807237347187        0.72578576080424        0.43005870389905
C            6.76682186534295        1.27179780691183        0.46977373124019
C            7.80154371557910        0.66014119756326       -0.18122623539793
C            7.58364995441774       -0.52495170122820       -0.90166075315923
C            6.33593751682554       -1.07902783533574       -0.95878264315933
C            5.24692407187013       -0.47363654538391       -0.29623739896800
C            3.95141289069713       -1.02343151010701       -0.33224239676113
C            0.43149971389491       -0.17692301128438        0.13325974741981
C           -0.81947386769360       -0.74618457994209        0.11217766520842
H           -3.08335694275070        4.03200685603148        3.26454798069731
H           -2.65291336593977        1.83878961937542        4.27305846516709
H           -2.20916886909452       -0.13719837746401        2.84821126210127
H           -3.08077997139310        4.31192200116354        0.81063605232050
H           -2.96683831308423        4.05019095512064       -1.79243977334930
H           -2.75084163326231        3.29032550652122       -4.13245311593075
H           -2.24592755665091        0.94609304246131       -4.64396207841386
H           -1.94465416228946       -0.70374232016864       -2.82240220094846
H           -5.02119055374193       -0.26795134390585       -0.14936546089596
H           -6.25028107895012       -2.41239682317635       -0.00254873146806
H           -5.03985424032220       -4.52800934663824        0.26401513228234
H           -2.57340543262955       -4.56014977265416        0.39169947919522
H           -0.00211286488388       -4.02396539438792        0.48201355291498
H            2.24103583972945       -3.01082272571415        0.52947983454687
H            2.30483490753850        1.23685185687675        1.55436654679896
H            4.54361165132558        2.23831253996900        1.64640748176246
H            6.92913567356653        2.18466801866235        1.02559680300943
H            8.79473087889770        1.08380924400032       -0.14694722842693
H            8.41290430760472       -0.99457012753121       -1.41062154781881
H            6.16397973171078       -1.99166821107981       -1.51204867847110
H            3.79109970135946       -1.92765182463720       -0.90270018302632
H            0.55023108032598        0.89093882865322        0.01902383290828

          :  Hamiltonian                  GFN2-xTB          :
         :: gradient norm              0.000032413346 Eh/a0 ::
         :: HOMO-LUMO gap              2.868255042405 eV    ::
         :: SCC energy               -87.890762529319 Eh    ::
         :: -> dispersion             -0.079347220367 Eh    ::
         :: repulsion energy           1.701153780573 Eh    ::

    * Orbital Energies and Occupations

         #    Occupation            Energy/Eh            Energy/eV
      -------------------------------------------------------------
         1        2.0000           -0.6615865             -18.0027
       ...           ...                  ...                  ...
        69        2.0000           -0.4204751             -11.4417
        70        2.0000           -0.4194472             -11.4137
        71        2.0000           -0.4136971             -11.2573
        72        2.0000           -0.4129377             -11.2366
        73        2.0000           -0.4103426             -11.1660
        74        2.0000           -0.4097761             -11.1506
        75        2.0000           -0.4005769             -10.9003
        76        2.0000           -0.3975237             -10.8172
        77        2.0000           -0.3941149             -10.7244
        78        2.0000           -0.3935141             -10.7081
        79        2.0000           -0.3825334             -10.4093
        80        2.0000           -0.3786759             -10.3043
        81        2.0000           -0.3694322             -10.0528 (HOMO)
        82                         -0.2640258              -7.1845 (LUMO)
        83                         -0.2512471              -6.8368
        84                         -0.2493999              -6.7865
        85                         -0.2256785              -6.1410
        86                         -0.2246231              -6.1123
        87                         -0.2243106              -6.1038
        88                         -0.2232180              -6.0741
        89                         -0.2150868              -5.8528
        90                         -0.1920332              -5.2255
        91                         -0.1887171              -5.1353
        92                         -0.1810315              -4.9261
       ...                                ...                  ...
       162                          0.7354880              20.0136
      -------------------------------------------------------------
                  HL-Gap            0.1054064 Eh            2.8683 eV

     #   Z          covCN         q      C6AA      α(0)
     1   6 C        2.921    -0.033    28.811     8.802
     2   6 C        2.923    -0.032    28.789     8.799
     3   6 C        2.914    -0.033    28.814     8.802
     4   6 C        3.057     0.007    27.820     8.650
     5   6 C        3.036     0.001    27.967     8.674
     6   6 C        2.915    -0.034    28.841     8.806
     7   6 C        3.037     0.001    27.969     8.674
     8   6 C        2.915    -0.034    28.839     8.806
     9   6 C        2.921    -0.032    28.807     8.802
    10   6 C        2.923    -0.031    28.783     8.798
    11   6 C        2.914    -0.032    28.809     8.801
    12   6 C        3.057     0.007    27.818     8.650
    13   6 C        3.979     0.009    20.350     6.409
    14   6 C        3.057     0.007    27.820     8.650
    15   6 C        2.914    -0.033    28.812     8.802
    16   6 C        2.923    -0.032    28.788     8.799
    17   6 C        2.921    -0.032    28.808     8.802
    18   6 C        2.915    -0.034    28.845     8.807
    19   6 C        3.036     0.001    27.960     8.673
    20   6 C        3.037    -0.001    28.019     8.682
    21   6 C        2.913    -0.035    28.861     8.809
    22   6 C        2.926    -0.038    28.938     8.822
    23   6 C        2.980     0.008    27.839     8.655
    24   6 C        2.974     0.009    27.805     8.649
    25   6 C        2.920    -0.034    28.849     8.808
    26   6 C        2.916    -0.036    28.897     8.815
    27   6 C        2.987     0.011    27.753     8.642
    28   6 C        2.918    -0.035    28.868     8.811
    29   6 C        2.916    -0.031    28.763     8.795
    30   6 C        2.916    -0.030    28.754     8.793
    31   6 C        2.918    -0.035    28.880     8.813
    32   6 C        2.985     0.012    27.731     8.638
    33   6 C        2.924    -0.041    29.024     8.835
    34   6 C        2.919    -0.037    28.930     8.820
    35   6 C        3.054     0.006    27.839     8.653
    36   1 H        0.926     0.030     2.582     2.513
    37   1 H        0.926     0.031     2.578     2.511
    38   1 H        0.926     0.028     2.618     2.530
    39   1 H        0.926     0.031     2.570     2.507
    40   1 H        0.926     0.031     2.569     2.506
    41   1 H        0.926     0.030     2.580     2.512
    42   1 H        0.926     0.031     2.576     2.510
    43   1 H        0.926     0.028     2.616     2.529
    44   1 H        0.926     0.028     2.618     2.530
    45   1 H        0.926     0.031     2.578     2.511
    46   1 H        0.926     0.030     2.582     2.513
    47   1 H        0.926     0.031     2.570     2.507
    48   1 H        0.926     0.032     2.564     2.504
    49   1 H        0.926     0.033     2.550     2.497
    50   1 H        0.926     0.031     2.567     2.506
    51   1 H        0.926     0.030     2.580     2.512
    52   1 H        0.926     0.030     2.589     2.516
    53   1 H        0.926     0.029     2.603     2.523
    54   1 H        0.926     0.029     2.602     2.523
    55   1 H        0.926     0.030     2.590     2.516
    56   1 H        0.926     0.032     2.560     2.502
    57   1 H        0.926     0.030     2.589     2.516

molecular dipole:
                 x           y           z       tot (Debye)
 q only:        0.006       0.007       0.002
   full:       -0.006       0.011       0.002       0.033

 projected vibrational frequencies (cm⁻¹)
eigval :       -0.00    -0.00    -0.00     0.00     0.00     0.00
eigval :       18.58    22.78    26.42    41.94    48.70    51.78
eigval :       79.69    85.64   122.22   128.94   142.60   157.83
eigval :      172.59   183.18   208.77   233.30   239.85   248.66
eigval :      283.88   310.76   327.97   347.33   367.84   387.26
eigval :      394.53   414.38   415.19   427.25   442.12   448.29
eigval :      453.35   472.70   482.63   498.36   500.05   506.75
eigval :      525.99   538.68   549.89   569.77   589.18   592.82
eigval :      604.61   608.98   631.88   646.56   656.77   688.24
eigval :      690.08   706.73   712.58   724.22   739.65   753.99
eigval :      756.99   762.48   769.82   776.29   786.27   802.13
eigval :      824.05   840.82   852.17   873.49   878.73   878.97
eigval :      879.96   881.63   885.54   897.03   900.43   910.46
eigval :      911.36   911.73   914.88   917.14   924.97   927.27
eigval :      927.61   928.00   928.52   931.93   972.26  1009.06
eigval :     1011.65  1073.60  1073.87  1077.10  1077.86  1079.19
eigval :     1084.30  1134.46  1143.76  1145.35  1155.25  1168.10
eigval :     1176.54  1177.78  1178.36  1179.81  1181.51  1195.13
eigval :     1210.28  1211.35  1224.80  1228.10  1234.64  1248.02
eigval :     1261.36  1261.65  1261.68  1278.50  1285.36  1301.22
eigval :     1323.74  1327.44  1333.77  1362.21  1366.75  1372.07
eigval :     1400.61  1420.33  1428.20  1429.06  1431.91  1435.01
eigval :     1446.10  1461.81  1462.41  1472.30  1482.53  1504.41
eigval :     1562.43  1574.71  1585.48  1593.37  1596.04  1597.03
eigval :     1602.33  1604.69  1604.97  1609.18  1611.70  3065.97
eigval :     3066.90  3069.54  3072.05  3072.46  3072.89  3073.14
eigval :     3076.13  3076.56  3077.38  3077.43  3078.91  3079.50
eigval :     3083.48  3083.93  3084.37  3085.42  3087.86  3088.98
eigval :     3091.38  3092.03  3092.75

   temp. (K)  partition function   enthalpy   heat capacity  entropy
                                   cal/mol     cal/K/mol   cal/K/mol   J/K/mol
 298.15  VIB  0.194E+11            14525.195     97.765     87.411
         ROT  0.297E+08              888.752      2.981     37.175
         INT  0.576E+18            15413.948    100.746    124.586
         TR   0.901E+28             1481.254      4.968     44.132
         TOT                       16895.2016   105.7140   168.7172   705.9130

       T/K    H(0)-H(T)+PV         H(T)/Eh          T*S/Eh         G(T)/Eh
   ------------------------------------------------------------------------
    298.15    0.269242E-01    0.468112E+00    0.801630E-01    0.387949E+00
   ------------------------------------------------------------------------

         :::::::::::::::::::::::::::::::::::::::::::::::::::::
         ::                  THERMODYNAMIC                  ::
         :::::::::::::::::::::::::::::::::::::::::::::::::::::
         :: total free energy         -85.801659942629 Eh   ::
         ::.................................................::
         :: total energy              -86.189608748747 Eh   ::
         :: zero point energy           0.441187596649 Eh   ::
         :: G(RRHO) w/o ZPVE           -0.053238790531 Eh   ::
         :: G(RRHO) contrib.            0.387948806118 Eh   ::
         :::::::::::::::::::::::::::::::::::::::::::::::::::::

           -------------------------------------------------
          | TOTAL ENERGY              -86.189608748747 Eh   |
          | TOTAL ENTHALPY            -85.721496934578 Eh   |
          | TOTAL FREE ENERGY         -85.801659942629 Eh   |
          | GRADIENT NORM               0.000032413429 Eh/α |
          | HOMO-LUMO GAP               2.868254904474 eV   |
           -------------------------------------------------

 * finished run on 2025/09/10 at 08:50:12.891
