   * xtb version 6.7.1 (edcfbbe) compiled by 'albert@albert-system' on 2024-07-22

   ID    Z sym.   atoms
    1    6 C      1-35
    2    1 H      36-57

          program call               : xtb data2507/gas/2SBFN/2SBFN.xyz --gfn 2 --ohess vtight --parallel 40 --molden --ceasefiles --namespace data2507/gas/2SBFN/2SBFN_gas_S0_preOpt
          :  Hamiltonian                  GFN2-xTB          :
 * total energy  :   -86.1798855 Eh     change       -0.1088281E-08 Eh
 * total energy  :   -86.1873430 Eh     change       -0.7457494E-02 Eh
 * total energy  :   -86.1887257 Eh     change       -0.1382764E-02 Eh
 * total energy  :   -86.1889739 Eh     change       -0.2481218E-03 Eh
 * total energy  :   -86.1891001 Eh     change       -0.1262718E-03 Eh
 * total energy  :   -86.1891375 Eh     change       -0.3734121E-04 Eh
 * total energy  :   -86.1891999 Eh     change       -0.6242881E-04 Eh
 * total energy  :   -86.1892298 Eh     change       -0.2993155E-04 Eh
 * total energy  :   -86.1892790 Eh     change       -0.4913140E-04 Eh
 * total energy  :   -86.1893430 Eh     change       -0.6399767E-04 Eh
 * total energy  :   -86.1895567 Eh     change       -0.9826194E-06 Eh
 * total energy  :   -86.1895575 Eh     change       -0.7921443E-06 Eh
 * total energy  :   -86.1895582 Eh     change       -0.7115568E-06 Eh
 * total energy  :   -86.1895588 Eh     change       -0.5247066E-06 Eh
 * total energy  :   -86.1895593 Eh     change       -0.5322917E-06 Eh
 * total energy  :   -86.1895599 Eh     change       -0.5874072E-06 Eh
 * total energy  :   -86.1895603 Eh     change       -0.4267840E-06 Eh
 * total energy  :   -86.1895605 Eh     change       -0.1465062E-06 Eh
 * total energy  :   -86.1895605 Eh     change       -0.3964547E-07 Eh
   *** GEOMETRY OPTIMIZATION CONVERGED AFTER 42 ITERATIONS ***

 final structure:
================
57
 xtb: 6.7.1 (edcfbbe)
C           -1.98709520137054        3.58993689837488        2.31659364637990
C           -1.90579539848110        2.38863959842832        3.00473629741976
C           -1.94785852739082        1.17700726112075        2.32778084487474
C           -2.07255026501074        1.19681044797781        0.95610765389581
C           -2.15422390121932        2.40832044206606        0.25448331835251
C           -2.11184927943554        3.61305483344554        0.93663381776264
C           -2.27550258143630        2.11178785273671       -1.16429361098716
C           -2.39050577680035        2.94380391368960       -2.26561069033968
C           -2.49365307917976        2.36973661616767       -3.52259128755010
C           -2.48181624728553        0.99196107594964       -3.67983132570188
C           -2.36686576706452        0.15156830856251       -2.58054557742546
C           -2.26477070498154        0.71923084514755       -1.32971245275498
C           -2.13650543919521        0.02644272661801        0.00515171438211
C           -3.27079370842072       -0.92659595217272        0.29508633319999
C           -4.62032637526320       -0.65703045086146        0.34877302958902
C           -5.49155853123980       -1.70013984266750        0.63362856171095
C           -5.01463395752932       -2.98283352137635        0.85839321648057
C           -3.65756390660696       -3.25743263213834        0.80517783381393
C           -2.78217853289353       -2.22184389966726        0.52184431755931
C           -1.33443345156077       -2.19492994481002        0.40234982417576
C           -0.38159262031136       -3.19151440610532        0.53701790450637
C            0.95219749650101       -2.86521816891705        0.36979443297842
C            1.35407953679747       -1.56148833478062        0.07538562484463
C            2.77963671581148       -1.24007347286462       -0.07620777825516
C            3.63842438097742       -2.12544561587966       -0.76486444088723
C            4.96592426245074       -1.84571074402539       -0.90789811425803
C            5.52210578978127       -0.66770870045700       -0.36594476667871
C            6.89050097585746       -0.35333808490838       -0.48915794402079
C            7.39364284456815        0.79738487914607        0.05053522928358
C            6.55056496268545        1.68581375689258        0.73675498614579
C            5.21930519497971        1.40947906154851        0.87235519539763
C            4.66850349294084        0.23014962959300        0.32706758150885
C            3.30166233706259       -0.08265272370636        0.45202198953206
C            0.38948282878457       -0.55980204784263       -0.06107033426726
C           -0.93628943233044       -0.88415106189275        0.10075216444071
H           -1.95244490224927        4.52021023909971        2.86497459231519
H           -1.80860270867457        2.39546374181852        4.08048746474850
H           -1.88441170115010        0.24057013428492        2.86300521560399
H           -2.17426101360988        4.55124153408905        0.40531002282248
H           -2.40048800938164        4.01737548042412       -2.14837936020740
H           -2.58487214831347        3.00346173825828       -4.39283952793381
H           -2.56358448028714        0.56728309329219       -4.66958453699353
H           -2.35839622951643       -0.92195717767664       -2.70214158006221
H           -4.99117986791166        0.34246887593750        0.17326212723851
H           -6.55376206531489       -1.51005535510257        0.68054493032240
H           -5.71187749664247       -3.77836005160620        1.07807759085588
H           -3.29087859730863       -4.25791873862080        0.98115340502583
H           -0.67144572172857       -4.20482636959652        0.77300475934057
H            1.70454096477064       -3.63064822838614        0.49408210834323
H            3.22312512339144       -3.02313514469467       -1.19940922007968
H            5.61373542753198       -2.52597197421997       -1.44302286752198
H            7.53541876204671       -1.04072315474230       -1.01847879513553
H            8.44369191332421        1.03209600474572       -0.04640575044087
H            6.96546122643976        2.59053476207888        1.15701142140603
H            4.56622185268338        2.09064696180723        1.39961668776420
H            2.66392125079035        0.59880664070355        0.99780432063296
H            0.68242128692175        0.45022144571690       -0.30877120315426

          :  Hamiltonian                  GFN2-xTB          :
         :: gradient norm              0.000020838607 Eh/a0 ::
         :: HOMO-LUMO gap              2.869005836194 eV    ::
         :: SCC energy               -87.890712842822 Eh    ::
         :: -> dispersion             -0.079294299679 Eh    ::
         :: repulsion energy           1.701152342575 Eh    ::

    * Orbital Energies and Occupations

         #    Occupation            Energy/Eh            Energy/eV
      -------------------------------------------------------------
         1        2.0000           -0.6615472             -18.0016
       ...           ...                  ...                  ...
        69        2.0000           -0.4203832             -11.4392
        70        2.0000           -0.4193843             -11.4120
        71        2.0000           -0.4135951             -11.2545
        72        2.0000           -0.4123443             -11.2205
        73        2.0000           -0.4104455             -11.1688
        74        2.0000           -0.4100489             -11.1580
        75        2.0000           -0.4005181             -10.8987
        76        2.0000           -0.3974506             -10.8152
        77        2.0000           -0.3940905             -10.7237
        78        2.0000           -0.3935195             -10.7082
        79        2.0000           -0.3825353             -10.4093
        80        2.0000           -0.3786540             -10.3037
        81        2.0000           -0.3693464             -10.0504 (HOMO)
        82                         -0.2639123              -7.1814 (LUMO)
        83                         -0.2512202              -6.8360
        84                         -0.2494535              -6.7880
        85                         -0.2256540              -6.1404
        86                         -0.2246000              -6.1117
        87                         -0.2242830              -6.1031
        88                         -0.2231739              -6.0729
        89                         -0.2150577              -5.8520
        90                         -0.1918983              -5.2218
        91                         -0.1886902              -5.1345
        92                         -0.1810926              -4.9278
       ...                                ...                  ...
       162                          0.7343614              19.9830
      -------------------------------------------------------------
                  HL-Gap            0.1054340 Eh            2.8690 eV

     #   Z          covCN         q      C6AA      α(0)
     1   6 C        2.921    -0.033    28.812     8.802
     2   6 C        2.923    -0.032    28.790     8.799
     3   6 C        2.914    -0.033    28.814     8.802
     4   6 C        3.057     0.007    27.819     8.650
     5   6 C        3.036     0.001    27.966     8.674
     6   6 C        2.915    -0.034    28.841     8.806
     7   6 C        3.037     0.001    27.969     8.674
     8   6 C        2.915    -0.034    28.838     8.806
     9   6 C        2.921    -0.032    28.807     8.802
    10   6 C        2.923    -0.031    28.783     8.798
    11   6 C        2.914    -0.032    28.809     8.801
    12   6 C        3.057     0.007    27.817     8.649
    13   6 C        3.979     0.009    20.350     6.409
    14   6 C        3.057     0.007    27.820     8.650
    15   6 C        2.914    -0.033    28.812     8.802
    16   6 C        2.923    -0.032    28.788     8.799
    17   6 C        2.921    -0.032    28.808     8.802
    18   6 C        2.915    -0.034    28.845     8.807
    19   6 C        3.036     0.001    27.960     8.673
    20   6 C        3.037    -0.001    28.019     8.682
    21   6 C        2.913    -0.035    28.866     8.810
    22   6 C        2.926    -0.037    28.928     8.820
    23   6 C        2.980     0.008    27.839     8.655
    24   6 C        2.974     0.009    27.807     8.650
    25   6 C        2.920    -0.035    28.863     8.810
    26   6 C        2.916    -0.036    28.902     8.816
    27   6 C        2.987     0.011    27.754     8.642
    28   6 C        2.918    -0.035    28.870     8.811
    29   6 C        2.916    -0.031    28.763     8.794
    30   6 C        2.916    -0.030    28.752     8.793
    31   6 C        2.918    -0.035    28.875     8.812
    32   6 C        2.986     0.012    27.729     8.638
    33   6 C        2.925    -0.041    29.007     8.832
    34   6 C        2.919    -0.038    28.941     8.822
    35   6 C        3.054     0.006    27.834     8.652
    36   1 H        0.926     0.030     2.582     2.513
    37   1 H        0.926     0.031     2.578     2.511
    38   1 H        0.926     0.028     2.617     2.530
    39   1 H        0.926     0.031     2.570     2.507
    40   1 H        0.926     0.031     2.569     2.506
    41   1 H        0.926     0.030     2.580     2.512
    42   1 H        0.926     0.031     2.576     2.510
    43   1 H        0.926     0.028     2.616     2.529
    44   1 H        0.926     0.028     2.618     2.530
    45   1 H        0.926     0.031     2.578     2.511
    46   1 H        0.926     0.030     2.582     2.513
    47   1 H        0.926     0.031     2.570     2.507
    48   1 H        0.926     0.031     2.566     2.505
    49   1 H        0.926     0.033     2.549     2.497
    50   1 H        0.926     0.032     2.564     2.504
    51   1 H        0.926     0.031     2.579     2.511
    52   1 H        0.926     0.030     2.588     2.516
    53   1 H        0.926     0.029     2.603     2.523
    54   1 H        0.926     0.029     2.602     2.523
    55   1 H        0.926     0.030     2.588     2.516
    56   1 H        0.926     0.032     2.563     2.504
    57   1 H        0.926     0.030     2.590     2.517

molecular dipole:
                 x           y           z       tot (Debye)
 q only:        0.013      -0.011      -0.009
   full:        0.003      -0.006      -0.008       0.025

 projected vibrational frequencies (cm⁻¹)
eigval :       -0.00    -0.00    -0.00     0.00     0.00     0.00
eigval :       16.56    22.89    27.59    43.26    47.29    51.59
eigval :       78.61    86.79   121.03   128.06   139.81   162.55
eigval :      170.26   191.45   209.93   233.39   242.75   245.86
eigval :      283.34   309.96   327.00   347.36   369.57   387.19
eigval :      393.82   412.14   414.43   417.87   446.24   449.20
eigval :      453.16   473.41   483.23   498.29   500.09   506.86
eigval :      528.13   538.69   549.13   570.04   588.86   592.35
eigval :      604.25   609.29   631.58   648.02   657.19   688.24
eigval :      690.02   706.76   713.18   724.04   739.65   753.97
eigval :      757.14   762.68   770.24   776.28   786.29   802.43
eigval :      823.61   841.18   851.80   872.85   878.73   878.93
eigval :      879.73   879.85   889.14   897.10   901.15   910.42
eigval :      911.25   911.44   913.75   916.50   925.01   927.26
eigval :      927.62   927.99   928.56   931.76   970.35  1009.07
eigval :     1011.13  1073.44  1073.87  1077.02  1078.13  1079.22
eigval :     1085.21  1134.45  1143.75  1143.88  1155.22  1171.25
eigval :     1177.26  1178.34  1178.58  1179.77  1181.63  1195.36
eigval :     1210.29  1213.73  1224.77  1227.36  1232.62  1248.33
eigval :     1260.95  1261.68  1262.53  1276.87  1285.37  1299.84
eigval :     1322.85  1327.43  1334.50  1362.50  1366.72  1373.66
eigval :     1399.49  1419.98  1427.84  1429.07  1431.88  1434.40
eigval :     1449.88  1460.69  1462.43  1472.32  1480.72  1505.67
eigval :     1561.82  1575.36  1585.48  1593.85  1595.43  1596.76
eigval :     1602.17  1604.68  1605.03  1609.28  1611.58  3065.91
eigval :     3067.06  3069.45  3071.63  3072.40  3072.81  3073.10
eigval :     3075.35  3076.54  3077.23  3077.39  3078.96  3081.22
eigval :     3083.41  3083.55  3084.48  3085.38  3087.76  3089.08
eigval :     3091.32  3092.00  3092.70

   temp. (K)  partition function   enthalpy   heat capacity  entropy
                                   cal/mol     cal/K/mol   cal/K/mol   J/K/mol
 298.15  VIB  0.206E+11            14523.729     97.763     87.458
         ROT  0.286E+08              888.752      2.981     37.099
         INT  0.587E+18            15412.482    100.744    124.557
         TR   0.901E+28             1481.254      4.968     44.132
         TOT                       16893.7356   105.7119   168.6885   705.7927

       T/K    H(0)-H(T)+PV         H(T)/Eh          T*S/Eh         G(T)/Eh
   ------------------------------------------------------------------------
    298.15    0.269219E-01    0.468113E+00    0.801494E-01    0.387963E+00
   ------------------------------------------------------------------------

         :::::::::::::::::::::::::::::::::::::::::::::::::::::
         ::                  THERMODYNAMIC                  ::
         :::::::::::::::::::::::::::::::::::::::::::::::::::::
         :: total free energy         -85.801597285278 Eh   ::
         ::.................................................::
         :: total energy              -86.189560500247 Eh   ::
         :: zero point energy           0.441190683961 Eh   ::
         :: G(RRHO) w/o ZPVE           -0.053227468991 Eh   ::
         :: G(RRHO) contrib.            0.387963214969 Eh   ::
         :::::::::::::::::::::::::::::::::::::::::::::::::::::

           -------------------------------------------------
          | TOTAL ENERGY              -86.189560500247 Eh   |
          | TOTAL ENTHALPY            -85.721447934973 Eh   |
          | TOTAL FREE ENERGY         -85.801597285278 Eh   |
          | GRADIENT NORM               0.000020839413 Eh/α |
          | HOMO-LUMO GAP               2.869005675631 eV   |
           -------------------------------------------------

 * finished run on 2025/09/10 at 08:48:06.960
