   * xtb version 6.7.1 (edcfbbe) compiled by 'albert@albert-system' on 2024-07-22

   ID    Z sym.   atoms
    1    7 N      1, 5, 12, 31
    2    6 C      2-4, 6-11, 13-30, 32-44
    3    1 H      45-72

          program call               : xtb data2507/toluene/3-DPM/3-DPM_toluene_T1_crest.xyz --gfn 2 --uhf 2 --gbsa toluene --ohess vtight --parallel 40 --molden --ceasefiles --namespace data2507/toluene/3-DPM/3-DPM_toluene_T1_finalOpt
      * Solvation model:               GBSA
        Solvent                        toluene
        Solvent mass                       9.2140E+01 g/mol
          :  Hamiltonian                  GFN2-xTB          :
 * total energy  :  -111.5224975 Eh     change        0.7701857E-09 Eh
 * total energy  :  -111.5226164 Eh     change       -0.1188772E-03 Eh
 * total energy  :  -111.5226768 Eh     change       -0.6043239E-04 Eh
 * total energy  :  -111.5227025 Eh     change       -0.2564268E-04 Eh
 * total energy  :  -111.5227330 Eh     change       -0.3055288E-04 Eh
 * total energy  :  -111.5227602 Eh     change       -0.2720832E-04 Eh
 * total energy  :  -111.5227891 Eh     change       -0.2891763E-04 Eh
 * total energy  :  -111.5228101 Eh     change       -0.2099683E-04 Eh
 * total energy  :  -111.5228296 Eh     change       -0.1943824E-04 Eh
 * total energy  :  -111.5228464 Eh     change       -0.1680906E-04 Eh
 * total energy  :  -111.5230265 Eh     change       -0.4671173E-06 Eh
 * total energy  :  -111.5230270 Eh     change       -0.4683319E-06 Eh
 * total energy  :  -111.5230275 Eh     change       -0.5059432E-06 Eh
 * total energy  :  -111.5230279 Eh     change       -0.4746710E-06 Eh
 * total energy  :  -111.5230283 Eh     change       -0.3627148E-06 Eh
 * total energy  :  -111.5230286 Eh     change       -0.2738950E-06 Eh
 * total energy  :  -111.5230288 Eh     change       -0.2005851E-06 Eh
 * total energy  :  -111.5230289 Eh     change       -0.1528630E-06 Eh
 * total energy  :  -111.5230289 Eh     change       -0.3724807E-09 Eh
   *** GEOMETRY OPTIMIZATION CONVERGED AFTER 68 ITERATIONS ***

 final structure:
================
72
 xtb: 6.7.1 (edcfbbe)
N            1.59423988736927        2.90805230088642       -1.44862114665551
C            0.89103816460073        2.25119478656336       -0.80396254809780
C           -0.00758527204674        1.50687188017956       -0.05385455420663
C           -0.90726261386961        2.28646845527156        0.65785297938533
N           -1.61104442347336        2.97723275752658        1.26551987587667
C           -0.00414435565582        0.07648151685986       -0.02483307641865
C            1.19172569832079       -0.63637836812278       -0.38891066418106
C            1.11544124142820       -1.89571736252105       -1.02262759140352
C            2.25660070091126       -2.58548449509411       -1.37236000693650
C            3.51028087953963       -2.06321731084990       -1.10580872528569
C            3.61429566138603       -0.81336136548169       -0.47687215027469
N            4.87669975848500       -0.29339178753309       -0.17998778637069
C            5.11705715527886        1.07938211362007       -0.27920414544194
C            5.94256284991509        1.71753516762451        0.65079280060388
C            6.18965554585575        3.07112786010524        0.54193733903840
C            5.62272349694264        3.80641543404571       -0.48881613012239
C            4.80190252741161        3.17791101125026       -1.41243651554663
C            4.54642982754898        1.82488711019162       -1.31299090398919
C            5.90082869819310       -1.14963568649473        0.22874176370656
C            5.61936890137500       -2.25532704633970        1.03594742147967
C            6.63617448129581       -3.10150424298738        1.43223768116610
C            7.94367456020934       -2.86067429059677        1.03817992657878
C            8.22887179132698       -1.76367497228582        0.23867467684537
C            7.22028567365938       -0.91239742093274       -0.16659888297196
C            2.46656841974992       -0.11035331790605       -0.13588910404556
C           -1.19066001174783       -0.63644084566223        0.36087436910710
C           -1.10113259670645       -1.89091445642700        1.00459692369255
C           -2.23401957620812       -2.58482160982097        1.37149432870347
C           -3.49410170265077       -2.07178150442323        1.11611717997650
C           -3.61138244327579       -0.82600364084980        0.48137536407876
N           -4.87981509456164       -0.31085887800551        0.20046258210887
C           -5.12160862061980        1.06100823277142        0.30883392887766
C           -5.95522432496176        1.70366509936015       -0.61057795890305
C           -6.20146833956607        3.05663770641988       -0.49219333444215
C           -5.62638798985560        3.78618072933364        0.53807033341077
C           -4.79790165267755        3.15297729531698        1.45162338768914
C           -4.54241968553279        1.80086751486368        1.34196167584858
C           -5.90464379369423       -1.16926091343592       -0.19951981850876
C           -7.22228042900776       -0.93361740908618        0.20330977679493
C           -8.23157575503150       -1.78801061381145       -0.19336073886860
C           -7.94916517481824       -2.88682753004655       -0.99141406657190
C           -6.64359259717491       -3.12623114913764       -1.39276779364375
C           -5.62607108874774       -2.27694512210531       -1.00526905362099
C           -2.47244177272697       -0.11958574902758        0.12044510637364
H            0.14467137808005       -2.30175898908967       -1.26406071591894
H            2.17359757115875       -3.53847627229520       -1.87392818147547
H            4.40298222766842       -2.59196553227435       -1.40110458275108
H            6.36869372061231        1.14736577245149        1.46320246124359
H            6.82047717482633        3.55767445834715        1.27091903179152
H            5.81597029953507        4.86528223507309       -0.56919750181918
H            4.35013892545493        3.74104319642637       -2.21378785905625
H            3.90900884345413        1.33885868426849       -2.03578045139899
H            4.60396379747311       -2.43096946534091        1.35854379117083
H            6.40750838761681       -3.94895051900572        2.06109835450079
H            8.73562452257633       -3.52341227487349        1.35174464873771
H            9.24341273442034       -1.57472960767691       -0.07866552582421
H            7.43913271697231       -0.06848529073222       -0.80367851926926
H            2.56265141426531        0.83660583661641        0.37607272773699
H           -0.12575075152337       -2.29001562915580        1.23875119196910
H           -2.13961149103521       -3.53390079522083        1.87847005785778
H           -4.38057732123978       -2.60311058628109        1.42512606628853
H           -6.38773761236043        1.13773629789378       -1.42259742890631
H           -6.83805786504450        3.54719933299270       -1.21343660481826
H           -5.81899902989489        4.84457113682906        0.62570857872097
H           -4.34068395378918        3.71260125642959        2.25229072149238
H           -3.89934962325856        1.30974062827208        2.05643009606752
H           -7.43896757227166       -0.08856622239017        0.83959578638888
H           -9.24455285799831       -1.60013733723653        0.12958580408831
H           -8.74170853561007       -3.55201461063932       -1.29820580462336
H           -6.41708430674711       -3.97508172121311       -2.02052071741442
H           -4.61239019809032       -2.45145287277004       -1.33384426976804
H           -2.58123173244084        0.82285577068934       -0.39698423713985

          :  Hamiltonian                  GFN2-xTB          :
         :: gradient norm              0.000031771661 Eh/a0 ::
         :: HOMO-LUMO gap              1.376294580722 eV    ::
         :: SCC energy              -113.670341836742 Eh    ::
         :: -> dispersion             -0.102706516265 Eh    ::
         :: -> Gsolv                  -0.059715081723 Eh    ::
         :: repulsion energy           2.147312910032 Eh    ::

    * Orbital Energies and Occupations

         #    Occupation            Energy/Eh            Energy/eV
      -------------------------------------------------------------
         1        2.0000           -0.6825490             -18.5731
       ...           ...                  ...                  ...
        93        2.0000           -0.4189144             -11.3992
        94        2.0000           -0.4172810             -11.3548
        95        2.0000           -0.4168604             -11.3433
        96        2.0000           -0.4156585             -11.3106
        97        2.0000           -0.4138503             -11.2614
        98        2.0000           -0.4126403             -11.2285
        99        2.0000           -0.4116728             -11.2022
       100        2.0000           -0.4038365             -10.9890
       101        2.0000           -0.4007446             -10.9048
       102        1.9994           -0.3704043             -10.0792
       103        1.7546           -0.3644079              -9.9160
       104        1.2460           -0.3622762              -9.8580
       105        1.0000           -0.2945497              -8.0151 (HOMO)
       106                         -0.2439711              -6.6388 (LUMO)
       107                         -0.2431596              -6.6167
       108                         -0.2414063              -6.5690
       109                         -0.2376726              -6.4674
       110                         -0.2370487              -6.4504
       111                         -0.2364912              -6.4353
       112                         -0.2322749              -6.3205
       113                         -0.2304385              -6.2706
       114                         -0.2302878              -6.2664
       115                         -0.2101861              -5.7195
       116                         -0.2074647              -5.6454
       ...                                ...                  ...
       204                          1.1791586              32.0865
      -------------------------------------------------------------
                  HL-Gap            0.0505786 Eh            1.3763 eV

     #   Z          covCN         q      C6AA      α(0)
     1   7 N        0.911    -0.368    29.488     7.854
     2   6 C        1.941     0.111    28.344     8.598
     3   6 C        2.952    -0.042    29.043     8.839
     4   6 C        1.941     0.111    28.345     8.598
     5   7 N        0.911    -0.368    29.496     7.855
     6   6 C        2.971    -0.025    28.627     8.776
     7   6 C        2.971     0.009    27.808     8.650
     8   6 C        2.923    -0.038    28.950     8.823
     9   6 C        2.913    -0.030    28.754     8.793
    10   6 C        2.920    -0.051    29.261     8.871
    11   6 C        2.921     0.063    26.585     8.455
    12   7 N        2.754    -0.035    21.919     6.953
    13   6 C        2.925     0.065    26.548     8.450
    14   6 C        2.921    -0.042    29.054     8.839
    15   6 C        2.918    -0.027    28.668     8.780
    16   6 C        2.919    -0.028    28.699     8.785
    17   6 C        2.919    -0.019    28.485     8.752
    18   6 C        2.921    -0.032    28.790     8.799
    19   6 C        2.926     0.066    26.519     8.445
    20   6 C        2.921    -0.040    28.983     8.828
    21   6 C        2.918    -0.025    28.629     8.774
    22   6 C        2.919    -0.029    28.718     8.788
    23   6 C        2.918    -0.025    28.623     8.773
    24   6 C        2.921    -0.040    28.999     8.831
    25   6 C        2.924    -0.051    29.268     8.872
    26   6 C        2.971     0.009    27.818     8.651
    27   6 C        2.923    -0.038    28.957     8.825
    28   6 C        2.913    -0.030    28.756     8.793
    29   6 C        2.920    -0.051    29.268     8.872
    30   6 C        2.922     0.063    26.589     8.456
    31   7 N        2.754    -0.035    21.916     6.953
    32   6 C        2.926     0.065    26.545     8.449
    33   6 C        2.921    -0.042    29.051     8.839
    34   6 C        2.918    -0.027    28.666     8.780
    35   6 C        2.919    -0.028    28.689     8.783
    36   6 C        2.919    -0.018    28.465     8.749
    37   6 C        2.921    -0.031    28.783     8.798
    38   6 C        2.926     0.066    26.516     8.445
    39   6 C        2.921    -0.040    29.001     8.831
    40   6 C        2.918    -0.025    28.623     8.773
    41   6 C        2.919    -0.029    28.718     8.788
    42   6 C        2.918    -0.025    28.629     8.774
    43   6 C        2.921    -0.040    28.984     8.829
    44   6 C        2.924    -0.052    29.282     8.874
    45   1 H        0.926     0.036     2.499     2.472
    46   1 H        0.926     0.041     2.437     2.441
    47   1 H        0.926     0.041     2.437     2.441
    48   1 H        0.926     0.045     2.382     2.413
    49   1 H        0.926     0.047     2.355     2.400
    50   1 H        0.926     0.045     2.382     2.414
    51   1 H        0.926     0.051     2.306     2.375
    52   1 H        0.926     0.041     2.431     2.438
    53   1 H        0.926     0.043     2.412     2.429
    54   1 H        0.926     0.047     2.359     2.402
    55   1 H        0.926     0.047     2.361     2.403
    56   1 H        0.926     0.048     2.348     2.396
    57   1 H        0.926     0.045     2.387     2.416
    58   1 H        0.926     0.023     2.690     2.565
    59   1 H        0.926     0.036     2.501     2.473
    60   1 H        0.926     0.041     2.441     2.443
    61   1 H        0.926     0.041     2.441     2.443
    62   1 H        0.926     0.045     2.382     2.413
    63   1 H        0.926     0.047     2.355     2.400
    64   1 H        0.926     0.045     2.379     2.412
    65   1 H        0.926     0.051     2.306     2.375
    66   1 H        0.926     0.040     2.444     2.445
    67   1 H        0.926     0.045     2.386     2.416
    68   1 H        0.926     0.048     2.348     2.396
    69   1 H        0.926     0.047     2.361     2.403
    70   1 H        0.926     0.047     2.360     2.402
    71   1 H        0.926     0.043     2.413     2.429
    72   1 H        0.926     0.023     2.689     2.564

molecular dipole:
                 x           y           z       tot (Debye)
 q only:        0.007      -3.273       0.118
   full:        0.007      -3.552       0.124       9.034

 projected vibrational frequencies (cm⁻¹)
eigval :       -0.00    -0.00    -0.00    -0.00     0.00     0.00
eigval :        9.39    14.90    19.17    23.12    34.81    36.78
eigval :       40.36    60.83    65.11    66.33    72.22    72.31
eigval :       77.32    79.91    85.82    87.62   108.04   111.41
eigval :      130.98   135.67   177.25   193.50   209.70   224.58
eigval :      228.30   231.84   239.49   239.78   257.25   279.47
eigval :      288.16   299.12   324.90   328.13   335.91   362.54
eigval :      376.42   377.12   381.37   382.98   384.42   386.84
eigval :      404.00   413.80   421.02   438.11   441.36   466.22
eigval :      470.31   471.13   502.31   502.68   523.09   554.67
eigval :      578.03   580.16   581.37   583.34   587.25   589.04
eigval :      593.82   597.36   598.56   611.09   622.96   645.91
eigval :      650.05   657.15   659.00   659.61   663.01   668.27
eigval :      704.09   744.35   755.77   756.65   759.88   765.99
eigval :      772.95   780.26   854.47   858.36   865.60   866.90
eigval :      869.20   870.66   872.77   878.05   879.40   895.67
eigval :      896.44   897.17   899.80   901.90   908.34   908.87
eigval :      915.01   922.15   926.08   926.58   927.21   928.84
eigval :      929.07   930.60   931.48   931.63   969.95   971.35
eigval :      978.51   987.09  1000.53  1000.62  1015.38  1049.10
eigval :     1078.42  1078.67  1080.38  1080.59  1120.11  1120.59
eigval :     1122.40  1122.73  1133.02  1136.45  1167.23  1170.47
eigval :     1177.16  1178.01  1178.22  1178.60  1183.17  1188.29
eigval :     1189.37  1189.73  1194.12  1201.24  1221.69  1250.00
eigval :     1266.73  1271.02  1272.16  1272.45  1272.62  1274.17
eigval :     1286.78  1292.05  1293.36  1301.54  1307.25  1318.23
eigval :     1318.57  1325.18  1325.30  1336.05  1340.85  1378.95
eigval :     1411.05  1415.48  1429.76  1430.40  1436.12  1437.09
eigval :     1438.82  1450.90  1451.56  1454.02  1455.17  1455.36
eigval :     1507.64  1514.78  1528.71  1559.68  1562.84  1563.82
eigval :     1566.57  1566.95  1577.37  1577.55  1585.00  1586.80
eigval :     2240.74  2309.98  3077.17  3077.84  3079.65  3079.93
eigval :     3080.22  3081.31  3081.88  3081.91  3083.31  3083.41
eigval :     3087.20  3087.41  3090.10  3090.91  3091.08  3091.46
eigval :     3092.14  3092.66  3094.32  3094.41  3095.35  3095.73
eigval :     3100.05  3100.57  3101.14  3101.63  3108.06  3108.30

   temp. (K)  partition function   enthalpy   heat capacity  entropy
                                   cal/mol     cal/K/mol   cal/K/mol   J/K/mol
 298.15  VIB  0.171E+18            21699.850    134.077    136.933
         ROT  0.659E+08              888.752      2.981     38.758
         INT  0.112E+26            22588.602    137.058    175.691
         TR   0.130E+29             1481.254      4.968     44.858
         TOT                       24069.8560   142.0265   220.5483   922.7741

       T/K    H(0)-H(T)+PV         H(T)/Eh          T*S/Eh         G(T)/Eh
   ------------------------------------------------------------------------
    298.15    0.383578E-01    0.585614E+00    0.104790E+00    0.480825E+00
   ------------------------------------------------------------------------

         :::::::::::::::::::::::::::::::::::::::::::::::::::::
         ::                  THERMODYNAMIC                  ::
         :::::::::::::::::::::::::::::::::::::::::::::::::::::
         :: total free energy        -111.042204228510 Eh   ::
         ::.................................................::
         :: total energy             -111.523028920498 Eh   ::
         :: zero point energy           0.547256549415 Eh   ::
         :: G(RRHO) w/o ZPVE           -0.066431857427 Eh   ::
         :: G(RRHO) contrib.            0.480824691988 Eh   ::
         :::::::::::::::::::::::::::::::::::::::::::::::::::::

           -------------------------------------------------
          | TOTAL ENERGY             -111.523028920498 Eh   |
          | TOTAL ENTHALPY           -110.937414613901 Eh   |
          | TOTAL FREE ENERGY        -111.042204228510 Eh   |
          | GRADIENT NORM               0.000033002902 Eh/α |
          | HOMO-LUMO GAP               1.376313585907 eV   |
           -------------------------------------------------

 * finished run on 2025/09/14 at 07:50:26.403
