   * xtb version 6.7.1 (edcfbbe) compiled by 'albert@albert-system' on 2024-07-22

   ID    Z sym.   atoms
    1    7 N      1, 5, 12, 31
    2    6 C      2-4, 6-11, 13-30, 32-44
    3    1 H      45-72

          program call               : xtb data2507/toluene/3-DPM/3-DPM.xyz --gfn 2 --gbsa toluene --ohess vtight --parallel 40 --molden --ceasefiles --namespace data2507/toluene/3-DPM/3-DPM_toluene_S0_preOpt
      * Solvation model:               GBSA
        Solvent                        toluene
        Solvent mass                       9.2140E+01 g/mol
          :  Hamiltonian                  GFN2-xTB          :
 * total energy  :  -111.5552454 Eh     change       -0.1595026E-08 Eh
 * total energy  :  -111.5690756 Eh     change       -0.1383023E-01 Eh
 * total energy  :  -111.5747138 Eh     change       -0.5638146E-02 Eh
 * total energy  :  -111.5757558 Eh     change       -0.1041989E-02 Eh
 * total energy  :  -111.5757660 Eh     change       -0.1025304E-04 Eh
 * total energy  :  -111.5767220 Eh     change       -0.9559834E-03 Eh
 * total energy  :  -111.5770498 Eh     change       -0.3278614E-03 Eh
 * total energy  :  -111.5774652 Eh     change       -0.4153509E-03 Eh
 * total energy  :  -111.5779514 Eh     change       -0.4861501E-03 Eh
 * total energy  :  -111.5782525 Eh     change       -0.3011010E-03 Eh
 * total energy  :  -111.5826950 Eh     change       -0.9277340E-06 Eh
 * total energy  :  -111.5826959 Eh     change       -0.8395177E-06 Eh
 * total energy  :  -111.5826966 Eh     change       -0.7279003E-06 Eh
 * total energy  :  -111.5826973 Eh     change       -0.6601593E-06 Eh
 * total energy  :  -111.5826979 Eh     change       -0.6564464E-06 Eh
 * total energy  :  -111.5826987 Eh     change       -0.7480411E-06 Eh
 * total energy  :  -111.5826996 Eh     change       -0.8915089E-06 Eh
 * total energy  :  -111.5827006 Eh     change       -0.1040845E-05 Eh
 * total energy  :  -111.5827006 Eh     change       -0.6613831E-08 Eh
   *** GEOMETRY OPTIMIZATION CONVERGED AFTER 122 ITERATIONS ***

 final structure:
================
72
 xtb: 6.7.1 (edcfbbe)
N            2.52279993880210       -4.73139037372412        0.26739595195514
C            1.45228158513234       -4.31605472915817        0.26488056119751
C            0.10823842946747       -3.88730949250830        0.23906431767334
C           -0.76795809308659       -4.76855085324246        0.90749507958491
N           -1.42926208391346       -5.50004476393995        1.49640167676071
C           -0.29409315940826       -2.74008288126355       -0.38423321740068
C            0.68399544675034       -1.80389135347204       -0.94004120451249
C            0.48239422378239       -1.29705498316604       -2.22543710024148
C            1.41279757426699       -0.43092337584371       -2.76885379500273
C            2.51164083931927       -0.02736547057776       -2.03666498873104
C            2.70617853596803       -0.49100543723364       -0.73050177606556
N            3.78067263842029       -0.04031595787688        0.02323144425998
C            4.28858253258780        1.25651876514925       -0.17297723443696
C            5.66426327156045        1.47853294226566       -0.15807787689915
C            6.16369583799837        2.75414548897078       -0.34210824463854
C            5.30401129785441        3.82104795371576       -0.54868285136249
C            3.93550018749817        3.60468534531973       -0.56128535756359
C            3.42658268056728        2.33421581522096       -0.36937745432825
C            4.36709655025695       -0.85012480111681        1.01150122223482
C            4.76182265651313       -0.29094146423501        2.22609705308518
C            5.35187049505830       -1.07995132502342        3.19508800341690
C            5.54911674237589       -2.43329601479618        2.97221556740223
C            5.15807340869048       -2.99247376707417        1.76642271911994
C            4.57573596848250       -2.20937986692645        0.78779195942862
C            1.79118182762406       -1.40260533462561       -0.20076391051810
C           -1.70821297822032       -2.40295504095137       -0.53047143493929
C           -2.65576161504211       -3.36685502198260       -0.87822371646198
C           -3.98255770568387       -2.99823671795489       -1.01251027361319
C           -4.38082312197949       -1.69438207463163       -0.79255837897477
C           -3.44538371719894       -0.71680133105493       -0.43375899109865
N           -3.84494176159896        0.59215633248641       -0.19541952936560
C           -5.11834597220783        0.85737539137711        0.33923947942408
C           -5.64479294802760        0.05644737940007        1.35136865568800
C           -6.89738517017064        0.32642846710486        1.86949207959367
C           -7.63571537855006        1.39910864584726        1.39600372852400
C           -7.11186656896390        2.20311852206694        0.39648611030723
C           -5.86372610205230        1.93587783156706       -0.13356225494306
C           -2.97851042211362        1.66859274865075       -0.44686516411716
C           -2.93012995795001        2.74847188095748        0.43368718302719
C           -2.08887009604251        3.81547451224947        0.18109170934238
C           -1.28107117468541        3.82009417800299       -0.94451681849808
C           -1.32578726583042        2.74916283466741       -1.82250208526254
C           -2.16922014204610        1.68114432273377       -1.58200567833025
C           -2.10561795407169       -1.08480417310819       -0.32134712137148
H           -0.37648784864194       -1.61344584840064       -2.79703503069691
H            1.28010009900751       -0.06501327764308       -3.77584915116303
H            3.23070990077701        0.65171138699221       -2.46906567648841
H            6.33428175465379        0.64556914754165       -0.00266459130819
H            7.23192551139911        2.91384081214312       -0.33157557116607
H            5.69833356280424        4.81509504987906       -0.69684323363413
H            3.25729277956291        4.43178290527264       -0.71179233958179
H            2.35912435015386        2.16893079543332       -0.36647676782100
H            4.60225431110832        0.76290530073019        2.40325926659440
H            5.65134537798143       -0.63595398829809        4.13329962058710
H            6.00554795868649       -3.04835499772879        3.73323430074273
H            5.30633221832569       -4.04525587901805        1.57956498558482
H            4.27625195178284       -2.65285638208207       -0.15024366950091
H            1.92384247464324       -1.76249495998128        0.80950238659072
H           -2.35085500277469       -4.38332117193277       -1.07505355079678
H           -4.71442471426314       -3.73767402882522       -1.30038187166274
H           -5.41888435197725       -1.42025038354073       -0.90385523288962
H           -5.06612647765278       -0.77397048447265        1.72981409438298
H           -7.29440956117732       -0.30036996574839        2.65460595527094
H           -8.61265147235482        1.60818845740498        1.80507431344586
H           -7.68229616957764        3.03981484109513        0.02063105679100
H           -5.45745669075072        2.55945901363762       -0.91655438782347
H           -3.55468439168832        2.74388917308253        1.31509627192238
H           -2.05954829287661        4.64463726715311        0.87281478346061
H           -0.62250601802039        4.65351426928294       -1.13754475757119
H           -0.70604563831599        2.74940960841597       -2.70697569893777
H           -2.20952196711890        0.85309604443942       -2.27414317675233
H           -1.36994493382278       -0.34868945707156       -0.03304937084922

          :  Hamiltonian                  GFN2-xTB          :
         :: gradient norm              0.000078987317 Eh/a0 ::
         :: HOMO-LUMO gap              1.182239783003 eV    ::
         :: SCC energy              -113.750364302170 Eh    ::
         :: -> dispersion             -0.102335556598 Eh    ::
         :: -> Gsolv                  -0.050757565648 Eh    ::
         :: repulsion energy           2.167663684502 Eh    ::

    * Orbital Energies and Occupations

         #    Occupation            Energy/Eh            Energy/eV
      -------------------------------------------------------------
         1        2.0000           -0.6818653             -18.5545
       ...           ...                  ...                  ...
        92        2.0000           -0.4251976             -11.5702
        93        2.0000           -0.4207352             -11.4488
        94        2.0000           -0.4175556             -11.3623
        95        2.0000           -0.4158085             -11.3147
        96        2.0000           -0.4129673             -11.2374
        97        2.0000           -0.4109566             -11.1827
        98        2.0000           -0.4108741             -11.1805
        99        2.0000           -0.4094216             -11.1409
       100        2.0000           -0.4090542             -11.1309
       101        2.0000           -0.4068121             -11.0699
       102        2.0000           -0.4057262             -11.0404
       103        2.0000           -0.3588385              -9.7645
       104        2.0000           -0.3569200              -9.7123 (HOMO)
       105                         -0.3134735              -8.5300 (LUMO)
       106                         -0.2476803              -6.7397
       107                         -0.2427955              -6.6068
       108                         -0.2401929              -6.5360
       109                         -0.2378866              -6.4732
       110                         -0.2353881              -6.4052
       111                         -0.2331931              -6.3455
       112                         -0.2303822              -6.2690
       113                         -0.2284465              -6.2163
       114                         -0.2266393              -6.1672
       115                         -0.2237603              -6.0888
       ...                                ...                  ...
       204                          1.1535643              31.3901
      -------------------------------------------------------------
                  HL-Gap            0.0434465 Eh            1.1822 eV

     #   Z          covCN         q      C6AA      α(0)
     1   7 N        0.911    -0.270    26.986     7.513
     2   6 C        1.929     0.126    27.993     8.544
     3   6 C        2.955    -0.002    28.067     8.689
     4   6 C        1.928     0.127    27.982     8.543
     5   7 N        0.911    -0.272    27.028     7.519
     6   6 C        2.980     0.044    27.008     8.525
     7   6 C        2.979     0.010    27.786     8.647
     8   6 C        2.923    -0.038    28.945     8.823
     9   6 C        2.917    -0.026    28.647     8.777
    10   6 C        2.923    -0.045    29.115     8.849
    11   6 C        2.919     0.071    26.409     8.427
    12   7 N        2.752    -0.076    22.710     7.078
    13   6 C        2.926     0.064    26.565     8.452
    14   6 C        2.922    -0.045    29.119     8.849
    15   6 C        2.919    -0.029    28.717     8.788
    16   6 C        2.919    -0.037    28.911     8.817
    17   6 C        2.919    -0.029    28.724     8.789
    18   6 C        2.922    -0.046    29.148     8.854
    19   6 C        2.924     0.062    26.604     8.459
    20   6 C        2.922    -0.047    29.179     8.858
    21   6 C        2.919    -0.030    28.751     8.793
    22   6 C        2.919    -0.037    28.924     8.819
    23   6 C        2.920    -0.028    28.689     8.784
    24   6 C        2.922    -0.045    29.111     8.848
    25   6 C        2.925    -0.049    29.213     8.864
    26   6 C        2.978     0.011    27.762     8.643
    27   6 C        2.920    -0.037    28.918     8.819
    28   6 C        2.917    -0.025    28.632     8.774
    29   6 C        2.922    -0.043    29.075     8.843
    30   6 C        2.919     0.071    26.416     8.428
    31   7 N        2.752    -0.074    22.669     7.071
    32   6 C        2.925     0.063    26.578     8.454
    33   6 C        2.922    -0.046    29.150     8.854
    34   6 C        2.919    -0.029    28.720     8.788
    35   6 C        2.919    -0.036    28.904     8.816
    36   6 C        2.919    -0.029    28.719     8.788
    37   6 C        2.922    -0.045    29.126     8.850
    38   6 C        2.924     0.063    26.588     8.456
    39   6 C        2.922    -0.046    29.151     8.854
    40   6 C        2.919    -0.029    28.726     8.789
    41   6 C        2.919    -0.037    28.925     8.819
    42   6 C        2.919    -0.030    28.739     8.791
    43   6 C        2.922    -0.048    29.181     8.859
    44   6 C        2.929    -0.049    29.211     8.863
    45   1 H        0.926     0.039     2.457     2.451
    46   1 H        0.926     0.048     2.347     2.396
    47   1 H        0.926     0.046     2.375     2.410
    48   1 H        0.926     0.034     2.529     2.487
    49   1 H        0.926     0.037     2.491     2.468
    50   1 H        0.926     0.036     2.503     2.474
    51   1 H        0.926     0.038     2.480     2.463
    52   1 H        0.926     0.034     2.535     2.490
    53   1 H        0.926     0.034     2.531     2.488
    54   1 H        0.926     0.036     2.500     2.473
    55   1 H        0.926     0.034     2.525     2.485
    56   1 H        0.926     0.040     2.449     2.447
    57   1 H        0.926     0.034     2.525     2.485
    58   1 H        0.926     0.030     2.589     2.516
    59   1 H        0.926     0.033     2.540     2.492
    60   1 H        0.926     0.047     2.359     2.402
    61   1 H        0.926     0.047     2.363     2.404
    62   1 H        0.926     0.032     2.552     2.498
    63   1 H        0.926     0.036     2.498     2.472
    64   1 H        0.926     0.036     2.508     2.476
    65   1 H        0.926     0.037     2.486     2.465
    66   1 H        0.926     0.035     2.510     2.478
    67   1 H        0.926     0.033     2.539     2.492
    68   1 H        0.926     0.036     2.500     2.473
    69   1 H        0.926     0.035     2.512     2.479
    70   1 H        0.926     0.037     2.491     2.468
    71   1 H        0.926     0.034     2.532     2.488
    72   1 H        0.926     0.040     2.447     2.446

molecular dipole:
                 x           y           z       tot (Debye)
 q only:       -0.630       2.874      -0.977
   full:       -0.763       3.101      -1.112       8.594

 projected vibrational frequencies (cm⁻¹)
eigval :       -0.00     0.00     0.00     0.00     0.00     0.00
eigval :        8.39    10.96    20.71    25.82    33.11    35.66
eigval :       45.06    48.42    56.59    58.50    59.69    66.81
eigval :       70.97    76.39    78.54    83.84    96.47   100.14
eigval :      122.58   162.14   176.38   190.25   213.69   214.97
eigval :      219.45   226.53   235.13   238.10   250.75   256.20
eigval :      292.64   296.93   318.89   324.89   328.16   357.45
eigval :      376.10   376.78   377.40   380.84   382.40   390.23
eigval :      395.76   421.58   432.03   441.33   443.32   477.03
eigval :      477.21   486.28   491.31   498.54   554.84   574.99
eigval :      579.26   581.93   582.25   586.08   589.83   593.53
eigval :      596.99   597.13   609.79   618.63   645.97   653.79
eigval :      659.28   662.04   663.84   666.29   670.83   680.76
eigval :      710.66   740.46   754.91   757.19   758.48   763.81
eigval :      789.85   792.61   868.43   869.71   870.76   874.91
eigval :      875.95   876.68   879.61   886.56   891.33   892.16
eigval :      893.93   895.43   897.14   898.28   908.71   909.03
eigval :      923.16   926.08   926.77   927.55   928.13   928.65
eigval :      929.06   929.51   930.29   930.58   974.27   976.05
eigval :      987.83   999.74  1003.84  1004.26  1022.27  1049.98
eigval :     1080.89  1081.59  1082.62  1082.97  1119.60  1120.12
eigval :     1121.72  1121.82  1136.31  1137.16  1168.16  1176.53
eigval :     1177.45  1179.69  1180.25  1181.15  1187.50  1189.47
eigval :     1192.20  1192.77  1194.80  1201.58  1213.10  1222.98
eigval :     1258.18  1264.86  1275.70  1275.81  1278.22  1280.44
eigval :     1292.08  1302.49  1304.19  1314.46  1314.53  1322.75
eigval :     1322.95  1325.36  1329.10  1330.48  1338.04  1417.19
eigval :     1424.06  1434.63  1435.49  1439.88  1440.51  1462.11
eigval :     1464.97  1469.26  1469.78  1471.71  1472.70  1538.64
eigval :     1555.77  1560.42  1573.88  1576.18  1577.56  1579.33
eigval :     1581.34  1581.74  1591.07  1591.24  1596.60  1596.81
eigval :     2331.91  2362.29  3072.48  3074.12  3074.77  3075.33
eigval :     3075.54  3077.00  3077.41  3080.04  3081.83  3083.15
eigval :     3084.23  3084.92  3085.04  3085.19  3085.63  3086.34
eigval :     3088.38  3088.64  3089.20  3091.66  3093.59  3095.51
eigval :     3095.97  3096.68  3096.83  3099.29  3101.70  3101.97

   temp. (K)  partition function   enthalpy   heat capacity  entropy
                                   cal/mol     cal/K/mol   cal/K/mol   J/K/mol
 298.15  VIB  0.597E+18            21760.209    132.724    138.390
         ROT  0.579E+08              888.752      2.981     38.502
         INT  0.346E+26            22648.961    135.705    176.892
         TR   0.130E+29             1481.254      4.968     44.858
         TOT                       24130.2151   140.6731   221.7497   927.8007

       T/K    H(0)-H(T)+PV         H(T)/Eh          T*S/Eh         G(T)/Eh
   ------------------------------------------------------------------------
    298.15    0.384539E-01    0.587637E+00    0.105360E+00    0.482277E+00
   ------------------------------------------------------------------------

         :::::::::::::::::::::::::::::::::::::::::::::::::::::
         ::                  THERMODYNAMIC                  ::
         :::::::::::::::::::::::::::::::::::::::::::::::::::::
         :: total free energy        -111.100423872989 Eh   ::
         ::.................................................::
         :: total energy             -111.582700616569 Eh   ::
         :: zero point energy           0.549183231024 Eh   ::
         :: G(RRHO) w/o ZPVE           -0.066906487444 Eh   ::
         :: G(RRHO) contrib.            0.482276743580 Eh   ::
         :::::::::::::::::::::::::::::::::::::::::::::::::::::

           -------------------------------------------------
          | TOTAL ENERGY             -111.582700616569 Eh   |
          | TOTAL ENTHALPY           -110.995063440050 Eh   |
          | TOTAL FREE ENERGY        -111.100423872989 Eh   |
          | GRADIENT NORM               0.000079068783 Eh/α |
          | HOMO-LUMO GAP               1.182238850040 eV   |
           -------------------------------------------------

 * finished run on 2025/09/14 at 07:34:25.765
