   * xtb version 6.7.1 (edcfbbe) compiled by 'albert@albert-system' on 2024-07-22

   ID    Z sym.   atoms
    1    7 N      1, 5, 12, 31
    2    6 C      2-4, 6-11, 13-30, 32-44
    3    1 H      45-72

          program call               : xtb data2507/toluene/3-DPM/3-DPM_toluene_S0_crest.xyz --gfn 2 --gbsa toluene --ohess vtight --parallel 40 --molden --ceasefiles --namespace data2507/toluene/3-DPM/3-DPM_toluene_S0_finalOpt
      * Solvation model:               GBSA
        Solvent                        toluene
        Solvent mass                       9.2140E+01 g/mol
          :  Hamiltonian                  GFN2-xTB          :
 * total energy  :  -111.5819289 Eh     change       -0.2270184E-08 Eh
 * total energy  :  -111.5819930 Eh     change       -0.6403383E-04 Eh
 * total energy  :  -111.5820651 Eh     change       -0.7215216E-04 Eh
 * total energy  :  -111.5821039 Eh     change       -0.3880148E-04 Eh
 * total energy  :  -111.5821524 Eh     change       -0.4849458E-04 Eh
 * total energy  :  -111.5821874 Eh     change       -0.3499486E-04 Eh
 * total energy  :  -111.5822067 Eh     change       -0.1926275E-04 Eh
 * total energy  :  -111.5822314 Eh     change       -0.2471745E-04 Eh
 * total energy  :  -111.5822424 Eh     change       -0.1098337E-04 Eh
 * total energy  :  -111.5822576 Eh     change       -0.1523109E-04 Eh
 * total energy  :  -111.5828206 Eh     change       -0.4850301E-06 Eh
 * total energy  :  -111.5828210 Eh     change       -0.4249410E-06 Eh
 * total energy  :  -111.5828214 Eh     change       -0.4330193E-06 Eh
 * total energy  :  -111.5828218 Eh     change       -0.3920196E-06 Eh
 * total energy  :  -111.5828222 Eh     change       -0.3625652E-06 Eh
 * total energy  :  -111.5828223 Eh     change       -0.1430667E-06 Eh
 * total energy  :  -111.5828225 Eh     change       -0.1929199E-06 Eh
 * total energy  :  -111.5828228 Eh     change       -0.2833293E-06 Eh
 * total energy  :  -111.5828229 Eh     change       -0.8430980E-07 Eh
   *** GEOMETRY OPTIMIZATION CONVERGED AFTER 71 ITERATIONS ***

 final structure:
================
72
 xtb: 6.7.1 (edcfbbe)
N            2.94131848400433       -4.13757392831201       -0.34571014699931
C            1.83777832860463       -3.84101483863536       -0.23192995314302
C            0.45838406845393       -3.56529470392231       -0.11847181793969
C           -0.25710113216173       -4.61334557277489        0.49817541128314
N           -0.77742033189009       -5.48145158459522        1.04149103787131
C           -0.10833971124270       -2.40604434027350       -0.56956256531044
C            0.72184507453767       -1.30225145772160       -1.05501119399785
C            0.35226765345535       -0.63396857610230       -2.22474503433358
C            1.11685276927213        0.42454365036545       -2.67753711780316
C            2.22217603528514        0.84969648937485       -1.96731501657502
C            2.59560406119488        0.20491659924941       -0.78337189570543
N            3.68729558120463        0.65153930423162       -0.05017033578052
C            4.00622014642277        2.01968636327718       -0.01849074527011
C            5.33682989522990        2.43228795164758       -0.06346273314800
C            5.64863947922829        3.77794664144825       -0.01700227320035
C            4.64391103473011        4.72852151241709        0.06735648635334
C            3.31989993826451        4.32245077216014        0.11111105433704
C            2.99861373682419        2.97886578080656        0.07373354098460
C            4.48340461934746       -0.25085606571784        0.67595053543353
C            4.96406167143373        0.09910035260146        1.93670689435648
C            5.76454809166478       -0.77859201525816        2.64278468438851
C            6.08849195653782       -2.01560871741147        2.10903792811151
C            5.60894145104774       -2.36867856826071        0.85811070347537
C            4.81531952191094       -1.49384301448035        0.14093282433306
C            1.84297019590425       -0.88584554959146       -0.34551351266962
C           -1.55487360902293       -2.20695188548629       -0.59050171071210
C           -2.43446426184463       -3.23505815640680       -0.93535950641986
C           -3.79550207720481       -2.98756599818519       -0.96062779568814
C           -4.29602296690302       -1.73885748659048       -0.64693010059992
C           -3.42981296087707       -0.69695461410324       -0.29655320133551
N           -3.91769704410020        0.56621044130051        0.01444644802450
C           -5.17205100328057        0.71979501744975        0.62793757272622
C           -5.59093177997229       -0.16279907371701        1.62240941592787
C           -6.82586586210281        0.00090141718475        2.22107481495821
C           -7.65395739979397        1.04705152866026        1.84734234809956
C           -7.23792899957520        1.93126252529951        0.86502799707009
C           -6.00878258587006        1.77028112273183        0.25424008738134
C           -3.15333406766368        1.71163919550476       -0.26810244747303
C           -3.10339421673714        2.76446143088570        0.64389831333391
C           -2.36255167412855        3.89620272719295        0.35924382506115
C           -1.65821983283917        3.99233457418047       -0.83003008600022
C           -1.70287753317569        2.94685859699678       -1.73811520816960
C           -2.44720094370468        1.81516520765541       -1.46565530217434
C           -2.05903182627051       -0.94668464239107       -0.27649961493625
H           -0.50896092034655       -0.96885880335520       -2.78181198056680
H            0.84890064278237        0.92486148230898       -3.59561920843238
H            2.80887153439178        1.68295608451762       -2.32302159228725
H            6.11987042841048        1.69147824922234       -0.13414988807699
H            6.68348411644734        4.08549072757525       -0.05390474885977
H            4.89163400883876        5.77883820091940        0.10047210444169
H            2.53036419185430        5.05579334292663        0.18571581369061
H            1.96639292966312        2.66364106460226        0.12095859853886
H            4.70581638928973        1.06069940640655        2.35611413688805
H            6.13038506220993       -0.49724755062901        3.61956313322980
H            6.71092820590685       -2.70065325740580        2.66494844138754
H            5.85246738903750       -3.33015623628071        0.43244663627838
H            4.44762178193627       -1.77405399383333       -0.83513027788018
H            2.11210753034741       -1.37721237178470        0.57859615977522
H           -2.05460015936005       -4.20518774793738       -1.21653511469389
H           -4.47444794767692       -3.77832344875686       -1.24198750748723
H           -5.35949626215087       -1.55745382253546       -0.68204843953198
H           -4.94327048588392       -0.97306272254307        1.92479475260146
H           -7.13861459387204       -0.68888338683091        2.99134525651246
H           -8.61627884807148        1.17324583888651        2.32014426151631
H           -7.87791018115357        2.74834075743317        0.56568774281879
H           -5.68829072412283        2.45677552091540       -0.51580724176454
H           -3.64854934293932        2.68863882646634        1.57348842929184
H           -2.33090156137078        4.70490886696178        1.07474317148315
H           -1.07896873712188        4.87669941174028       -1.04892195669557
H           -1.16153210104651        3.01641572365570       -2.66972882183514
H           -2.49062442825676        1.00693380333878       -2.18041975984880
H           -1.37867776872923       -0.15921339667960        0.01137221560692

          :  Hamiltonian                  GFN2-xTB          :
         :: gradient norm              0.000143823627 Eh/a0 ::
         :: HOMO-LUMO gap              1.152272720833 eV    ::
         :: SCC energy              -113.750346719121 Eh    ::
         :: -> dispersion             -0.103206963755 Eh    ::
         :: -> Gsolv                  -0.050339359484 Eh    ::
         :: repulsion energy           2.167523821350 Eh    ::

    * Orbital Energies and Occupations

         #    Occupation            Energy/Eh            Energy/eV
      -------------------------------------------------------------
         1        2.0000           -0.6816724             -18.5493
       ...           ...                  ...                  ...
        92        2.0000           -0.4249746             -11.5641
        93        2.0000           -0.4211215             -11.4593
        94        2.0000           -0.4179931             -11.3742
        95        2.0000           -0.4160299             -11.3207
        96        2.0000           -0.4129430             -11.2368
        97        2.0000           -0.4109133             -11.1815
        98        2.0000           -0.4104386             -11.1686
        99        2.0000           -0.4092728             -11.1369
       100        2.0000           -0.4088036             -11.1241
       101        2.0000           -0.4065872             -11.0638
       102        2.0000           -0.4052318             -11.0269
       103        2.0000           -0.3589358              -9.7671
       104        2.0000           -0.3566448              -9.7048 (HOMO)
       105                         -0.3142994              -8.5525 (LUMO)
       106                         -0.2477760              -6.7423
       107                         -0.2437613              -6.6331
       108                         -0.2401230              -6.5341
       109                         -0.2381845              -6.4813
       110                         -0.2353899              -6.4053
       111                         -0.2327842              -6.3344
       112                         -0.2303962              -6.2694
       113                         -0.2280740              -6.2062
       114                         -0.2265609              -6.1650
       115                         -0.2232592              -6.0752
       ...                                ...                  ...
       204                          1.1534402              31.3867
      -------------------------------------------------------------
                  HL-Gap            0.0423453 Eh            1.1523 eV

     #   Z          covCN         q      C6AA      α(0)
     1   7 N        0.911    -0.270    26.996     7.515
     2   6 C        1.931     0.126    27.997     8.545
     3   6 C        2.954    -0.002    28.071     8.690
     4   6 C        1.930     0.127    27.979     8.542
     5   7 N        0.911    -0.273    27.048     7.522
     6   6 C        2.978     0.043    27.025     8.527
     7   6 C        2.979     0.010    27.788     8.647
     8   6 C        2.923    -0.037    28.927     8.820
     9   6 C        2.917    -0.025    28.639     8.776
    10   6 C        2.923    -0.044    29.097     8.846
    11   6 C        2.920     0.071    26.411     8.427
    12   7 N        2.752    -0.076    22.725     7.080
    13   6 C        2.925     0.064    26.564     8.452
    14   6 C        2.922    -0.046    29.131     8.851
    15   6 C        2.919    -0.029    28.720     8.788
    16   6 C        2.919    -0.037    28.920     8.819
    17   6 C        2.919    -0.029    28.725     8.789
    18   6 C        2.922    -0.047    29.157     8.855
    19   6 C        2.924     0.062    26.606     8.459
    20   6 C        2.922    -0.048    29.184     8.859
    21   6 C        2.919    -0.030    28.754     8.793
    22   6 C        2.919    -0.037    28.925     8.819
    23   6 C        2.920    -0.027    28.671     8.781
    24   6 C        2.922    -0.044    29.096     8.846
    25   6 C        2.925    -0.048    29.187     8.860
    26   6 C        2.978     0.011    27.762     8.643
    27   6 C        2.920    -0.037    28.912     8.818
    28   6 C        2.917    -0.025    28.630     8.774
    29   6 C        2.922    -0.043    29.062     8.840
    30   6 C        2.919     0.071    26.417     8.429
    31   7 N        2.752    -0.074    22.668     7.071
    32   6 C        2.924     0.063    26.579     8.454
    33   6 C        2.922    -0.047    29.167     8.856
    34   6 C        2.919    -0.029    28.724     8.789
    35   6 C        2.919    -0.037    28.915     8.818
    36   6 C        2.919    -0.029    28.722     8.788
    37   6 C        2.922    -0.046    29.142     8.853
    38   6 C        2.924     0.063    26.592     8.457
    39   6 C        2.922    -0.046    29.141     8.853
    40   6 C        2.919    -0.029    28.725     8.789
    41   6 C        2.919    -0.037    28.916     8.818
    42   6 C        2.919    -0.029    28.734     8.790
    43   6 C        2.922    -0.047    29.171     8.857
    44   6 C        2.930    -0.048    29.202     8.862
    45   1 H        0.926     0.040     2.444     2.445
    46   1 H        0.926     0.049     2.338     2.391
    47   1 H        0.926     0.046     2.369     2.407
    48   1 H        0.926     0.034     2.532     2.488
    49   1 H        0.926     0.036     2.496     2.471
    50   1 H        0.926     0.036     2.508     2.477
    51   1 H        0.926     0.037     2.485     2.465
    52   1 H        0.926     0.032     2.553     2.498
    53   1 H        0.926     0.034     2.535     2.490
    54   1 H        0.926     0.036     2.504     2.475
    55   1 H        0.926     0.034     2.526     2.485
    56   1 H        0.926     0.041     2.436     2.441
    57   1 H        0.926     0.032     2.551     2.498
    58   1 H        0.926     0.030     2.585     2.514
    59   1 H        0.926     0.034     2.529     2.487
    60   1 H        0.926     0.047     2.356     2.400
    61   1 H        0.926     0.047     2.356     2.400
    62   1 H        0.926     0.032     2.553     2.498
    63   1 H        0.926     0.036     2.505     2.475
    64   1 H        0.926     0.035     2.516     2.481
    65   1 H        0.926     0.037     2.493     2.469
    66   1 H        0.926     0.035     2.518     2.481
    67   1 H        0.926     0.034     2.533     2.489
    68   1 H        0.926     0.036     2.496     2.471
    69   1 H        0.926     0.036     2.504     2.475
    70   1 H        0.926     0.038     2.481     2.463
    71   1 H        0.926     0.034     2.530     2.488
    72   1 H        0.926     0.041     2.439     2.442

molecular dipole:
                 x           y           z       tot (Debye)
 q only:       -1.005       2.895      -0.660
   full:       -1.181       3.127      -0.758       8.711

 projected vibrational frequencies (cm⁻¹)
eigval :       -0.00    -0.00     0.00     0.00     0.00     0.00
eigval :        8.68    14.67    20.97    27.22    29.64    34.56
eigval :       46.35    48.77    59.08    61.86    64.82    67.83
eigval :       71.28    76.78    79.14    87.28    98.54   104.10
eigval :      123.72   163.99   175.72   192.94   214.81   217.72
eigval :      221.16   226.52   234.87   238.24   251.05   258.90
eigval :      293.63   298.32   319.99   324.82   328.48   356.25
eigval :      375.24   377.09   378.74   380.73   383.22   391.49
eigval :      398.54   422.53   433.02   442.89   444.52   476.86
eigval :      477.46   485.10   490.77   496.82   554.12   576.03
eigval :      580.39   581.98   582.17   586.49   589.84   593.65
eigval :      596.94   597.32   610.57   618.31   646.32   653.72
eigval :      659.61   662.03   664.46   666.00   671.25   681.21
eigval :      711.06   741.03   755.85   758.41   760.42   766.46
eigval :      789.79   794.47   868.31   870.89   872.78   874.82
eigval :      876.22   876.37   879.79   886.02   892.35   893.67
eigval :      894.79   896.71   897.14   900.44   908.67   909.19
eigval :      922.93   924.28   927.38   927.78   928.51   929.34
eigval :      930.66   930.95   932.24   935.18   974.35   976.25
eigval :      988.07   999.77  1003.89  1004.21  1023.21  1049.72
eigval :     1081.04  1081.60  1082.30  1082.90  1119.89  1120.70
eigval :     1121.61  1122.39  1132.91  1135.23  1167.93  1178.57
eigval :     1179.13  1179.23  1179.43  1180.14  1186.13  1189.08
eigval :     1193.32  1193.84  1194.55  1201.49  1211.59  1223.37
eigval :     1258.46  1263.27  1275.84  1275.92  1277.87  1280.06
eigval :     1291.79  1303.82  1304.76  1314.89  1315.05  1322.96
eigval :     1323.33  1324.76  1329.13  1330.38  1336.99  1415.76
eigval :     1423.22  1434.81  1435.16  1440.15  1440.70  1461.32
eigval :     1465.37  1469.14  1470.15  1471.64  1472.61  1537.06
eigval :     1555.58  1559.95  1573.45  1576.03  1577.58  1579.60
eigval :     1581.41  1581.80  1591.32  1591.47  1596.89  1597.04
eigval :     2330.43  2360.82  3073.35  3073.65  3074.49  3074.93
eigval :     3075.42  3075.79  3079.58  3080.51  3081.21  3083.06
eigval :     3083.96  3084.99  3085.24  3085.59  3085.90  3086.59
eigval :     3087.25  3088.95  3089.35  3093.57  3094.84  3095.83
eigval :     3096.02  3096.57  3098.20  3100.07  3102.03  3103.08

   temp. (K)  partition function   enthalpy   heat capacity  entropy
                                   cal/mol     cal/K/mol   cal/K/mol   J/K/mol
 298.15  VIB  0.330E+18            21702.663    132.813    137.548
         ROT  0.574E+08              888.752      2.981     38.484
         INT  0.189E+26            22591.415    135.794    176.032
         TR   0.130E+29             1481.254      4.968     44.858
         TOT                       24072.6694   140.7618   220.8899   924.2034

       T/K    H(0)-H(T)+PV         H(T)/Eh          T*S/Eh         G(T)/Eh
   ------------------------------------------------------------------------
    298.15    0.383622E-01    0.587725E+00    0.104952E+00    0.482773E+00
   ------------------------------------------------------------------------

         :::::::::::::::::::::::::::::::::::::::::::::::::::::
         ::                  THERMODYNAMIC                  ::
         :::::::::::::::::::::::::::::::::::::::::::::::::::::
         :: total free energy        -111.100049466632 Eh   ::
         ::.................................................::
         :: total energy             -111.582822896231 Eh   ::
         :: zero point energy           0.549363117378 Eh   ::
         :: G(RRHO) w/o ZPVE           -0.066589687780 Eh   ::
         :: G(RRHO) contrib.            0.482773429599 Eh   ::
         :::::::::::::::::::::::::::::::::::::::::::::::::::::

           -------------------------------------------------
          | TOTAL ENERGY             -111.582822896231 Eh   |
          | TOTAL ENTHALPY           -110.995097538382 Eh   |
          | TOTAL FREE ENERGY        -111.100049466632 Eh   |
          | GRADIENT NORM               0.000143772677 Eh/α |
          | HOMO-LUMO GAP               1.152275300344 eV   |
           -------------------------------------------------

 * finished run on 2025/09/14 at 07:41:18.530
