   * xtb version 6.7.1 (edcfbbe) compiled by 'albert@albert-system' on 2024-07-22

   ID    Z sym.   atoms
    1    7 N      1, 5, 12, 31
    2    6 C      2-4, 6-11, 13-30, 32-44
    3    1 H      45-72

          program call               : xtb data2507/toluene/3-DPM/3-DPM_toluene_S0_finalOpt.xtbopt.xyz --gfn 2 --uhf 2 --gbsa toluene --ohess vtight --parallel 40 --molden --ceasefiles --namespace data2507/toluene/3-DPM/3-DPM_toluene_T1_preOpt
      * Solvation model:               GBSA
        Solvent                        toluene
        Solvent mass                       9.2140E+01 g/mol
          :  Hamiltonian                  GFN2-xTB          :
 * total energy  :  -111.5153949 Eh     change       -0.1793569E-07 Eh
 * total energy  :  -111.5195319 Eh     change       -0.4136965E-02 Eh
 * total energy  :  -111.5205612 Eh     change       -0.1029295E-02 Eh
 * total energy  :  -111.5206716 Eh     change       -0.1104325E-03 Eh
 * total energy  :  -111.5209310 Eh     change       -0.2593818E-03 Eh
 * total energy  :  -111.5210878 Eh     change       -0.1568130E-03 Eh
 * total energy  :  -111.5212144 Eh     change       -0.1266403E-03 Eh
 * total energy  :  -111.5213036 Eh     change       -0.8920368E-04 Eh
 * total energy  :  -111.5213757 Eh     change       -0.7209553E-04 Eh
 * total energy  :  -111.5214361 Eh     change       -0.6035370E-04 Eh
 * total energy  :  -111.5225055 Eh     change       -0.2883443E-06 Eh
 * total energy  :  -111.5225057 Eh     change       -0.1929812E-06 Eh
 * total energy  :  -111.5225059 Eh     change       -0.1519228E-06 Eh
 * total energy  :  -111.5225060 Eh     change       -0.1327390E-06 Eh
 * total energy  :  -111.5225062 Eh     change       -0.1576345E-06 Eh
 * total energy  :  -111.5225064 Eh     change       -0.2184567E-06 Eh
 * total energy  :  -111.5225067 Eh     change       -0.2639396E-06 Eh
 * total energy  :  -111.5225070 Eh     change       -0.3361672E-06 Eh
 * total energy  :  -111.5225070 Eh     change       -0.1222716E-08 Eh
   *** GEOMETRY OPTIMIZATION CONVERGED AFTER 94 ITERATIONS ***

 final structure:
================
72
 xtb: 6.7.1 (edcfbbe)
N            2.86830880144067       -3.99870551356528       -0.62543027241848
C            1.79411018787804       -3.67336424630510       -0.33982786282220
C            0.48829778970361       -3.33925305834179       -0.01140997264252
C           -0.14635039312938       -4.29155983021739        0.77296118413966
N           -0.62302836355630       -5.09814760112904        1.45453086808210
C           -0.13183940001623       -2.13016640252283       -0.45776471929208
C            0.69987506388477       -1.02354283430005       -0.86052589303593
C            0.30660467267213       -0.17692656352066       -1.91810395357801
C            1.10446981688220        0.87198353647702       -2.32174967771900
C            2.30460073644384        1.13436090726091       -1.68510779959770
C            2.71153374405241        0.31729839737275       -0.61959368800390
N            3.89929050271907        0.60779194334831        0.05528363528265
C            4.27457672925927        1.93867368712302        0.25163020224673
C            5.62114880308063        2.30838071485520        0.19161404399270
C            5.98717170523801        3.62588728308533        0.38299109025758
C            5.02487097631217        4.59305239770093        0.63318781437836
C            3.68739135446338        4.23173876339404        0.69329696554819
C            3.30922870734586        2.91678377122443        0.50691881738477
C            4.70715580003511       -0.41992223796469        0.54696363006027
C            5.36837456918667       -0.27012049610812        1.76963540743876
C            6.17715683841545       -1.28145852843666        2.24702183347315
C            6.33939247967512       -2.45171959690325        1.51963731305095
C            5.68330731705677       -2.60576469807037        0.30794665835186
C            4.87168762109339       -1.60121256184238       -0.17976882890879
C            1.92174312579648       -0.75655276013401       -0.22879617963560
C           -1.56233175140870       -2.01958232099833       -0.49895892280695
C           -2.39942484163982       -3.14131669803320       -0.68392392720010
C           -3.77211969736946       -3.01064546218078       -0.68158759887814
C           -4.37216215323341       -1.77684567215601       -0.49479989997736
C           -3.56270806884721       -0.64713370489268       -0.30575459979681
N           -4.14605394210464        0.60840509104615       -0.10186192611927
C           -5.29486305144512        0.72812429513344        0.67805618763000
C           -5.49931739616923       -0.11684159590968        1.77286605417775
C           -6.64369171693967        0.00261586666923        2.53621076712377
C           -7.59715879676256        0.96139752356737        2.22790187188942
C           -7.39827449102926        1.80387541931676        1.14403369531167
C           -6.25977871128799        1.69234205489820        0.37134726069793
C           -3.54575353255579        1.74268790707366       -0.65505464923501
C           -3.48969477857439        2.93917361441469        0.06330837336548
C           -2.88473798199736        4.05082312428344       -0.48981955801320
C           -2.33112100049453        3.99014190755263       -1.75964344756904
C           -2.38925698915122        2.80572446871014       -2.47858028869510
C           -2.98943154013526        1.68774319059014       -1.93502267774585
C           -2.18240205544471       -0.77343336388091       -0.31312481648697
H           -0.61574693445767       -0.38582907355775       -2.43761446563579
H            0.79827426751824        1.48981063777631       -3.15226234541222
H            2.93976176698398        1.94136880425745       -2.01508667496805
H            6.36760517524168        1.55814165260547       -0.02241638142197
H            7.02960361319862        3.90124667285093        0.32710823791980
H            5.31600851090455        5.62168549150864        0.78090115682887
H            2.93361785802472        4.97759321836552        0.89616595342403
H            2.26990168082872        2.63145293976274        0.57321574210569
H            5.22574331458666        0.63297499281597        2.34466408639893
H            6.67582771489610       -1.16101921926814        3.19717414693994
H            6.97039646984672       -3.24176019633818        1.89731425024825
H            5.79568192769308       -3.51378066391201       -0.26332813566186
H            4.36579689150295       -1.72563128398845       -1.12487901880038
H            2.23411697253158       -1.36494902995224        0.60814043313631
H           -1.95698680113190       -4.11078871357572       -0.85755398787738
H           -4.38848035474555       -3.88301033328929       -0.84243193380896
H           -5.44596693490612       -1.67552414354036       -0.51437780074720
H           -4.74876780895217       -0.85154704974064        2.02449019959859
H           -6.78744749858458       -0.65179312231512        3.38301650026828
H           -8.48922946550013        1.05108624603944        2.82859809408963
H           -8.14045001729088        2.54702563066320        0.89366567416454
H           -6.11504426671518        2.33551882443994       -0.48386950694148
H           -3.90624355392025        2.98102824031325        1.05877459716123
H           -2.83879718506575        4.96838005428882        0.07751035199027
H           -1.85889155780826        4.86126466895214       -2.18739953861939
H           -1.97223948697524        2.75478605307624       -3.47301381414584
H           -3.04980030550368        0.76846579387868       -2.49807604748582
H           -1.57118066950915        0.09692006002158       -0.12394579958260

          :  Hamiltonian                  GFN2-xTB          :
         :: gradient norm              0.000036114862 Eh/a0 ::
         :: HOMO-LUMO gap              1.346926457866 eV    ::
         :: SCC energy              -113.669874157213 Eh    ::
         :: -> dispersion             -0.102553994575 Eh    ::
         :: -> Gsolv                  -0.063428617280 Eh    ::
         :: repulsion energy           2.147367168630 Eh    ::

    * Orbital Energies and Occupations

         #    Occupation            Energy/Eh            Energy/eV
      -------------------------------------------------------------
         1        2.0000           -0.6841002             -18.6153
       ...           ...                  ...                  ...
        93        2.0000           -0.4204583             -11.4413
        94        2.0000           -0.4195132             -11.4155
        95        2.0000           -0.4181457             -11.3783
        96        2.0000           -0.4175323             -11.3616
        97        2.0000           -0.4154379             -11.3046
        98        2.0000           -0.4142171             -11.2714
        99        2.0000           -0.4130541             -11.2398
       100        2.0000           -0.4048498             -11.0165
       101        2.0000           -0.4009295             -10.9098
       102        1.9994           -0.3715575             -10.1106
       103        1.5628           -0.3647308              -9.9248
       104        1.4378           -0.3642532              -9.9118
       105        1.0000           -0.2949366              -8.0256 (HOMO)
       106                         -0.2454379              -6.6787 (LUMO)
       107                         -0.2447522              -6.6600
       108                         -0.2418857              -6.5820
       109                         -0.2403222              -6.5395
       110                         -0.2386165              -6.4931
       111                         -0.2379210              -6.4742
       112                         -0.2347543              -6.3880
       113                         -0.2321641              -6.3175
       114                         -0.2311612              -6.2902
       115                         -0.2130991              -5.7987
       116                         -0.2080021              -5.6600
       ...                                ...                  ...
       204                          1.1780665              32.0568
      -------------------------------------------------------------
                  HL-Gap            0.0494987 Eh            1.3469 eV

     #   Z          covCN         q      C6AA      α(0)
     1   7 N        0.911    -0.366    29.439     7.847
     2   6 C        1.941     0.111    28.338     8.597
     3   6 C        2.952    -0.041    29.021     8.836
     4   6 C        1.939     0.112    28.320     8.594
     5   7 N        0.911    -0.368    29.488     7.854
     6   6 C        2.971    -0.024    28.607     8.773
     7   6 C        2.972     0.010    27.795     8.648
     8   6 C        2.923    -0.038    28.939     8.822
     9   6 C        2.913    -0.030    28.746     8.792
    10   6 C        2.920    -0.050    29.250     8.869
    11   6 C        2.922     0.063    26.589     8.456
    12   7 N        2.754    -0.032    21.857     6.944
    13   6 C        2.927     0.066    26.527     8.446
    14   6 C        2.921    -0.040    28.983     8.828
    15   6 C        2.918    -0.024    28.615     8.772
    16   6 C        2.919    -0.028    28.700     8.785
    17   6 C        2.918    -0.025    28.622     8.773
    18   6 C        2.921    -0.039    28.971     8.827
    19   6 C        2.925     0.065    26.551     8.450
    20   6 C        2.921    -0.042    29.044     8.838
    21   6 C        2.918    -0.026    28.660     8.779
    22   6 C        2.919    -0.028    28.688     8.783
    23   6 C        2.919    -0.020    28.504     8.755
    24   6 C        2.921    -0.032    28.800     8.800
    25   6 C        2.924    -0.050    29.241     8.868
    26   6 C        2.970     0.009    27.807     8.650
    27   6 C        2.921    -0.035    28.872     8.811
    28   6 C        2.914    -0.029    28.717     8.787
    29   6 C        2.919    -0.051    29.264     8.871
    30   6 C        2.922     0.062    26.606     8.459
    31   7 N        2.754    -0.034    21.905     6.951
    32   6 C        2.925     0.066    26.523     8.446
    33   6 C        2.921    -0.040    28.990     8.829
    34   6 C        2.918    -0.025    28.624     8.773
    35   6 C        2.919    -0.029    28.723     8.789
    36   6 C        2.918    -0.025    28.634     8.775
    37   6 C        2.921    -0.041    29.027     8.835
    38   6 C        2.926     0.065    26.548     8.450
    39   6 C        2.921    -0.041    29.011     8.833
    40   6 C        2.919    -0.025    28.637     8.775
    41   6 C        2.919    -0.029    28.724     8.789
    42   6 C        2.919    -0.024    28.615     8.772
    43   6 C        2.922    -0.038    28.955     8.824
    44   6 C        2.927    -0.056    29.396     8.892
    45   1 H        0.926     0.037     2.490     2.468
    46   1 H        0.926     0.044     2.402     2.423
    47   1 H        0.926     0.043     2.409     2.427
    48   1 H        0.926     0.045     2.380     2.413
    49   1 H        0.926     0.048     2.340     2.392
    50   1 H        0.926     0.048     2.348     2.396
    51   1 H        0.926     0.049     2.337     2.390
    52   1 H        0.926     0.044     2.395     2.420
    53   1 H        0.926     0.047     2.364     2.404
    54   1 H        0.926     0.048     2.343     2.394
    55   1 H        0.926     0.045     2.378     2.411
    56   1 H        0.926     0.051     2.307     2.375
    57   1 H        0.926     0.044     2.399     2.422
    58   1 H        0.926     0.023     2.683     2.562
    59   1 H        0.926     0.023     2.685     2.562
    60   1 H        0.926     0.036     2.509     2.477
    61   1 H        0.926     0.040     2.448     2.447
    62   1 H        0.926     0.041     2.438     2.442
    63   1 H        0.926     0.044     2.393     2.419
    64   1 H        0.926     0.045     2.381     2.413
    65   1 H        0.926     0.047     2.354     2.399
    66   1 H        0.926     0.046     2.373     2.409
    67   1 H        0.926     0.044     2.391     2.418
    68   1 H        0.926     0.047     2.353     2.399
    69   1 H        0.926     0.047     2.362     2.403
    70   1 H        0.926     0.046     2.372     2.409
    71   1 H        0.926     0.041     2.437     2.441
    72   1 H        0.926     0.035     2.521     2.483

molecular dipole:
                 x           y           z       tot (Debye)
 q only:       -0.769       6.441      -0.246
   full:       -0.983       6.507      -0.363      16.751

 projected vibrational frequencies (cm⁻¹)
eigval :       -0.00    -0.00     0.00     0.00     0.00     0.00
eigval :        6.88    10.85    14.58    21.50    30.69    34.94
eigval :       41.04    51.13    58.82    63.14    66.80    68.39
eigval :       71.01    77.82    83.00    90.97   103.41   105.76
eigval :      121.50   166.53   174.73   182.86   213.39   223.26
eigval :      223.78   230.13   237.26   240.92   256.42   265.58
eigval :      294.79   299.12   321.26   326.57   329.36   354.42
eigval :      374.19   375.13   380.01   381.77   384.65   388.36
eigval :      399.18   409.72   421.86   438.17   443.53   464.63
eigval :      468.75   469.92   500.85   502.67   526.37   550.45
eigval :      578.38   579.20   579.49   583.39   587.67   588.28
eigval :      592.48   597.83   601.30   610.83   622.56   646.47
eigval :      647.72   656.20   658.30   658.90   662.12   666.76
eigval :      707.27   738.64   754.48   754.90   758.48   761.90
eigval :      769.92   773.49   852.16   853.39   863.98   864.58
eigval :      866.00   869.10   870.10   877.80   879.11   892.73
eigval :      895.07   896.11   899.31   900.66   907.94   908.30
eigval :      910.90   916.05   921.49   925.53   925.83   927.09
eigval :      928.10   928.76   928.89   930.91   970.25   973.44
eigval :      980.04   987.22   999.91  1000.76  1020.69  1042.77
eigval :     1077.85  1078.62  1079.43  1079.58  1118.45  1120.13
eigval :     1120.68  1122.63  1132.38  1134.92  1164.74  1169.20
eigval :     1175.61  1175.92  1177.45  1178.01  1181.80  1186.51
eigval :     1189.09  1189.82  1191.91  1201.11  1220.47  1251.99
eigval :     1256.23  1268.70  1270.20  1271.71  1272.22  1273.10
eigval :     1288.70  1291.53  1299.22  1301.57  1310.68  1317.56
eigval :     1318.52  1324.23  1324.90  1335.65  1340.82  1368.11
eigval :     1409.78  1417.10  1429.23  1430.05  1435.89  1436.73
eigval :     1440.45  1449.45  1451.22  1452.98  1454.03  1455.54
eigval :     1504.48  1513.85  1531.31  1558.91  1562.15  1563.68
eigval :     1565.86  1567.82  1576.53  1577.51  1584.48  1586.26
eigval :     2238.06  2308.52  3076.75  3078.49  3080.40  3080.79
eigval :     3081.37  3082.06  3082.22  3082.46  3083.49  3083.74
eigval :     3084.87  3088.13  3089.35  3090.17  3091.09  3091.17
eigval :     3092.52  3093.41  3094.12  3094.67  3096.48  3097.28
eigval :     3099.48  3100.76  3101.32  3101.74  3103.11  3108.60

   temp. (K)  partition function   enthalpy   heat capacity  entropy
                                   cal/mol     cal/K/mol   cal/K/mol   J/K/mol
 298.15  VIB  0.914E+18            21824.813    133.782    138.748
         ROT  0.600E+08              888.752      2.981     38.574
         INT  0.549E+26            22713.565    136.763    177.321
         TR   0.130E+29             1481.254      4.968     44.858
         TOT                       24194.8193   141.7308   222.1788   929.5963

       T/K    H(0)-H(T)+PV         H(T)/Eh          T*S/Eh         G(T)/Eh
   ------------------------------------------------------------------------
    298.15    0.385569E-01    0.585268E+00    0.105564E+00    0.479704E+00
   ------------------------------------------------------------------------

         :::::::::::::::::::::::::::::::::::::::::::::::::::::
         ::                  THERMODYNAMIC                  ::
         :::::::::::::::::::::::::::::::::::::::::::::::::::::
         :: total free energy        -111.042802871221 Eh   ::
         ::.................................................::
         :: total energy             -111.522506989754 Eh   ::
         :: zero point energy           0.546711557715 Eh   ::
         :: G(RRHO) w/o ZPVE           -0.067007439182 Eh   ::
         :: G(RRHO) contrib.            0.479704118533 Eh   ::
         :::::::::::::::::::::::::::::::::::::::::::::::::::::

           -------------------------------------------------
          | TOTAL ENERGY             -111.522506989754 Eh   |
          | TOTAL ENTHALPY           -110.937238533248 Eh   |
          | TOTAL FREE ENERGY        -111.042802871221 Eh   |
          | GRADIENT NORM               0.000036260613 Eh/α |
          | HOMO-LUMO GAP               1.346928277601 eV   |
           -------------------------------------------------

 * finished run on 2025/09/14 at 07:41:28.185
