   * xtb version 6.7.1 (edcfbbe) compiled by 'albert@albert-system' on 2024-07-22

   ID    Z sym.   atoms
    1    6 C      1-4, 6-18, 20-34
    2   15 P      5, 19
    3    1 H      35-62

          program call               : xtb data2507/toluene/dpmb/dpmb_toluene_T1_crest.xyz --gfn 2 --uhf 2 --gbsa toluene --ohess vtight --parallel 40 --molden --ceasefiles --namespace data2507/toluene/dpmb/dpmb_toluene_T1_finalOpt
      * Solvation model:               GBSA
        Solvent                        toluene
        Solvent mass                       9.2140E+01 g/mol
          :  Hamiltonian                  GFN2-xTB          :
 * total energy  :   -87.7408143 Eh     change       -0.9664092E-09 Eh
 * total energy  :   -87.7408484 Eh     change       -0.3412842E-04 Eh
 * total energy  :   -87.7408665 Eh     change       -0.1813483E-04 Eh
 * total energy  :   -87.7408739 Eh     change       -0.7340812E-05 Eh
 * total energy  :   -87.7408841 Eh     change       -0.1025584E-04 Eh
 * total energy  :   -87.7408932 Eh     change       -0.9068568E-05 Eh
 * total energy  :   -87.7409043 Eh     change       -0.1114845E-04 Eh
 * total energy  :   -87.7409158 Eh     change       -0.1149996E-04 Eh
 * total energy  :   -87.7409222 Eh     change       -0.6316917E-05 Eh
 * total energy  :   -87.7409249 Eh     change       -0.2710303E-05 Eh
 * total energy  :   -87.7409350 Eh     change       -0.3066173E-05 Eh
 * total energy  :   -87.7409376 Eh     change       -0.2615275E-05 Eh
 * total energy  :   -87.7409394 Eh     change       -0.1763425E-05 Eh
 * total energy  :   -87.7409408 Eh     change       -0.1376654E-05 Eh
 * total energy  :   -87.7409420 Eh     change       -0.1211623E-05 Eh
 * total energy  :   -87.7409426 Eh     change       -0.5759109E-06 Eh
 * total energy  :   -87.7409427 Eh     change       -0.1282826E-06 Eh
 * total energy  :   -87.7409430 Eh     change       -0.3516790E-06 Eh
 * total energy  :   -87.7409430 Eh     change       -0.7777246E-08 Eh
   *** GEOMETRY OPTIMIZATION CONVERGED AFTER 22 ITERATIONS ***

 final structure:
================
62
 xtb: 6.7.1 (edcfbbe)
C            1.47811145526093        0.04419705674709       -4.79591969358164
C            0.72441307152692        0.04139684291373       -3.50104351989166
C            1.41106387430757        0.01697042688894       -2.30322971491957
C            0.71527361630824        0.03865675596406       -1.09962340435605
P            1.25812616517881       -0.20345815367537        0.59387133693842
C            1.26026775917536       -1.99033084282636        0.88510666219891
C            0.17680617580390       -2.59121069373565        1.53214144734815
C            0.06547963900091       -3.96550001134268        1.57732553638358
C            1.02475817777204       -4.76273025492093        0.96773906318377
C            2.09694693883402       -4.17118133023388        0.30685286991083
C            2.21302125036068       -2.79987869130421        0.25225264970631
C            2.99478179587105        0.30242624594776        0.67052426153394
C            3.37667842217153        1.47271724252689        0.00705523969930
C            4.65853267888920        1.96262614054282        0.14947036128048
C            5.56011754066815        1.32324698911748        0.99028108625670
C            5.16699989699706        0.19442760832448        1.69784282710213
C            3.88722541526127       -0.30258510140080        1.56005994698844
C           -0.70497723058389        0.00522031756800       -1.10486268992968
P           -1.25864607666380        0.19281555006134        0.59198543786464
C           -2.99123061245449       -0.32787445707686        0.64808620714642
C           -3.88388907596728        0.23205529175096        1.56672679131043
C           -5.16051949084515       -0.27742405324441        1.68651193902172
C           -5.55017909238807       -1.37555970285016        0.93042096266012
C           -4.64795687953897       -1.97216327588927        0.05933909506270
C           -3.36898609611794       -1.46997423910742       -0.06494564433820
C           -1.27386710287807        1.96937100569212        0.93931284732876
C           -0.18768953860669        2.55945111809150        1.59197949008427
C           -0.08643930762824        3.93260779776027        1.67707465288402
C           -1.05909025118200        4.74011863152503        1.10318293790039
C           -2.13432466145935        4.15996983723873        0.43703981956681
C           -2.24016562720640        2.79008479790804        0.34208204491205
C           -1.39239244048420        0.06296167949813       -2.31218270402171
C           -0.69743440997417        0.07282889927046       -3.50542088263097
C           -1.44201333697669        0.10821685138002       -4.80509874785939
H            1.25498095148578        0.94420750359987       -5.36932962732253
H            1.19949900733833       -0.81455889938488       -5.40640141869227
H            2.54976176204601        0.00709667700375       -4.61512092730741
H            2.49356195148938       -0.00017543965244       -2.29978304892584
H           -0.56150865535585       -1.96491087652943        2.02141350343734
H           -0.76985304127326       -4.42093300315336        2.09045593265268
H            0.93722085934226       -5.83850242936028        1.00157985786596
H            2.84048849898229       -4.79139331040396       -0.17398277215374
H            3.03892385049943       -2.33719031287677       -0.27172478012742
H            2.65983633086892        1.97433796720098       -0.63025898198451
H            4.95746863441919        2.85250110674784       -0.38629156781261
H            6.56014491754136        1.71355011968287        1.10835779462970
H            5.86292189150250       -0.29224610513726        2.36641607138545
H            3.57332435298055       -1.17658254740714        2.11544201078769
H           -3.57259867080016        1.08240677878085        2.15911809779109
H           -5.85657790180279        0.17510554431447        2.37851565315442
H           -6.54780875450141       -1.77604141549410        1.03396269875158
H           -4.94397720479044       -2.83900991789530       -0.51444608144597
H           -2.65174148267230       -1.93960727913964       -0.72567727120173
H            0.56115072184704        1.92473982888280        2.05377307005211
H            0.75141878800919        4.37911683335871        2.19392523543051
H           -0.97974488303031        5.81506036375218        1.16890840505470
H           -2.88855794496583        4.78819685180364       -0.01591935005526
H           -3.06852598274583        2.33689196618038       -0.18625746646170
H           -2.47485263368659        0.08079029149022       -2.31581514804286
H           -2.51498596547729        0.13803977595132       -4.63097062427824
H           -1.21308064587265       -0.77336295713297       -5.40426091927794
H           -1.16066644660752        0.98580987200818       -5.38692006274262

          :  Hamiltonian                  GFN2-xTB          :
         :: gradient norm              0.000062790836 Eh/a0 ::
         :: HOMO-LUMO gap              0.502188012819 eV    ::
         :: SCC energy               -89.354825892193 Eh    ::
         :: -> dispersion             -0.088736483799 Eh    ::
         :: -> Gsolv                  -0.036260839918 Eh    ::
         :: repulsion energy           1.613882846719 Eh    ::

    * Orbital Energies and Occupations

         #    Occupation            Energy/Eh            Energy/eV
      -------------------------------------------------------------
         1        2.0000           -0.6776610             -18.4401
       ...           ...                  ...                  ...
        72        2.0000           -0.4127734             -11.2321
        73        2.0000           -0.4092775             -11.1370
        74        2.0000           -0.4082043             -11.1078
        75        2.0000           -0.4079770             -11.1016
        76        2.0000           -0.4060221             -11.0484
        77        2.0000           -0.4047757             -11.0145
        78        2.0000           -0.4034748             -10.9791
        79        2.0000           -0.3990595             -10.8590
        80        2.0000           -0.3956912             -10.7673
        81        2.0000           -0.3884462             -10.5702
        82        2.0000           -0.3838259             -10.4444
        83        1.0000           -0.3327381              -9.0543
        84        0.9999           -0.2604288              -7.0866 (HOMO)
        85        0.0001           -0.2419737              -6.5844 (LUMO)
        86        0.0000           -0.2401812              -6.5357
        87                         -0.2311228              -6.2892
        88                         -0.2283154              -6.2128
        89                         -0.2263805              -6.1601
        90                         -0.2247332              -6.1153
        91                         -0.2215603              -6.0290
        92                         -0.2204136              -5.9978
        93                         -0.2176408              -5.9223
        94                         -0.1614106              -4.3922
        95                         -0.1460500              -3.9742
       ...                                ...                  ...
       174                          1.2251517              33.3381
      -------------------------------------------------------------
                  HL-Gap            0.0184551 Eh            0.5022 eV

     #   Z          covCN         q      C6AA      α(0)
     1   6 C        3.758    -0.104    22.541     6.769
     2   6 C        2.967    -0.001    28.053     8.688
     3   6 C        2.939    -0.040    28.999     8.832
     4   6 C        3.172    -0.001    27.665     8.592
     5  15 P        4.285    -0.118   165.567    23.114
     6   6 C        2.917     0.020    27.558     8.608
     7   6 C        2.997    -0.026    28.651     8.780
     8   6 C        2.916    -0.029    28.732     8.790
     9   6 C        2.919    -0.037    28.927     8.820
    10   6 C        2.917    -0.031    28.775     8.796
    11   6 C        2.994    -0.027    28.674     8.784
    12   6 C        2.918     0.023    27.500     8.599
    13   6 C        3.010    -0.025    28.608     8.774
    14   6 C        2.917    -0.028    28.711     8.787
    15   6 C        2.919    -0.031    28.775     8.797
    16   6 C        2.917    -0.029    28.716     8.788
    17   6 C        2.985    -0.027    28.657     8.781
    18   6 C        3.171    -0.001    27.668     8.593
    19  15 P        4.285    -0.117   165.525    23.111
    20   6 C        2.918     0.023    27.499     8.599
    21   6 C        2.986    -0.027    28.657     8.781
    22   6 C        2.917    -0.029    28.716     8.787
    23   6 C        2.919    -0.031    28.775     8.797
    24   6 C        2.917    -0.028    28.711     8.787
    25   6 C        3.009    -0.025    28.608     8.774
    26   6 C        2.917     0.020    27.562     8.609
    27   6 C        2.997    -0.027    28.654     8.781
    28   6 C        2.916    -0.029    28.732     8.790
    29   6 C        2.919    -0.037    28.929     8.820
    30   6 C        2.917    -0.031    28.776     8.797
    31   6 C        2.993    -0.027    28.676     8.784
    32   6 C        2.939    -0.040    29.000     8.832
    33   6 C        2.967    -0.001    28.053     8.688
    34   6 C        3.758    -0.104    22.541     6.769
    35   1 H        0.924     0.047     2.352     2.398
    36   1 H        0.925     0.047     2.355     2.400
    37   1 H        0.925     0.039     2.462     2.454
    38   1 H        0.925     0.029     2.607     2.525
    39   1 H        0.925     0.044     2.402     2.423
    40   1 H        0.926     0.030     2.580     2.512
    41   1 H        0.926     0.030     2.584     2.514
    42   1 H        0.926     0.032     2.559     2.502
    43   1 H        0.925     0.034     2.532     2.488
    44   1 H        0.925     0.039     2.461     2.453
    45   1 H        0.926     0.035     2.522     2.483
    46   1 H        0.926     0.035     2.518     2.481
    47   1 H        0.926     0.035     2.519     2.482
    48   1 H        0.925     0.036     2.497     2.471
    49   1 H        0.925     0.036     2.496     2.471
    50   1 H        0.926     0.035     2.518     2.482
    51   1 H        0.926     0.035     2.517     2.481
    52   1 H        0.926     0.035     2.522     2.483
    53   1 H        0.925     0.039     2.461     2.453
    54   1 H        0.925     0.044     2.399     2.422
    55   1 H        0.926     0.030     2.580     2.512
    56   1 H        0.926     0.030     2.585     2.514
    57   1 H        0.926     0.032     2.559     2.502
    58   1 H        0.925     0.034     2.532     2.488
    59   1 H        0.925     0.029     2.606     2.525
    60   1 H        0.925     0.039     2.462     2.454
    61   1 H        0.924     0.047     2.352     2.398
    62   1 H        0.925     0.047     2.355     2.400

molecular dipole:
                 x           y           z       tot (Debye)
 q only:       -0.001       0.003      -0.502
   full:       -0.001       0.005      -0.724       1.839

 projected vibrational frequencies (cm⁻¹)
eigval :       -0.00     0.00     0.00     0.00     0.00     0.00
eigval :       11.81    21.14    27.22    29.87    38.00    42.06
eigval :       48.52    49.59    60.63    63.12    66.31    73.55
eigval :       99.47   110.80   132.70   133.42   147.30   175.47
eigval :      177.04   181.01   185.16   195.22   219.03   230.01
eigval :      245.32   250.47   272.66   304.32   307.01   315.62
eigval :      363.20   364.95   369.14   370.64   380.32   383.93
eigval :      384.80   403.11   412.67   426.81   428.35   434.24
eigval :      435.02   484.13   500.34   512.93   563.93   581.57
eigval :      582.02   582.51   582.68   620.06   631.00   634.15
eigval :      639.24   641.13   676.28   679.31   688.92   698.81
eigval :      715.97   718.82   723.24   735.47   736.97   776.97
eigval :      842.28   848.42   848.70   866.57   868.99   872.37
eigval :      872.57   881.36   889.93   892.20   911.75   912.54
eigval :      916.55   917.16   922.90   923.41   925.93   927.14
eigval :      930.22   959.69   959.90   964.67   965.35  1009.48
eigval :     1016.03  1020.22  1022.90  1027.38  1053.37  1058.71
eigval :     1068.61  1069.43  1070.86  1072.55  1078.47  1100.16
eigval :     1112.20  1112.97  1114.23  1114.66  1147.14  1172.54
eigval :     1172.65  1175.88  1176.59  1188.49  1188.62  1191.04
eigval :     1192.23  1229.97  1238.54  1260.49  1261.05  1267.63
eigval :     1268.15  1321.23  1321.52  1324.63  1325.88  1346.86
eigval :     1361.32  1399.23  1405.64  1408.61  1409.36  1415.26
eigval :     1416.77  1420.36  1422.90  1427.30  1431.60  1433.49
eigval :     1465.80  1470.69  1482.01  1485.09  1497.40  1513.85
eigval :     1516.35  1517.92  1538.37  1538.61  1541.84  1543.52
eigval :     1556.72  1572.82  2988.38  2989.35  3002.59  3007.22
eigval :     3008.36  3008.78  3037.60  3038.59  3045.03  3046.51
eigval :     3049.46  3050.12  3052.51  3052.84  3054.56  3054.77
eigval :     3066.24  3066.67  3068.61  3068.75  3069.41  3069.84
eigval :     3072.40  3072.73  3086.50  3086.98  3087.57  3088.34

   temp. (K)  partition function   enthalpy   heat capacity  entropy
                                   cal/mol     cal/K/mol   cal/K/mol   J/K/mol
 298.15  VIB  0.705E+15            18715.158    112.947    118.083
         ROT  0.128E+08              888.752      2.981     35.497
         INT  0.899E+22            19603.910    115.928    153.580
         TR   0.100E+29             1481.254      4.968     44.339
         TOT                       21085.1642   120.8964   197.9188   828.0924

       T/K    H(0)-H(T)+PV         H(T)/Eh          T*S/Eh         G(T)/Eh
   ------------------------------------------------------------------------
    298.15    0.336013E-01    0.515149E+00    0.940376E-01    0.421111E+00
   ------------------------------------------------------------------------

         :::::::::::::::::::::::::::::::::::::::::::::::::::::
         ::                  THERMODYNAMIC                  ::
         :::::::::::::::::::::::::::::::::::::::::::::::::::::
         :: total free energy         -87.319831690543 Eh   ::
         ::.................................................::
         :: total energy              -87.740943043211 Eh   ::
         :: zero point energy           0.481547630209 Eh   ::
         :: G(RRHO) w/o ZPVE           -0.060436277540 Eh   ::
         :: G(RRHO) contrib.            0.421111352669 Eh   ::
         :::::::::::::::::::::::::::::::::::::::::::::::::::::

           -------------------------------------------------
          | TOTAL ENERGY              -87.740943043211 Eh   |
          | TOTAL ENTHALPY            -87.225794064967 Eh   |
          | TOTAL FREE ENERGY         -87.319831690543 Eh   |
          | GRADIENT NORM               0.000062768301 Eh/α |
          | HOMO-LUMO GAP               0.502189880664 eV   |
           -------------------------------------------------

 * finished run on 2025/08/30 at 19:51:41.900
