   * xtb version 6.7.1 (edcfbbe) compiled by 'albert@albert-system' on 2024-07-22

   ID    Z sym.   atoms
    1    6 C      1-4, 6-18, 20-34
    2   15 P      5, 19
    3    1 H      35-62

          program call               : xtb data2507/toluene/dpmb/dpmb_toluene_S0_crest.xyz --gfn 2 --gbsa toluene --ohess vtight --parallel 40 --molden --ceasefiles --namespace data2507/toluene/dpmb/dpmb_toluene_S0_finalOpt
      * Solvation model:               GBSA
        Solvent                        toluene
        Solvent mass                       9.2140E+01 g/mol
          :  Hamiltonian                  GFN2-xTB          :
 * total energy  :   -87.8328435 Eh     change       -0.2002253E-08 Eh
 * total energy  :   -87.8328822 Eh     change       -0.3869122E-04 Eh
 * total energy  :   -87.8329149 Eh     change       -0.3278284E-04 Eh
 * total energy  :   -87.8329342 Eh     change       -0.1923377E-04 Eh
 * total energy  :   -87.8329575 Eh     change       -0.2335766E-04 Eh
 * total energy  :   -87.8329761 Eh     change       -0.1852814E-04 Eh
 * total energy  :   -87.8329911 Eh     change       -0.1502242E-04 Eh
 * total energy  :   -87.8329991 Eh     change       -0.8020714E-05 Eh
 * total energy  :   -87.8330020 Eh     change       -0.2892609E-05 Eh
 * total energy  :   -87.8330038 Eh     change       -0.1847902E-05 Eh
 * total energy  :   -87.8330089 Eh     change       -0.7523195E-06 Eh
 * total energy  :   -87.8330094 Eh     change       -0.4926254E-06 Eh
 * total energy  :   -87.8330098 Eh     change       -0.3906820E-06 Eh
 * total energy  :   -87.8330103 Eh     change       -0.5379833E-06 Eh
 * total energy  :   -87.8330109 Eh     change       -0.5146602E-06 Eh
 * total energy  :   -87.8330110 Eh     change       -0.1475901E-06 Eh
 * total energy  :   -87.8330110 Eh     change        0.1011294E-07 Eh
 * total energy  :   -87.8330111 Eh     change       -0.1357846E-06 Eh
 * total energy  :   -87.8330111 Eh     change       -0.2509850E-08 Eh
   *** GEOMETRY OPTIMIZATION CONVERGED AFTER 22 ITERATIONS ***

 final structure:
================
62
 xtb: 6.7.1 (edcfbbe)
C            1.72759308470916       -3.49552489154489       -2.92087396260039
C            0.92169837658167       -2.65102361263268       -1.98172339047902
C            1.56421645237084       -1.86605011931723       -1.03336685063761
C            0.84013627528443       -1.07901248749575       -0.15145444691293
P            1.48927879517740       -0.00873912739242        1.18049968561035
C            3.28521180591797       -0.37919069230509        1.07701407038088
C            3.67820509687332       -1.67281496692661        1.41983062004390
C            5.01523639229416       -2.01937555385055        1.44580583329465
C            5.98141333521580       -1.06876931704059        1.15340977360941
C            5.60131800091874        0.22668114207515        0.84529171809356
C            4.26168326435590        0.57476727180311        0.81434170607185
C            1.42273563987707        1.59198788492625        0.28639389077785
C            1.75890646353880        1.70957907472809       -1.05798203857847
C            1.67800752690326        2.93797815532952       -1.68637416224653
C            1.26042240117825        4.05575770506306       -0.98115236973426
C            0.92477014615310        3.94436377636181        0.35720146489367
C            1.00381039741809        2.71577693766228        0.98824490821089
C           -0.55427105715208       -1.07225923837468       -0.22379173503855
P           -1.35888334846192        0.01787788134753        0.99511632608592
C           -2.97846812101346       -0.84002100630285        1.13081192798860
C           -4.20566374036329       -0.30345221751108        0.76117601075033
C           -5.36704523422680       -1.03338686170026        0.95175769753680
C           -5.31722606944610       -2.29664969404064        1.51644664792923
C           -4.09730542671512       -2.83252501773207        1.90038592957915
C           -2.93792509754936       -2.10476751070632        1.71666290720826
C           -1.82191881925580        1.45337971591049       -0.04398824526187
C           -2.41054986062644        2.52886037254111        0.61841085049865
C           -2.76875889351918        3.66921349538980       -0.07410133289745
C           -2.52643627121856        3.75384293803613       -1.43609695472974
C           -1.92657771248539        2.69541491996350       -2.09657231810242
C           -1.57332649486837        1.54873847860946       -1.40674546948740
C           -1.20003937674678       -1.85455123633794       -1.16912533811382
C           -0.47788411532799       -2.64876626909972       -2.04896431706495
C           -1.19504378666121       -3.49290836766374       -3.05769763595876
H            2.79122196889053       -3.37648804673553       -2.72926582896796
H            1.52654151321505       -3.21750592850910       -3.95520973270930
H            1.46912262680583       -4.54772957282510       -2.80557981825877
H            2.64505126493489       -1.87730589457437       -0.98240135477163
H            2.91827413184670       -2.40747016120854        1.65731948256713
H            5.30707453554276       -3.02882150338323        1.69957688618471
H            7.02806686880858       -1.33618383518768        1.17411221745194
H            6.35261884185291        0.97350509808056        0.62970295226752
H            3.97413027247219        1.59007331791264        0.57845062136283
H            2.08437226112956        0.83674388610649       -1.60826161523930
H            1.94033640423272        3.02511796279830       -2.73140606269374
H            1.19528530305479        5.01333590624261       -1.47725001471395
H            0.59799211252107        4.81432904109051        0.90851007886131
H            0.73881915641992        2.61663177047602        2.03251050044680
H           -4.25560801464954        0.67985972048517        0.31553275566787
H           -6.31684597769779       -0.61145244823576        0.65433237651458
H           -6.22668640350720       -2.86176780333027        1.66073422175419
H           -4.05314986975173       -3.81565704299922        2.34720289831819
H           -1.98127682741291       -2.51310631985896        2.01906027474412
H           -2.58527248564735        2.45845922716966        1.68479570368326
H           -3.23132828491706        4.49516139249680        0.44733139466344
H           -2.80019004788564        4.64616580805977       -1.98021687419597
H           -1.73147821083077        2.76137741907318       -3.15761094432155
H           -1.10064654609965        0.72945873026128       -1.92986424600931
H           -2.28146179407828       -1.85048246554667       -1.21629325380191
H           -2.27137811205490       -3.37080189814908       -2.96457559252766
H           -0.95107446489359       -4.54558568940835       -2.91778225042108
H           -0.89920212313065       -3.21672526367414       -4.06955081956797

          :  Hamiltonian                  GFN2-xTB          :
         :: gradient norm              0.000039245228 Eh/a0 ::
         :: HOMO-LUMO gap              3.048948465670 eV    ::
         :: SCC energy               -89.453954445577 Eh    ::
         :: -> dispersion             -0.094324347140 Eh    ::
         :: -> Gsolv                  -0.034889637949 Eh    ::
         :: repulsion energy           1.620943316520 Eh    ::

    * Orbital Energies and Occupations

         #    Occupation            Energy/Eh            Energy/eV
      -------------------------------------------------------------
         1        2.0000           -0.6679598             -18.1761
       ...           ...                  ...                  ...
        71        2.0000           -0.4121558             -11.2153
        72        2.0000           -0.4102842             -11.1644
        73        2.0000           -0.4085905             -11.1183
        74        2.0000           -0.4075162             -11.0891
        75        2.0000           -0.4056096             -11.0372
        76        2.0000           -0.4041954             -10.9987
        77        2.0000           -0.4028250             -10.9614
        78        2.0000           -0.4020094             -10.9392
        79        2.0000           -0.3979527             -10.8288
        80        2.0000           -0.3958849             -10.7726
        81        2.0000           -0.3919721             -10.6661
        82        2.0000           -0.3752086             -10.2099
        83        2.0000           -0.3567748              -9.7083 (HOMO)
        84                         -0.2447280              -6.6594 (LUMO)
        85                         -0.2409371              -6.5562
        86                         -0.2363786              -6.4322
        87                         -0.2331624              -6.3447
        88                         -0.2279290              -6.2023
        89                         -0.2273057              -6.1853
        90                         -0.2248874              -6.1195
        91                         -0.2232398              -6.0747
        92                         -0.2226240              -6.0579
        93                         -0.2217773              -6.0349
        94                         -0.1713160              -4.6617
       ...                                ...                  ...
       174                          1.1899877              32.3812
      -------------------------------------------------------------
                  HL-Gap            0.1120468 Eh            3.0489 eV

     #   Z          covCN         q      C6AA      α(0)
     1   6 C        3.758    -0.107    22.587     6.776
     2   6 C        2.969     0.008    27.843     8.655
     3   6 C        2.952    -0.043    29.062     8.842
     4   6 C        3.051     0.015    27.630     8.621
     5  15 P        3.837    -0.155   167.303    23.235
     6   6 C        2.916     0.020    27.563     8.609
     7   6 C        3.016    -0.026    28.622     8.776
     8   6 C        2.917    -0.031    28.766     8.795
     9   6 C        2.920    -0.031    28.773     8.796
    10   6 C        2.919    -0.030    28.752     8.793
    11   6 C        2.962    -0.029    28.710     8.789
    12   6 C        2.918     0.027    27.390     8.582
    13   6 C        2.972    -0.025    28.612     8.774
    14   6 C        2.919    -0.030    28.751     8.793
    15   6 C        2.920    -0.029    28.715     8.787
    16   6 C        2.918    -0.029    28.735     8.790
    17   6 C        3.006    -0.024    28.593     8.771
    18   6 C        3.065     0.012    27.675     8.626
    19  15 P        3.849    -0.134   166.326    23.167
    20   6 C        2.916     0.021    27.550     8.607
    21   6 C        2.955    -0.030    28.738     8.793
    22   6 C        2.919    -0.030    28.745     8.792
    23   6 C        2.920    -0.030    28.759     8.794
    24   6 C        2.918    -0.029    28.737     8.791
    25   6 C        3.030    -0.025    28.594     8.771
    26   6 C        2.917     0.024    27.481     8.596
    27   6 C        3.025    -0.026    28.616     8.775
    28   6 C        2.918    -0.030    28.753     8.793
    29   6 C        2.920    -0.030    28.747     8.792
    30   6 C        2.920    -0.030    28.738     8.791
    31   6 C        2.962    -0.026    28.649     8.779
    32   6 C        2.960    -0.040    28.984     8.830
    33   6 C        2.969     0.007    27.871     8.660
    34   6 C        3.758    -0.106    22.585     6.776
    35   1 H        0.925     0.042     2.422     2.434
    36   1 H        0.925     0.051     2.310     2.377
    37   1 H        0.925     0.051     2.304     2.374
    38   1 H        0.925     0.034     2.536     2.490
    39   1 H        0.925     0.034     2.525     2.485
    40   1 H        0.926     0.032     2.563     2.504
    41   1 H        0.926     0.032     2.564     2.504
    42   1 H        0.926     0.030     2.584     2.514
    43   1 H        0.925     0.029     2.608     2.525
    44   1 H        0.925     0.034     2.536     2.490
    45   1 H        0.926     0.033     2.546     2.495
    46   1 H        0.926     0.034     2.536     2.490
    47   1 H        0.926     0.033     2.539     2.492
    48   1 H        0.925     0.042     2.426     2.436
    49   1 H        0.926     0.033     2.550     2.497
    50   1 H        0.926     0.032     2.552     2.498
    51   1 H        0.926     0.033     2.538     2.491
    52   1 H        0.926     0.033     2.537     2.491
    53   1 H        0.925     0.035     2.518     2.481
    54   1 H        0.925     0.038     2.469     2.457
    55   1 H        0.926     0.035     2.516     2.480
    56   1 H        0.926     0.034     2.525     2.485
    57   1 H        0.926     0.032     2.560     2.502
    58   1 H        0.926     0.029     2.605     2.524
    59   1 H        0.925     0.032     2.555     2.500
    60   1 H        0.925     0.042     2.425     2.435
    61   1 H        0.925     0.051     2.309     2.376
    62   1 H        0.925     0.051     2.311     2.377

molecular dipole:
                 x           y           z       tot (Debye)
 q only:       -0.183      -0.300      -1.035
   full:       -0.160      -0.307      -1.538       4.006

 projected vibrational frequencies (cm⁻¹)
eigval :       -0.00    -0.00    -0.00     0.00     0.00     0.00
eigval :       12.59    22.31    27.57    30.18    36.44    43.00
eigval :       44.33    47.51    53.56    56.05    62.12    72.23
eigval :       90.07   111.23   111.54   149.88   158.09   181.16
eigval :      185.10   186.45   192.57   214.24   221.42   235.62
eigval :      239.61   242.84   268.56   300.99   347.87   359.20
eigval :      359.89   361.60   363.85   366.20   391.91   394.90
eigval :      405.60   414.23   423.01   438.24   453.16   456.77
eigval :      464.60   489.16   509.26   559.30   575.16   585.27
eigval :      585.58   585.71   587.20   654.42   655.05   655.97
eigval :      656.60   661.09   676.04   681.94   691.16   693.33
eigval :      695.97   734.14   738.17   739.88   741.48   801.68
eigval :      852.51   871.17   873.62   875.09   875.26   885.34
eigval :      895.89   897.44   899.43   899.46   924.06   926.14
eigval :      927.03   927.63   930.01   931.02   932.45   933.39
eigval :      940.79   966.90   967.75   967.86   968.82  1009.76
eigval :     1017.91  1020.11  1031.06  1079.33  1079.94  1080.82
eigval :     1081.29  1107.89  1108.89  1113.87  1114.43  1116.20
eigval :     1116.85  1117.88  1119.45  1140.55  1152.92  1178.61
eigval :     1178.86  1180.13  1180.78  1192.91  1196.19  1197.84
eigval :     1200.59  1250.52  1269.72  1272.54  1274.53  1275.74
eigval :     1277.31  1313.80  1314.20  1315.75  1316.50  1319.85
eigval :     1382.22  1400.20  1405.97  1419.20  1419.72  1421.96
eigval :     1423.91  1450.31  1450.65  1451.87  1452.51  1454.26
eigval :     1469.03  1474.13  1482.64  1486.67  1549.56  1573.84
eigval :     1574.30  1576.37  1577.34  1578.96  1583.79  1584.53
eigval :     1586.55  1586.93  2996.13  2998.63  3009.62  3014.43
eigval :     3039.43  3040.56  3041.82  3042.04  3045.00  3052.61
eigval :     3055.51  3056.38  3057.67  3061.33  3064.48  3064.64
eigval :     3066.63  3068.21  3068.97  3069.86  3071.45  3073.44
eigval :     3074.88  3075.34  3083.50  3084.83  3085.27  3086.26

   temp. (K)  partition function   enthalpy   heat capacity  entropy
                                   cal/mol     cal/K/mol   cal/K/mol   J/K/mol
 298.15  VIB  0.666E+15            18432.861    110.652    116.462
         ROT  0.248E+08              888.752      2.981     36.813
         INT  0.165E+23            19321.613    113.633    153.275
         TR   0.100E+29             1481.254      4.968     44.339
         TOT                       20802.8668   118.6010   197.6144   826.8186

       T/K    H(0)-H(T)+PV         H(T)/Eh          T*S/Eh         G(T)/Eh
   ------------------------------------------------------------------------
    298.15    0.331515E-01    0.519091E+00    0.938930E-01    0.425198E+00
   ------------------------------------------------------------------------

         :::::::::::::::::::::::::::::::::::::::::::::::::::::
         ::                  THERMODYNAMIC                  ::
         :::::::::::::::::::::::::::::::::::::::::::::::::::::
         :: total free energy         -87.407813243917 Eh   ::
         ::.................................................::
         :: total energy              -87.833011132101 Eh   ::
         :: zero point energy           0.485939379651 Eh   ::
         :: G(RRHO) w/o ZPVE           -0.060741491467 Eh   ::
         :: G(RRHO) contrib.            0.425197888184 Eh   ::
         :::::::::::::::::::::::::::::::::::::::::::::::::::::

           -------------------------------------------------
          | TOTAL ENERGY              -87.833011132101 Eh   |
          | TOTAL ENTHALPY            -87.313920273944 Eh   |
          | TOTAL FREE ENERGY         -87.407813243917 Eh   |
          | GRADIENT NORM               0.000039248698 Eh/α |
          | HOMO-LUMO GAP               3.048948470766 eV   |
           -------------------------------------------------

 * finished run on 2025/08/30 at 19:49:38.210
