   * xtb version 6.7.1 (edcfbbe) compiled by 'albert@albert-system' on 2024-07-22

   ID    Z sym.   atoms
    1    6 C      1-4, 6-18, 20-34
    2   15 P      5, 19
    3    1 H      35-62

          program call               : xtb data2507/toluene/dpmb/dpmb_toluene_S0_finalOpt.xtbopt.xyz --gfn 2 --uhf 2 --gbsa toluene --ohess vtight --parallel 40 --molden --ceasefiles --namespace data2507/toluene/dpmb/dpmb_toluene_T1_preOpt
      * Solvation model:               GBSA
        Solvent                        toluene
        Solvent mass                       9.2140E+01 g/mol
          :  Hamiltonian                  GFN2-xTB          :
 * total energy  :   -87.7150384 Eh     change       -0.1014911E-08 Eh
 * total energy  :   -87.7210391 Eh     change       -0.6000676E-02 Eh
 * total energy  :   -87.7228835 Eh     change       -0.1844391E-02 Eh
 * total energy  :   -87.7243743 Eh     change       -0.1490820E-02 Eh
 * total energy  :   -87.7254447 Eh     change       -0.1070392E-02 Eh
 * total energy  :   -87.7262523 Eh     change       -0.8075671E-03 Eh
 * total energy  :   -87.7268857 Eh     change       -0.6334753E-03 Eh
 * total energy  :   -87.7273969 Eh     change       -0.5111290E-03 Eh
 * total energy  :   -87.7279042 Eh     change       -0.5073082E-03 Eh
 * total energy  :   -87.7283857 Eh     change       -0.4815169E-03 Eh
 * total energy  :   -87.7317230 Eh     change       -0.2306123E-06 Eh
 * total energy  :   -87.7317232 Eh     change       -0.2306488E-06 Eh
 * total energy  :   -87.7317235 Eh     change       -0.2211306E-06 Eh
 * total energy  :   -87.7317237 Eh     change       -0.2016351E-06 Eh
 * total energy  :   -87.7317238 Eh     change       -0.1502370E-06 Eh
 * total energy  :   -87.7317239 Eh     change       -0.1240006E-06 Eh
 * total energy  :   -87.7317241 Eh     change       -0.1246084E-06 Eh
 * total energy  :   -87.7317242 Eh     change       -0.1088298E-06 Eh
 * total energy  :   -87.7317242 Eh     change       -0.6023741E-07 Eh
   *** GEOMETRY OPTIMIZATION CONVERGED AFTER 63 ITERATIONS ***

 final structure:
================
62
 xtb: 6.7.1 (edcfbbe)
C            1.85639456354702       -3.32206156243557       -3.45182569412794
C            0.99958171575601       -2.61183310331376       -2.44868854935827
C            1.60353437873953       -1.78735022363251       -1.49076280762824
C            0.80885218446795       -1.11432863436330       -0.58139609148093
P            1.24624603530452        0.11257885380353        0.67529881231514
C            2.93315190127268       -0.36874778289058        1.19210899091202
C            3.14404723987952       -1.68779982718695        1.61086494304540
C            4.35699308201973       -2.05788172475816        2.14972754735386
C            5.35975825805906       -1.11026530477468        2.32586180879997
C            5.13711652248775        0.21057774413061        1.95893646999993
C            3.92621221960608        0.58977519381343        1.41631375670401
C            1.40169207884316        1.72023687472554       -0.12032531026393
C            1.56388583020529        1.82610934949852       -1.50921708167642
C            1.55680936732717        3.06603955717573       -2.10839514363193
C            1.38008548950568        4.21757706174220       -1.35002618060631
C            1.20856456407320        4.11740491605639        0.02725097335065
C            1.20773228215508        2.88465994748879        0.63794588501053
C           -0.57643749573363       -1.26974161870415       -0.59903539227822
P           -1.30417054393038       -0.17646850440141        0.64767203500199
C           -2.85680553406700       -1.02081831439878        1.11929243904040
C           -4.05131266121920       -0.31388366552556        1.28838817331796
C           -5.16231829386507       -0.95479596401527        1.79787717771362
C           -5.08899328465039       -2.28570501283308        2.18778830014809
C           -3.88921785390802       -2.97905554094519        2.06720546869647
C           -2.77458842024921       -2.34688348549164        1.56083736892443
C           -1.78266597998570        1.36041139317849       -0.15767820565871
C           -1.89666841780436        2.52817576156413        0.61164190525214
C           -2.15385090506612        3.73585415764581        0.00491299496362
C           -2.28315156730444        3.81165642100196       -1.37845746129376
C           -2.15734380681742        2.66006171525051       -2.14686370836281
C           -1.90524870591300        1.44381700699953       -1.55200641730436
C           -1.18056289365055       -2.10185964450615       -1.52125102383492
C           -0.38684139007489       -2.76914709947133       -2.46426553339653
C           -1.04131147566113       -3.65110191038139       -3.48328779926086
H            2.90704807257229       -3.09499463325112       -3.28984744348791
H            1.58820196016386       -3.02307453914461       -4.46502705563871
H            1.71832005312129       -4.40048949527305       -3.37922069040395
H            2.67995773288715       -1.68613589236939       -1.45762360994567
H            2.35401601847148       -2.41543126300378        1.47361623658308
H            4.52769783720297       -3.08423409711354        2.44230552774106
H            6.30566514174672       -1.39897217695565        2.75953904916733
H            5.91486806903710        0.94765331016169        2.10140698670424
H            3.74928012321111        1.61571182094925        1.12308648798487
H            1.69996103608004        0.93048591656407       -2.09980460410741
H            1.68950187997667        3.14279168815870       -3.17875567058140
H            1.37450801792883        5.18578943635554       -1.82783988849531
H            1.07338995746500        5.01214415106589        0.61841304308705
H            1.07244504510755        2.79825788163294        1.70818260454917
H           -4.10489971484022        0.72090536472323        0.97857977410496
H           -6.09345896613684       -0.41489425392952        1.89731414944973
H           -5.95909926402355       -2.77806476380289        2.59594794417853
H           -3.83023132145762       -4.01275971082718        2.37728819146938
H           -1.83385558002353       -2.87463325045379        1.46609612346043
H           -1.79168205300533        2.46126964795175        1.68671971734196
H           -2.25378397234153        4.62990555083791        0.60408027509738
H           -2.47922432048021        4.76136341263279       -1.85314431517275
H           -2.25723134318963        2.71845888230413       -3.22189427071060
H           -1.80495504687391        0.54899881442429       -2.15085158211502
H           -2.25296571164594       -2.24253151995731       -1.51256873090161
H           -2.11999909010608       -3.65929522965821       -3.34879467988645
H           -0.67287869517645       -4.67320869627081       -3.39911151326028
H           -0.81924015852467       -3.30268725549413       -4.49182526249432

          :  Hamiltonian                  GFN2-xTB          :
         :: gradient norm              0.000042404842 Eh/a0 ::
         :: HOMO-LUMO gap              0.325727244723 eV    ::
         :: SCC energy               -89.345846949529 Eh    ::
         :: -> dispersion             -0.092979301851 Eh    ::
         :: -> Gsolv                  -0.035099921303 Eh    ::
         :: repulsion energy           1.614122717181 Eh    ::

    * Orbital Energies and Occupations

         #    Occupation            Energy/Eh            Energy/eV
      -------------------------------------------------------------
         1        2.0000           -0.6799425             -18.5022
       ...           ...                  ...                  ...
        72        2.0000           -0.4117884             -11.2053
        73        2.0000           -0.4085825             -11.1181
        74        2.0000           -0.4081901             -11.1074
        75        2.0000           -0.4077013             -11.0941
        76        2.0000           -0.4076295             -11.0922
        77        2.0000           -0.4018960             -10.9361
        78        2.0000           -0.4003778             -10.8948
        79        2.0000           -0.3985882             -10.8461
        80        2.0000           -0.3963459             -10.7851
        81        2.0000           -0.3901848             -10.6175
        82        2.0000           -0.3844414             -10.4612
        83        1.0000           -0.3413580              -9.2888
        84        0.9981           -0.2554606              -6.9514 (HOMO)
        85        0.0018           -0.2434903              -6.6257 (LUMO)
        86        0.0001           -0.2409392              -6.5563
        87                         -0.2316627              -6.3039
        88                         -0.2293360              -6.2405
        89                         -0.2256043              -6.1390
        90                         -0.2254235              -6.1341
        91                         -0.2237225              -6.0878
        92                         -0.2213465              -6.0231
        93                         -0.2131627              -5.8005
        94                         -0.1742716              -4.7422
        95                         -0.1582859              -4.3072
       ...                                ...                  ...
       174                          1.5085765              41.0505
      -------------------------------------------------------------
                  HL-Gap            0.0119702 Eh            0.3257 eV

     #   Z          covCN         q      C6AA      α(0)
     1   6 C        3.758    -0.107    22.602     6.778
     2   6 C        2.969     0.008    27.830     8.653
     3   6 C        2.944    -0.047    29.166     8.857
     4   6 C        3.157     0.012    27.440     8.565
     5  15 P        4.240    -0.087   164.137    23.014
     6   6 C        2.917     0.015    27.687     8.629
     7   6 C        3.000    -0.025    28.608     8.774
     8   6 C        2.916    -0.029    28.724     8.789
     9   6 C        2.919    -0.032    28.804     8.801
    10   6 C        2.917    -0.028    28.700     8.785
    11   6 C        2.975    -0.028    28.684     8.785
    12   6 C        2.917     0.015    27.680     8.627
    13   6 C        2.988    -0.031    28.774     8.799
    14   6 C        2.917    -0.031    28.777     8.797
    15   6 C        2.919    -0.041    29.020     8.834
    16   6 C        2.916    -0.032    28.786     8.798
    17   6 C        3.003    -0.029    28.705     8.789
    18   6 C        3.156     0.012    27.432     8.564
    19  15 P        4.241    -0.086   164.100    23.011
    20   6 C        2.917     0.014    27.690     8.629
    21   6 C        2.973    -0.028    28.686     8.785
    22   6 C        2.917    -0.028    28.701     8.785
    23   6 C        2.919    -0.032    28.808     8.802
    24   6 C        2.916    -0.029    28.724     8.789
    25   6 C        3.001    -0.025    28.608     8.774
    26   6 C        2.917     0.015    27.670     8.626
    27   6 C        3.005    -0.029    28.700     8.788
    28   6 C        2.916    -0.031    28.783     8.798
    29   6 C        2.919    -0.041    29.014     8.833
    30   6 C        2.917    -0.031    28.773     8.796
    31   6 C        2.986    -0.031    28.768     8.798
    32   6 C        2.944    -0.047    29.156     8.856
    33   6 C        2.969     0.008    27.849     8.656
    34   6 C        3.758    -0.107    22.600     6.778
    35   1 H        0.925     0.044     2.402     2.424
    36   1 H        0.925     0.052     2.300     2.371
    37   1 H        0.925     0.053     2.287     2.365
    38   1 H        0.925     0.033     2.541     2.493
    39   1 H        0.925     0.037     2.484     2.465
    40   1 H        0.926     0.036     2.508     2.476
    41   1 H        0.926     0.035     2.517     2.481
    42   1 H        0.926     0.035     2.521     2.483
    43   1 H        0.925     0.035     2.512     2.479
    44   1 H        0.925     0.026     2.639     2.540
    45   1 H        0.925     0.027     2.629     2.536
    46   1 H        0.926     0.025     2.655     2.548
    47   1 H        0.926     0.028     2.621     2.532
    48   1 H        0.925     0.031     2.579     2.511
    49   1 H        0.925     0.035     2.514     2.479
    50   1 H        0.926     0.035     2.521     2.483
    51   1 H        0.926     0.035     2.518     2.481
    52   1 H        0.926     0.036     2.508     2.477
    53   1 H        0.925     0.037     2.486     2.466
    54   1 H        0.925     0.031     2.576     2.510
    55   1 H        0.926     0.028     2.616     2.529
    56   1 H        0.926     0.026     2.651     2.546
    57   1 H        0.925     0.027     2.627     2.535
    58   1 H        0.925     0.026     2.641     2.541
    59   1 H        0.925     0.033     2.539     2.492
    60   1 H        0.925     0.043     2.403     2.424
    61   1 H        0.925     0.052     2.289     2.366
    62   1 H        0.925     0.052     2.301     2.372

molecular dipole:
                 x           y           z       tot (Debye)
 q only:        0.127      -1.128      -0.459
   full:        0.121      -1.063      -0.659       3.194

 projected vibrational frequencies (cm⁻¹)
eigval :       -0.00    -0.00    -0.00    -0.00     0.00     0.00
eigval :       17.25    20.90    25.20    30.73    36.13    38.77
eigval :       40.67    41.33    46.68    48.64    50.87    69.87
eigval :       83.59   116.08   134.95   143.94   147.40   155.86
eigval :      159.34   181.06   183.31   197.53   210.46   220.27
eigval :      224.25   225.11   265.49   298.84   303.84   332.95
eigval :      355.55   357.22   361.77   366.25   370.05   376.63
eigval :      389.44   395.06   401.88   423.44   427.02   428.03
eigval :      445.22   454.41   490.56   508.13   564.77   579.56
eigval :      579.60   582.26   582.80   621.79   623.89   629.28
eigval :      632.27   636.74   661.71   668.50   689.20   692.90
eigval :      707.19   710.99   720.91   728.56   731.44   789.17
eigval :      819.74   847.04   851.60   853.13   859.49   861.80
eigval :      863.93   867.05   880.30   882.76   910.48   912.37
eigval :      913.47   915.50   917.93   920.70   921.00   924.72
eigval :      926.54   959.12   959.31   960.71   961.45  1000.68
eigval :     1005.17  1017.80  1028.44  1029.34  1039.46  1060.52
eigval :     1067.13  1068.68  1069.39  1073.57  1084.74  1111.64
eigval :     1112.01  1112.32  1113.24  1114.83  1148.59  1173.67
eigval :     1173.73  1174.66  1175.47  1188.19  1189.19  1191.65
eigval :     1195.45  1216.16  1247.39  1264.17  1265.09  1267.01
eigval :     1267.97  1322.89  1323.25  1326.82  1329.12  1337.55
eigval :     1351.55  1399.10  1404.76  1406.18  1411.59  1411.94
eigval :     1412.86  1420.34  1422.58  1423.13  1428.36  1431.14
eigval :     1437.49  1468.11  1481.93  1482.12  1486.73  1494.62
eigval :     1506.09  1519.25  1520.13  1527.93  1534.77  1540.92
eigval :     1543.22  1575.86  2993.63  2996.96  3008.39  3012.74
eigval :     3042.71  3042.84  3043.06  3044.23  3046.54  3048.31
eigval :     3056.10  3057.29  3057.50  3059.12  3059.30  3059.66
eigval :     3065.92  3067.22  3068.33  3068.91  3069.41  3069.88
eigval :     3071.50  3071.67  3085.50  3087.42  3087.91  3088.69

   temp. (K)  partition function   enthalpy   heat capacity  entropy
                                   cal/mol     cal/K/mol   cal/K/mol   J/K/mol
 298.15  VIB  0.260E+16            18999.776    112.475    119.760
         ROT  0.254E+08              888.752      2.981     36.864
         INT  0.660E+23            19888.529    115.456    156.625
         TR   0.100E+29             1481.254      4.968     44.339
         TOT                       21369.7827   120.4238   200.9640   840.8336

       T/K    H(0)-H(T)+PV         H(T)/Eh          T*S/Eh         G(T)/Eh
   ------------------------------------------------------------------------
    298.15    0.340549E-01    0.514489E+00    0.954845E-01    0.419004E+00
   ------------------------------------------------------------------------

         :::::::::::::::::::::::::::::::::::::::::::::::::::::
         ::                  THERMODYNAMIC                  ::
         :::::::::::::::::::::::::::::::::::::::::::::::::::::
         :: total free energy         -87.312719879794 Eh   ::
         ::.................................................::
         :: total energy              -87.731724230817 Eh   ::
         :: zero point energy           0.480433938200 Eh   ::
         :: G(RRHO) w/o ZPVE           -0.061429587177 Eh   ::
         :: G(RRHO) contrib.            0.419004351023 Eh   ::
         :::::::::::::::::::::::::::::::::::::::::::::::::::::

           -------------------------------------------------
          | TOTAL ENERGY              -87.731724230817 Eh   |
          | TOTAL ENTHALPY            -87.217235376178 Eh   |
          | TOTAL FREE ENERGY         -87.312719879794 Eh   |
          | GRADIENT NORM               0.000042357218 Eh/α |
          | HOMO-LUMO GAP               0.325727033340 eV   |
           -------------------------------------------------

 * finished run on 2025/08/30 at 19:49:44.463
