   * xtb version 6.7.1 (edcfbbe) compiled by 'albert@albert-system' on 2024-07-22

   ID    Z sym.   atoms
    1    6 C      1-4, 6-18, 20-34
    2   15 P      5, 19
    3    1 H      35-62

          program call               : xtb data2507/toluene/dpmb/dpmb.xyz --gfn 2 --gbsa toluene --ohess vtight --parallel 40 --molden --ceasefiles --namespace data2507/toluene/dpmb/dpmb_toluene_S0_preOpt
      * Solvation model:               GBSA
        Solvent                        toluene
        Solvent mass                       9.2140E+01 g/mol
          :  Hamiltonian                  GFN2-xTB          :
 * total energy  :   -87.8100157 Eh     change       -0.4095952E-08 Eh
 * total energy  :   -87.8212361 Eh     change       -0.1122039E-01 Eh
 * total energy  :   -87.8249610 Eh     change       -0.3724893E-02 Eh
 * total energy  :   -87.8269156 Eh     change       -0.1954549E-02 Eh
 * total energy  :   -87.8280727 Eh     change       -0.1157141E-02 Eh
 * total energy  :   -87.8286452 Eh     change       -0.5724458E-03 Eh
 * total energy  :   -87.8289805 Eh     change       -0.3353859E-03 Eh
 * total energy  :   -87.8291940 Eh     change       -0.2134295E-03 Eh
 * total energy  :   -87.8292687 Eh     change       -0.7472075E-04 Eh
 * total energy  :   -87.8292923 Eh     change       -0.2364020E-04 Eh
 * total energy  :   -87.8330143 Eh     change       -0.7158442E-06 Eh
 * total energy  :   -87.8330148 Eh     change       -0.5420092E-06 Eh
 * total energy  :   -87.8330152 Eh     change       -0.3721721E-06 Eh
 * total energy  :   -87.8330156 Eh     change       -0.4586834E-06 Eh
 * total energy  :   -87.8330161 Eh     change       -0.5067550E-06 Eh
 * total energy  :   -87.8330167 Eh     change       -0.5996234E-06 Eh
 * total energy  :   -87.8330173 Eh     change       -0.6053165E-06 Eh
 * total energy  :   -87.8330177 Eh     change       -0.3190441E-06 Eh
 * total energy  :   -87.8330177 Eh     change       -0.5043027E-07 Eh
   *** GEOMETRY OPTIMIZATION CONVERGED AFTER 87 ITERATIONS ***

 final structure:
================
62
 xtb: 6.7.1 (edcfbbe)
C            1.46373851845583       -2.78741629430612       -3.22554931248319
C            0.69111695408516       -2.18684502985494       -2.09127397362744
C            1.34672660329994       -1.43662403831908       -1.12499970333410
C            0.65000392701647       -0.87985667816337       -0.06336330193555
P            1.36795861514937        0.12999853951438        1.27330898524477
C            3.07663860868605       -0.54739555057239        1.26149805161416
C            3.19899398891567       -1.87007780306862        1.68578326325873
C            4.43795348549525       -2.47754213226356        1.74667271954896
C            5.57508376451134       -1.76409133547965        1.39939307918925
C            5.46275485792259       -0.44505603294895        0.99369715719085
C            4.22152711082864        0.16543680688342        0.92740045409512
C            1.63293921422511        1.73032768289972        0.42239260292704
C            1.30690280236311        1.97762899834466       -0.90440870671691
C            1.50949513770748        3.23569743892345       -1.44465432367608
C            2.03328160814405        4.25551652285763       -0.66890089196445
C            2.35068447396640        4.01881212622295        0.65935930254189
C            2.14323919214065        2.76596548934152        1.20295873964661
C           -0.72877183276346       -1.07330961349856        0.04133120169092
P           -1.44682464822501       -0.28692792012334        1.52747094762240
C           -3.19261840052358       -0.84446944243099        1.40657834982535
C           -4.27748456008166        0.02082241731894        1.32120486096346
C           -5.56900385972790       -0.47757152600933        1.33028109077561
C           -5.79288647947174       -1.83992407771731        1.43799607131335
C           -4.71766660985434       -2.70775016626526        1.55359260479439
C           -3.42832605998348       -2.21161180140912        1.55117472649415
C           -1.59182640063824        1.41998724061968        0.87076047722558
C           -1.25207361059745        2.47549756013618        1.70814591936521
C           -1.32672393887034        3.77985384750333        1.25309106434657
C           -1.73815566168640        4.03603267629691       -0.04359370875635
C           -2.07901619742808        2.98693877125997       -0.88291950676506
C           -2.00631042577532        1.68304025776420       -0.43043194751728
C           -1.38734990120152       -1.81601000427608       -0.92623610281173
C           -0.69384392570783       -2.37458789519021       -1.99185882582969
C           -1.42927440510788       -3.17562373309789       -3.02251169014390
H            1.35951786301207       -3.87209509627746       -3.22625569469126
H            2.51933312352879       -2.54050092536035       -3.14349539825137
H            1.09241077796047       -2.41880595980072       -4.18147390301413
H            2.41642522809719       -1.28744848381107       -1.19740562551097
H            2.30604700813346       -2.41903902242485        1.95927906639549
H            4.52042810812074       -3.50589752212530        2.06869506898473
H            6.54611523174585       -2.23527397038306        1.44814537141585
H            6.34727372745434        0.11532839895954        0.72477431796233
H            4.14539287125874        1.19453903835722        0.60642880470957
H            0.89232231666644        1.18912982783411       -1.51647843227318
H            1.25538813432754        3.41941892259905       -2.47900796296433
H            2.18995965784272        5.23521692551516       -1.09657486891551
H            2.75431836124793        4.81339669554919        1.27078964551170
H            2.37843244024512        2.57461074389597        2.24252638736307
H           -4.11216759575586        1.08636012439086        1.24137776632362
H           -6.40495833717970        0.20359760712717        1.25398593459688
H           -6.80248342463317       -2.22479948665373        1.44172615648829
H           -4.88737868085698       -3.77076079026888        1.65225512451846
H           -2.58456837330610       -2.88320393948105        1.65332748422481
H           -0.92674389526430        2.26313873587869        2.71798045186985
H           -1.05974368529527        4.59649483413060        1.90830349319619
H           -1.79148648617009        5.05354605192733       -0.40301999849337
H           -2.39985312999443        3.18714046900209       -1.89564965563189
H           -2.27171273598127        0.86334437597852       -1.08482480495017
H           -2.45594978540921       -1.96961268490896       -0.85259229023943
H           -2.49140073307159       -3.21531526425919       -2.79333837996748
H           -1.04372823806150       -4.19410099849887       -3.06083985188763
H           -1.30207069395081       -2.73727490773942       -4.01202488095586

          :  Hamiltonian                  GFN2-xTB          :
         :: gradient norm              0.000121975460 Eh/a0 ::
         :: HOMO-LUMO gap              3.059516930302 eV    ::
         :: SCC energy               -89.453921415373 Eh    ::
         :: -> dispersion             -0.094377623908 Eh    ::
         :: -> Gsolv                  -0.034874213495 Eh    ::
         :: repulsion energy           1.620903705668 Eh    ::

    * Orbital Energies and Occupations

         #    Occupation            Energy/Eh            Energy/eV
      -------------------------------------------------------------
         1        2.0000           -0.6679571             -18.1760
       ...           ...                  ...                  ...
        71        2.0000           -0.4121179             -11.2143
        72        2.0000           -0.4101480             -11.1607
        73        2.0000           -0.4086420             -11.1197
        74        2.0000           -0.4074928             -11.0884
        75        2.0000           -0.4055997             -11.0369
        76        2.0000           -0.4041154             -10.9965
        77        2.0000           -0.4028226             -10.9614
        78        2.0000           -0.4021384             -10.9427
        79        2.0000           -0.3980184             -10.8306
        80        2.0000           -0.3957199             -10.7681
        81        2.0000           -0.3918514             -10.6628
        82        2.0000           -0.3751582             -10.2086
        83        2.0000           -0.3569014              -9.7118 (HOMO)
        84                         -0.2444662              -6.6523 (LUMO)
        85                         -0.2410382              -6.5590
        86                         -0.2362519              -6.4287
        87                         -0.2333714              -6.3504
        88                         -0.2280525              -6.2056
        89                         -0.2271706              -6.1816
        90                         -0.2247796              -6.1166
        91                         -0.2232541              -6.0751
        92                         -0.2225537              -6.0560
        93                         -0.2218292              -6.0363
        94                         -0.1712563              -4.6601
       ...                                ...                  ...
       174                          1.1778589              32.0512
      -------------------------------------------------------------
                  HL-Gap            0.1124352 Eh            3.0595 eV

     #   Z          covCN         q      C6AA      α(0)
     1   6 C        3.758    -0.106    22.585     6.776
     2   6 C        2.969     0.007    27.872     8.660
     3   6 C        2.960    -0.040    28.982     8.830
     4   6 C        3.065     0.012    27.677     8.627
     5  15 P        3.844    -0.134   166.311    23.166
     6   6 C        2.916     0.021    27.549     8.607
     7   6 C        3.029    -0.025    28.595     8.771
     8   6 C        2.918    -0.029    28.736     8.791
     9   6 C        2.920    -0.030    28.758     8.794
    10   6 C        2.919    -0.030    28.745     8.792
    11   6 C        2.955    -0.030    28.740     8.793
    12   6 C        2.917     0.023    27.485     8.597
    13   6 C        2.962    -0.026    28.650     8.779
    14   6 C        2.920    -0.030    28.738     8.791
    15   6 C        2.920    -0.030    28.748     8.792
    16   6 C        2.918    -0.030    28.754     8.793
    17   6 C        3.025    -0.026    28.616     8.775
    18   6 C        3.049     0.015    27.632     8.621
    19  15 P        3.833    -0.155   167.308    23.235
    20   6 C        2.916     0.020    27.564     8.609
    21   6 C        2.963    -0.029    28.710     8.789
    22   6 C        2.919    -0.030    28.752     8.793
    23   6 C        2.920    -0.031    28.774     8.796
    24   6 C        2.917    -0.031    28.768     8.795
    25   6 C        3.015    -0.026    28.625     8.776
    26   6 C        2.918     0.028    27.387     8.582
    27   6 C        3.006    -0.024    28.590     8.771
    28   6 C        2.918    -0.029    28.734     8.790
    29   6 C        2.920    -0.029    28.714     8.787
    30   6 C        2.919    -0.030    28.751     8.793
    31   6 C        2.972    -0.025    28.611     8.774
    32   6 C        2.952    -0.043    29.066     8.843
    33   6 C        2.969     0.008    27.842     8.655
    34   6 C        3.758    -0.107    22.587     6.776
    35   1 H        0.925     0.051     2.309     2.376
    36   1 H        0.925     0.042     2.425     2.435
    37   1 H        0.925     0.051     2.310     2.377
    38   1 H        0.925     0.032     2.555     2.500
    39   1 H        0.925     0.035     2.517     2.481
    40   1 H        0.926     0.034     2.537     2.491
    41   1 H        0.926     0.033     2.537     2.491
    42   1 H        0.926     0.032     2.551     2.498
    43   1 H        0.926     0.033     2.547     2.496
    44   1 H        0.926     0.028     2.608     2.526
    45   1 H        0.926     0.032     2.561     2.502
    46   1 H        0.926     0.034     2.525     2.485
    47   1 H        0.926     0.035     2.516     2.480
    48   1 H        0.925     0.038     2.470     2.458
    49   1 H        0.925     0.028     2.608     2.526
    50   1 H        0.926     0.030     2.585     2.514
    51   1 H        0.926     0.031     2.565     2.505
    52   1 H        0.926     0.032     2.564     2.504
    53   1 H        0.925     0.034     2.524     2.485
    54   1 H        0.925     0.042     2.422     2.434
    55   1 H        0.926     0.033     2.540     2.492
    56   1 H        0.926     0.033     2.537     2.491
    57   1 H        0.926     0.033     2.547     2.495
    58   1 H        0.925     0.034     2.536     2.490
    59   1 H        0.925     0.034     2.533     2.489
    60   1 H        0.925     0.042     2.421     2.433
    61   1 H        0.925     0.051     2.304     2.374
    62   1 H        0.925     0.051     2.310     2.377

molecular dipole:
                 x           y           z       tot (Debye)
 q only:        0.188      -0.132      -1.070
   full:        0.147      -0.075      -1.569       4.009

 projected vibrational frequencies (cm⁻¹)
eigval :       -0.00    -0.00    -0.00    -0.00     0.00     0.00
eigval :       16.13    23.09    31.88    33.08    40.68    44.15
eigval :       47.73    50.61    53.84    59.03    66.15    74.05
eigval :       90.09   110.96   111.58   149.65   159.03   181.57
eigval :      186.55   186.71   193.31   214.37   221.89   235.69
eigval :      240.62   243.69   268.64   301.12   347.31   359.32
eigval :      362.52   364.04   366.25   367.50   391.63   395.06
eigval :      406.09   414.00   423.00   437.69   453.73   456.95
eigval :      465.00   489.27   509.57   559.44   575.33   584.91
eigval :      585.56   585.79   587.17   655.60   655.78   656.68
eigval :      657.03   661.25   675.93   681.96   690.77   693.33
eigval :      696.03   736.57   738.51   742.67   744.92   801.90
eigval :      855.12   873.58   874.32   876.82   881.60   888.08
eigval :      896.50   899.11   899.98   902.39   925.21   926.75
eigval :      927.03   931.10   931.20   933.75   937.30   937.37
eigval :      940.69   966.43   967.79   967.97   968.89  1010.18
eigval :     1018.17  1019.66  1030.26  1079.95  1080.38  1080.44
eigval :     1081.41  1107.51  1108.98  1114.76  1115.34  1116.97
eigval :     1117.42  1117.53  1118.22  1140.94  1153.02  1178.95
eigval :     1179.16  1179.70  1181.52  1194.38  1196.78  1197.12
eigval :     1199.37  1251.01  1269.95  1274.47  1274.54  1276.37
eigval :     1277.54  1313.82  1314.15  1315.95  1316.70  1319.87
eigval :     1382.13  1400.05  1405.69  1418.99  1419.89  1422.33
eigval :     1424.58  1450.30  1450.40  1452.50  1453.18  1454.58
eigval :     1469.00  1474.37  1482.48  1486.79  1549.68  1573.73
eigval :     1574.43  1576.38  1577.35  1579.17  1583.97  1584.38
eigval :     1586.82  1587.21  2995.92  2998.19  3009.21  3014.18
eigval :     3039.33  3041.03  3041.31  3042.54  3045.27  3052.33
eigval :     3055.85  3056.46  3057.71  3062.08  3064.12  3064.44
eigval :     3067.27  3067.54  3069.29  3070.36  3072.11  3073.32
eigval :     3074.81  3076.18  3083.09  3084.60  3085.28  3085.70

   temp. (K)  partition function   enthalpy   heat capacity  entropy
                                   cal/mol     cal/K/mol   cal/K/mol   J/K/mol
 298.15  VIB  0.273E+15            18369.286    111.004    115.845
         ROT  0.247E+08              888.752      2.981     36.811
         INT  0.675E+22            19258.038    113.985    152.656
         TR   0.100E+29             1481.254      4.968     44.339
         TOT                       20739.2923   118.9529   196.9955   824.2290

       T/K    H(0)-H(T)+PV         H(T)/Eh          T*S/Eh         G(T)/Eh
   ------------------------------------------------------------------------
    298.15    0.330502E-01    0.519241E+00    0.935989E-01    0.425643E+00
   ------------------------------------------------------------------------

         :::::::::::::::::::::::::::::::::::::::::::::::::::::
         ::                  THERMODYNAMIC                  ::
         :::::::::::::::::::::::::::::::::::::::::::::::::::::
         :: total free energy         -87.407375155348 Eh   ::
         ::.................................................::
         :: total energy              -87.833017709410 Eh   ::
         :: zero point energy           0.486191286114 Eh   ::
         :: G(RRHO) w/o ZPVE           -0.060548732052 Eh   ::
         :: G(RRHO) contrib.            0.425642554062 Eh   ::
         :::::::::::::::::::::::::::::::::::::::::::::::::::::

           -------------------------------------------------
          | TOTAL ENERGY              -87.833017709410 Eh   |
          | TOTAL ENTHALPY            -87.313776257298 Eh   |
          | TOTAL FREE ENERGY         -87.407375155348 Eh   |
          | GRADIENT NORM               0.000121975597 Eh/α |
          | HOMO-LUMO GAP               3.059517897040 eV   |
           -------------------------------------------------

 * finished run on 2025/08/30 at 19:47:29.034
