   * xtb version 6.7.1 (edcfbbe) compiled by 'albert@albert-system' on 2024-07-22

   ID    Z sym.   atoms
    1    6 C      1-9, 11-15, 17-19, 21-34, 36-56
    2    7 N      10, 20, 35
    3    8 O      16
    4    1 H      57-93

          program call               : xtb data2507/gas/DCPDAPM/DCPDAPM_gas_T1_crest.xyz --gfn 2 --spinpol --tblite --uhf 2 --ohess vtight --parallel 40 --molden --ceasefiles --namespace data2507/gas/DCPDAPM/DCPDAPM_gas_T1_finalOpt
 * total energy  :  -143.0770482 Eh     change        0.2754587E-07 Eh
 * total energy  :  -143.0770875 Eh     change       -0.3929569E-04 Eh
 * total energy  :  -143.0770991 Eh     change       -0.1163027E-04 Eh
 * total energy  :  -143.0771004 Eh     change       -0.1264650E-05 Eh
 * total energy  :  -143.0771019 Eh     change       -0.1502441E-05 Eh
 * total energy  :  -143.0771039 Eh     change       -0.1990134E-05 Eh
 * total energy  :  -143.0771065 Eh     change       -0.2593300E-05 Eh
 * total energy  :  -143.0771076 Eh     change       -0.1129373E-05 Eh
 * total energy  :  -143.0771081 Eh     change       -0.4917643E-06 Eh
 * total energy  :  -143.0771086 Eh     change       -0.5277875E-06 Eh
 * total energy  :  -143.0771119 Eh     change       -0.2091091E-06 Eh
 * total energy  :  -143.0771120 Eh     change       -0.1658165E-06 Eh
 * total energy  :  -143.0771123 Eh     change       -0.2267952E-06 Eh
 * total energy  :  -143.0771122 Eh     change        0.3938837E-07 Eh
 * total energy  :  -143.0771124 Eh     change       -0.1390540E-06 Eh
 * total energy  :  -143.0771126 Eh     change       -0.2156093E-06 Eh
 * total energy  :  -143.0771126 Eh     change       -0.1756456E-07 Eh
 * total energy  :  -143.0771127 Eh     change       -0.1223526E-06 Eh
 * total energy  :  -143.0771128 Eh     change       -0.7668118E-07 Eh
   *** GEOMETRY OPTIMIZATION CONVERGED AFTER 27 ITERATIONS ***

 final structure:
================
93
 xtb: 6.7.1 (edcfbbe)
C            8.20893119605552        0.16967379511031       -1.76976679631289
C            7.62779386328915       -0.18663979977380       -0.38818192126675
C            8.70736313263371       -0.03157838208653        0.69958896173313
C            6.49121646932623        0.76352680951737       -0.07432012150514
C            6.73578049575378        2.12899043920095       -0.02194205888596
C            5.74405406579943        3.04037278892017        0.29031003074095
C            4.46980197013072        2.58381855432381        0.58591350881646
C            4.19925907659677        1.23482435650039        0.54341296278082
C            5.19115076139204        0.30834651225569        0.19084782164016
N            4.88198375810179       -1.03744255622068        0.12544131475650
C            3.53727677134493       -1.43825438002825        0.35402384093456
C            3.18409000904383       -2.15788317022600        1.49744019686146
C            1.87027177600872       -2.48805351821804        1.73047764005810
C            0.86022894659555       -2.05842631300652        0.85171637987848
C           -0.53847142475651       -2.33907121592839        1.13623808846181
O           -0.88220079393641       -3.37619578192874        1.76679084802927
C           -1.51197609848141       -1.36256383857596        0.67475174138031
C           -2.83854177336507       -1.74206365388593        0.41864813593071
C           -3.76527984253490       -0.80169921296848        0.00253946478286
N           -5.07541723798024       -1.20822689488988       -0.28881276974548
C           -5.76660586651812       -0.93890679022219       -1.45052686139411
C           -5.35499208279706       -0.25528215109953       -2.58660600127798
C           -6.25232466080855       -0.14204896208597       -3.63174857820166
C           -7.52623333309950       -0.69995148337058       -3.55973693980913
C           -7.93365212226194       -1.40212186252873       -2.44057210667617
C           -7.05058202419457       -1.52962585203680       -1.37884239583146
C           -7.12400443556538       -2.18919558573515       -0.10319008693466
C           -8.11392249399632       -2.91755524419516        0.53998278042291
C           -7.85424895588798       -3.41202122220763        1.80464301514270
C           -6.63249556719508       -3.17633925887161        2.43061028616495
C           -5.63153277700258       -2.45197083024371        1.81132863889948
C           -5.87938948939312       -1.97124853609220        0.53266059745632
C           -3.40689289350590        0.53820562812137       -0.15911423583999
C           -2.10441972423065        0.93093662698251        0.15477318864595
N           -1.74553836949492        2.28719464132327        0.12100958775605
C           -0.56327715384133        2.79775863144239       -0.37626213297414
C            0.45622905576739        2.16154620918205       -1.07171406651806
C            1.54475147240438        2.91703072781882       -1.46308685727943
C            1.61845026662658        4.28102552807019       -1.19143796568229
C            0.59156749644852        4.92905707520499       -0.53222607039617
C           -0.50774497115577        4.18813602364223       -0.12187860275894
C           -1.72014041311677        4.52316650736082        0.57228637763133
C           -2.22378485835931        5.70820104372206        1.08920869235656
C           -3.43707747624363        5.67909575092206        1.74915221299817
C           -4.13367219455680        4.48417652915437        1.91128272526114
C           -3.65274523786620        3.29221964074695        1.40334689536055
C           -2.44932910773381        3.31892811192000        0.71175221978120
C           -1.17322713200918       -0.00188690545510        0.57505197578111
C            1.24045869345172       -1.40804886100599       -0.33554980708687
C            2.55531864944448       -1.10071339088665       -0.57991584950271
C            5.83062017564057       -1.98875435654641       -0.19232444939644
C            5.45071877573678       -3.33319168423674       -0.30921618868658
C            6.37877500356866       -4.30813850803582       -0.59716452185650
C            7.70767056183154       -3.96265080318183       -0.78393372049176
C            8.08120093497214       -2.63387177614444       -0.70373777070360
C            7.16711634297996       -1.62874907229027       -0.41985710104775
H            7.44165960293845        0.06002823127074       -2.53384364552300
H            8.56710750915320        1.19491996523920       -1.78726735731422
H            9.03885399154064       -0.48427343018956       -2.02132972070337
H            8.29173251566817       -0.28568949839006        1.67279557742040
H            9.55070040288044       -0.68774430154575        0.50426130817506
H            9.07259029601967        0.99070759057954        0.73912889792555
H            7.72869430928041        2.49833864248756       -0.22830125154532
H            5.96763379340487        4.09574203540089        0.31520493076432
H            3.68460065446009        3.27610708066716        0.84867841981328
H            3.20841178357338        0.88820596646133        0.78785111726803
H            3.95337045482368       -2.43925240414007        2.20215151785131
H            1.58510067864641       -3.04085562655426        2.61194170578863
H           -3.11200402707748       -2.78169842333617        0.50625723065535
H           -4.36269506491947        0.16293116413957       -2.65922942586449
H           -5.95707451775285        0.38706859348195       -4.52570937532508
H           -8.19932351631524       -0.58850348509637       -4.39667279502064
H           -8.91594519533504       -1.84715127916664       -2.39232261902482
H           -9.06602968255679       -3.08978612418229        0.06115778019174
H           -8.61019383792697       -3.98466254764836        2.32098439868755
H           -6.46325882226338       -3.56686806277747        3.42284646471543
H           -4.69154325987832       -2.26633473929077        2.30735761258256
H           -4.13231333258351        1.26020993893670       -0.49690016009074
H            0.40251560546903        1.11121212346298       -1.30631621572888
H            2.35721355859570        2.44048850406089       -1.99149480804103
H            2.48787675949853        4.83612131151212       -1.51112678522900
H            0.63903147522638        5.98987413629026       -0.33731687878233
H           -1.67281822098777        6.63014406028210        0.98008203288541
H           -3.84844460017786        6.59027641633610        2.15703878027264
H           -5.06940820932964        4.48722843902437        2.45032933651068
H           -4.19149960999138        2.37039604701728        1.55839583954594
H           -0.19713964635299        0.33319701454366        0.88975855639969
H            0.48743464397514       -1.17614798013500       -1.07414811493535
H            2.84472559782027       -0.59839632500332       -1.49211621301342
H            4.41541638681347       -3.60429844306383       -0.17828059424136
H            6.06480931347785       -5.33746421140906       -0.67872137016822
H            8.44493506234458       -4.71949334757359       -1.00296295126775
H            9.11636746198049       -2.37852897722377       -0.87137060401721

 projected vibrational frequencies (cm⁻¹)
eigval :       -0.00    -0.00    -0.00     0.00     0.00     0.00
eigval :        7.70    12.58    14.91    20.06    21.86    25.96
eigval :       34.44    38.78    46.41    54.20    63.97    73.64
eigval :       79.92    94.31    99.10   104.93   108.74   120.15
eigval :      126.13   128.78   136.88   141.19   146.68   164.21
eigval :      181.41   189.97   191.68   200.54   217.39   226.84
eigval :      236.38   241.58   259.23   260.53   270.76   273.29
eigval :      286.21   297.86   305.71   309.37   329.04   336.31
eigval :      342.49   347.39   373.54   377.50   383.82   390.05
eigval :      393.09   395.73   400.76   409.70   422.34   422.92
eigval :      434.66   436.53   438.32   452.79   468.37   480.87
eigval :      507.73   507.91   511.29   516.90   518.70   532.19
eigval :      537.34   538.65   539.93   544.50   546.03   554.01
eigval :      574.42   583.26   586.95   588.74   597.10   600.47
eigval :      617.39   618.40   627.87   631.83   653.35   656.05
eigval :      667.31   674.48   675.13   679.50   686.95   699.89
eigval :      709.51   709.78   725.36   748.80   754.72   767.80
eigval :      768.56   769.46   775.42   777.18   778.27   779.45
eigval :      785.15   804.14   818.53   826.05   846.15   851.91
eigval :      863.01   869.54   871.63   871.76   875.21   877.38
eigval :      879.10   884.00   896.26   898.23   901.98   903.14
eigval :      904.54   905.32   906.62   913.03   915.93   916.28
eigval :      918.17   919.50   921.43   922.94   923.14   923.55
eigval :      924.05   926.01   937.77   957.87   977.49   999.00
eigval :     1009.74  1011.59  1013.63  1030.14  1034.35  1068.88
eigval :     1070.44  1071.82  1073.85  1075.85  1084.78  1108.90
eigval :     1115.15  1115.37  1123.71  1126.83  1139.20  1144.49
eigval :     1148.01  1150.06  1153.18  1162.90  1164.79  1169.34
eigval :     1177.95  1180.03  1180.33  1180.92  1184.91  1185.64
eigval :     1195.54  1206.46  1222.39  1227.11  1232.05  1233.77
eigval :     1235.02  1242.23  1243.95  1249.93  1258.16  1259.78
eigval :     1292.81  1293.38  1294.76  1296.30  1297.79  1308.65
eigval :     1313.41  1324.77  1328.41  1329.74  1334.74  1343.74
eigval :     1350.73  1355.53  1359.76  1359.95  1366.83  1400.84
eigval :     1402.10  1408.26  1409.43  1418.69  1419.91  1421.71
eigval :     1424.35  1429.97  1433.35  1441.72  1446.83  1458.96
eigval :     1460.06  1467.72  1470.30  1481.17  1484.69  1486.34
eigval :     1487.85  1488.64  1489.35  1498.65  1500.17  1502.24
eigval :     1525.23  1557.78  1569.40  1570.69  1571.63  1574.33
eigval :     1580.92  1584.48  1586.12  1586.91  1590.82  1591.69
eigval :     1605.95  1609.75  3029.11  3031.01  3043.61  3046.17
eigval :     3052.15  3055.87  3069.80  3077.14  3077.33  3078.63
eigval :     3079.20  3080.09  3082.51  3083.96  3084.37  3084.74
eigval :     3084.98  3085.55  3087.08  3090.66  3090.90  3091.86
eigval :     3092.94  3094.27  3094.40  3097.58  3097.96  3099.20
eigval :     3100.50  3100.68  3101.33  3103.56  3109.20  3110.71
eigval :     3112.61  3116.01  3117.06

   temp. (K)  partition function   enthalpy   heat capacity  entropy
                                   cal/mol     cal/K/mol   cal/K/mol   J/K/mol
 298.15  VIB  0.258E+21            26530.011    169.435    163.795
         ROT  0.132E+09              888.752      2.981     40.132
         INT  0.340E+29            27418.763    172.416    203.927
         TR   0.187E+29             1481.254      4.968     45.581
         TOT                       28900.0174   177.3837   249.5082  1043.9424

       T/K    H(0)-H(T)+PV         H(T)/Eh          T*S/Eh         G(T)/Eh
   ------------------------------------------------------------------------
    298.15    0.460551E-01    0.766669E+00    0.118549E+00    0.648120E+00
   ------------------------------------------------------------------------

         :::::::::::::::::::::::::::::::::::::::::::::::::::::
         ::                  THERMODYNAMIC                  ::
         :::::::::::::::::::::::::::::::::::::::::::::::::::::
         :: total free energy        -142.428992883686 Eh   ::
         ::.................................................::
         :: total energy             -143.077112775340 Eh   ::
         :: zero point energy           0.720614192325 Eh   ::
         :: G(RRHO) w/o ZPVE           -0.072494300672 Eh   ::
         :: G(RRHO) contrib.            0.648119891654 Eh   ::
         :::::::::::::::::::::::::::::::::::::::::::::::::::::

           -------------------------------------------------
          | TOTAL ENERGY             -143.077112775340 Eh   |
          | TOTAL ENTHALPY           -142.310443473771 Eh   |
          | TOTAL FREE ENERGY        -142.428992883686 Eh   |
          | GRADIENT NORM               0.000148851018 Eh/α |
           -------------------------------------------------

 * finished run on 2025/09/08 at 06:16:37.715
