   * xtb version 6.7.1 (edcfbbe) compiled by 'albert@albert-system' on 2024-07-22

   ID    Z sym.   atoms
    1    6 C      1-9, 11-15, 17-19, 21-34, 36-56
    2    7 N      10, 20, 35
    3    8 O      16
    4    1 H      57-93

          program call               : xtb data2507/gas/DCPDAPM/DCPDAPM.xyz --gfn 2 --ohess vtight --parallel 40 --molden --ceasefiles --namespace data2507/gas/DCPDAPM/DCPDAPM_gas_S0_preOpt
          :  Hamiltonian                  GFN2-xTB          :
 * total energy  :  -143.1216424 Eh     change       -0.2160363E-08 Eh
 * total energy  :  -143.1410705 Eh     change       -0.1942807E-01 Eh
 * total energy  :  -143.1466367 Eh     change       -0.5566261E-02 Eh
 * total energy  :  -143.1477233 Eh     change       -0.1086596E-02 Eh
 * total energy  :  -143.1484613 Eh     change       -0.7379764E-03 Eh
 * total energy  :  -143.1487749 Eh     change       -0.3135858E-03 Eh
 * total energy  :  -143.1489515 Eh     change       -0.1766545E-03 Eh
 * total energy  :  -143.1490797 Eh     change       -0.1281619E-03 Eh
 * total energy  :  -143.1491757 Eh     change       -0.9597300E-04 Eh
 * total energy  :  -143.1492401 Eh     change       -0.6441239E-04 Eh
 * total energy  :  -143.1497704 Eh     change       -0.1271063E-05 Eh
 * total energy  :  -143.1497713 Eh     change       -0.9162324E-06 Eh
 * total energy  :  -143.1497721 Eh     change       -0.7854258E-06 Eh
 * total energy  :  -143.1497729 Eh     change       -0.7933693E-06 Eh
 * total energy  :  -143.1497738 Eh     change       -0.9239409E-06 Eh
 * total energy  :  -143.1497750 Eh     change       -0.1132166E-05 Eh
 * total energy  :  -143.1497764 Eh     change       -0.1376456E-05 Eh
 * total energy  :  -143.1497778 Eh     change       -0.1446813E-05 Eh
 * total energy  :  -143.1497778 Eh     change       -0.6086964E-08 Eh
   *** GEOMETRY OPTIMIZATION CONVERGED AFTER 94 ITERATIONS ***

 final structure:
================
93
 xtb: 6.7.1 (edcfbbe)
C            8.00780912615251       -0.14483636122127       -1.94469320621170
C            7.48761013364190       -0.28069808233274       -0.50195116623399
C            8.64149744340559       -0.09842522515806        0.50087865304951
C            6.45495652675915        0.80148640720422       -0.25167750602624
C            6.82480419721182        2.13503612621666       -0.36326996497397
C            5.93794500464551        3.16685819408200       -0.11929611386786
C            4.64358739483383        2.86799650378196        0.26509605794743
C            4.24974412063317        1.55184782734843        0.38330914927941
C            5.13671763268939        0.50633842121199        0.11018804809665
N            4.70988513655459       -0.80903959145592        0.23210711633152
C            3.36914895699903       -1.06632898656184        0.60785279604641
C            3.07989874190659       -1.53565532180371        1.88651815050024
C            1.77290106061553       -1.78681198596719        2.24706171912420
C            0.73155439797146       -1.55676122199422        1.34785708748841
C           -0.65242377665126       -1.86300018523133        1.78393290139992
O           -0.88350797207127       -2.71981130427675        2.61252908513742
C           -1.75113682274296       -1.07305701144717        1.16352294069661
C           -2.98400563891900       -1.69175075210279        0.99104957097362
C           -4.04668745412215       -0.98986705195956        0.43260420429358
N           -5.27851473245844       -1.61793405944054        0.23698725613480
C           -5.46685959458995       -2.85311820538520       -0.35736960170129
C           -4.53959518471863       -3.70773285965242       -0.93505087413634
C           -5.00578672346725       -4.88217890062992       -1.49493613540436
C           -6.36145296352792       -5.20110960652864       -1.49329296710513
C           -7.29160901703603       -4.34205150323823       -0.94303852845756
C           -6.84674386519149       -3.15613177086546       -0.37421395291865
C           -7.51696686821815       -2.05027818356468        0.25190617156969
C           -8.84830045623841       -1.78455233009987        0.54277450417683
C           -9.16074892924060       -0.60800508041981        1.19398059358649
C           -8.16335393940941        0.28866438360090        1.56895236735104
C           -6.83160404705635        0.04598155659401        1.28989650408868
C           -6.51435481907514       -1.12174441530313        0.61184003742958
C           -3.88019139883911        0.34613521772095        0.07934527675087
C           -2.65554522443816        0.97538104358935        0.28024922634005
N           -2.49549395788717        2.31996784506828       -0.06839918188524
C           -2.86377386482311        2.89540455661542       -1.27140110640071
C           -3.41098910374606        2.30923664763156       -2.40340103255575
C           -3.65918293911670        3.12036695971925       -3.49461349843638
C           -3.36388451971205        4.48120464876726       -3.47213793995833
C           -2.79405836822443        5.06476222849913       -2.35831974879637
C           -2.53561776406966        4.26982618547919       -1.24961431318339
C           -1.94579365704938        4.53040326620599        0.03412031519841
C           -1.45030939295763        5.67723207330548        0.64016159336370
C           -0.96154407870240        5.58596834386274        1.92806674741749
C           -0.97864904716560        4.37494815729080        2.61584620406748
C           -1.46771052497757        3.22059307318190        2.03396198545848
C           -1.93554224404241        3.30076040498399        0.73043180175311
C           -1.58551856281055        0.26252685110757        0.81327803926246
C            1.02742509465192       -1.10226102289579        0.06323370143408
C            2.33645839253286       -0.86075385327751       -0.30301309314024
C            5.56546204828018       -1.88055349551813        0.01219637391541
C            5.07551971858788       -3.18704283274549        0.09765313672841
C            5.90261771915439       -4.27067131691840       -0.10930397024007
C            7.23610363836694       -4.07047318367403       -0.41643020314593
C            7.71583674798676       -2.77918746256296       -0.53013625275886
C            6.90520457801183       -1.67018115686216       -0.32821581879807
H            7.18782266795536       -0.27982810586568       -2.64769762078622
H            8.44264260118735        0.83702364868986       -2.10970355770590
H            8.76691502133242       -0.89263148862953       -2.15628842495592
H            9.40920419072520       -0.85220978013300        0.34996948483228
H            9.10010290155491        0.88044423588466        0.39229632775012
H            8.26541436472666       -0.19022707498609        1.51818197799048
H            7.83667834578663        2.38224306061153       -0.64651043587392
H            6.25871097410028        4.19252012064617       -0.21836202261572
H            3.93764363823395        3.65684478671814        0.47823146138954
H            3.24197310949175        1.33004267156080        0.69938278473079
H            3.88715086149091       -1.70408956100685        2.58357432559729
H            1.53161254733402       -2.15448312398674        3.23311863899995
H           -3.10688085679529       -2.71578016068732        1.30808070355531
H           -3.48783563472660       -3.46524401415917       -0.95749116204644
H           -4.30233754480074       -5.56630643418701       -1.94595457204452
H           -6.68541021929701       -6.13032827642388       -1.93761102511570
H           -8.34426761259400       -4.58065731578580       -0.95571475889735
H           -9.61844114152339       -2.48943138118283        0.26851261405831
H          -10.19001703567894       -0.38062244657572        1.42790943518030
H           -8.43515769441122        1.19258018792839        2.09369563978983
H           -6.06707512500626        0.73915239928655        1.60688097409682
H           -4.70493430107065        0.89795995606261       -0.34437942825000
H           -3.62654819699634        1.25205989452088       -2.44275082928566
H           -4.08891338062866        2.68728274163060       -4.38569947800559
H           -3.57619650932364        5.08171091078912       -4.34394965703921
H           -2.54818309423233        6.11574369346811       -2.34598531957999
H           -1.45445018757895        6.61900740880232        0.11266028553214
H           -0.56945001195549        6.46503592994857        2.41725997232011
H           -0.60571889146944        4.33694050141054        3.62863872804225
H           -1.49519478758204        2.29323970657245        2.58624884200237
H           -0.63664725580775        0.75504598790801        0.95943042729785
H            0.23618293443885       -0.96637307904605       -0.65910199164378
H            2.57232682249528       -0.51243056726102       -1.29768932804186
H            4.03340469406525       -3.35438691918968        0.32226629242410
H            5.50090965142370       -5.27000143988461       -0.03370702612215
H            7.89504918584546       -4.90999464885674       -0.57674833287917
H            8.75468461109408       -2.63677462658460       -0.78660908475055

          :  Hamiltonian                  GFN2-xTB          :
         :: gradient norm              0.000063436279 Eh/a0 ::
         :: HOMO-LUMO gap              1.408772398791 eV    ::
         :: SCC energy              -145.768043898815 Eh    ::
         :: -> dispersion             -0.131468046354 Eh    ::
         :: repulsion energy           2.618266091547 Eh    ::

    * Orbital Energies and Occupations

         #    Occupation            Energy/Eh            Energy/eV
      -------------------------------------------------------------
         1        2.0000           -0.7127089             -19.3938
       ...           ...                  ...                  ...
       121        2.0000           -0.4101723             -11.1614
       122        2.0000           -0.4100370             -11.1577
       123        2.0000           -0.4091003             -11.1322
       124        2.0000           -0.4075209             -11.0892
       125        2.0000           -0.4049231             -11.0185
       126        2.0000           -0.3999404             -10.8829
       127        2.0000           -0.3991196             -10.8606
       128        2.0000           -0.3939609             -10.7202
       129        2.0000           -0.3834492             -10.4342
       130        2.0000           -0.3809121             -10.3651
       131        2.0000           -0.3696059             -10.0575
       132        2.0000           -0.3672577              -9.9936
       133        2.0000           -0.3490813              -9.4990 (HOMO)
       134                         -0.2973099              -8.0902 (LUMO)
       135                         -0.2547484              -6.9321
       136                         -0.2526910              -6.8761
       137                         -0.2472342              -6.7276
       138                         -0.2464500              -6.7062
       139                         -0.2438329              -6.6350
       140                         -0.2266958              -6.1687
       141                         -0.2256132              -6.1392
       142                         -0.2241091              -6.0983
       143                         -0.2206588              -6.0044
       144                         -0.2193812              -5.9697
       ...                                ...                  ...
       261                          0.7436254              20.2351
      -------------------------------------------------------------
                  HL-Gap            0.0517714 Eh            1.4088 eV

     #   Z          covCN         q      C6AA      α(0)
     1   6 C        3.761    -0.103    22.517     6.765
     2   6 C        3.909     0.021    20.156     6.381
     3   6 C        3.761    -0.103    22.517     6.764
     4   6 C        2.980    -0.013    28.339     8.732
     5   6 C        2.928    -0.036    28.892     8.815
     6   6 C        2.917    -0.044    29.091     8.845
     7   6 C        2.920    -0.033    28.815     8.803
     8   6 C        2.924    -0.059    29.461     8.901
     9   6 C        2.927     0.058    26.706     8.475
    10   7 N        2.754    -0.070    22.598     7.060
    11   6 C        2.928     0.078    26.265     8.405
    12   6 C        2.919    -0.036    28.904     8.816
    13   6 C        2.924    -0.017    28.444     8.746
    14   6 C        2.972    -0.014    28.367     8.736
    15   6 C        2.829     0.227    23.237     7.899
    16   8 O        0.858    -0.363    20.953     6.137
    17   6 C        2.971    -0.010    28.271     8.722
    18   6 C        2.927    -0.040    28.991     8.830
    19   6 C        2.910     0.069    26.446     8.432
    20   7 N        2.803    -0.042    22.052     6.975
    21   6 C        3.072     0.047    26.878     8.501
    22   6 C        2.910    -0.050    29.238     8.867
    23   6 C        2.924    -0.032    28.802     8.801
    24   6 C        2.920    -0.039    28.980     8.828
    25   6 C        2.913    -0.032    28.797     8.800
    26   6 C        3.067    -0.015    28.320     8.726
    27   6 C        3.068    -0.015    28.321     8.726
    28   6 C        2.913    -0.032    28.799     8.800
    29   6 C        2.920    -0.040    28.984     8.828
    30   6 C        2.924    -0.032    28.810     8.802
    31   6 C        2.910    -0.050    29.251     8.868
    32   6 C        3.071     0.047    26.881     8.501
    33   6 C        2.926    -0.057    29.406     8.893
    34   6 C        2.910     0.068    26.470     8.436
    35   7 N        2.803    -0.044    22.098     6.982
    36   6 C        3.071     0.046    26.893     8.503
    37   6 C        2.910    -0.051    29.267     8.871
    38   6 C        2.924    -0.033    28.813     8.803
    39   6 C        2.920    -0.040    28.985     8.829
    40   6 C        2.913    -0.032    28.799     8.800
    41   6 C        3.068    -0.016    28.331     8.728
    42   6 C        3.067    -0.016    28.333     8.728
    43   6 C        2.913    -0.032    28.801     8.800
    44   6 C        2.920    -0.040    28.986     8.829
    45   6 C        2.924    -0.033    28.812     8.803
    46   6 C        2.910    -0.051    29.265     8.871
    47   6 C        3.072     0.046    26.890     8.502
    48   6 C        2.923    -0.049    29.227     8.866
    49   6 C        2.920    -0.027    28.665     8.780
    50   6 C        2.920    -0.037    28.923     8.819
    51   6 C        2.928     0.058    26.710     8.476
    52   6 C        2.924    -0.059    29.459     8.901
    53   6 C        2.920    -0.032    28.810     8.802
    54   6 C        2.917    -0.044    29.088     8.844
    55   6 C        2.928    -0.036    28.894     8.815
    56   6 C        2.980    -0.013    28.341     8.732
    57   1 H        0.925     0.031     2.569     2.507
    58   1 H        0.925     0.040     2.455     2.450
    59   1 H        0.925     0.040     2.453     2.449
    60   1 H        0.925     0.040     2.452     2.449
    61   1 H        0.925     0.040     2.455     2.450
    62   1 H        0.925     0.032     2.565     2.504
    63   1 H        0.926     0.031     2.572     2.508
    64   1 H        0.926     0.027     2.626     2.534
    65   1 H        0.926     0.028     2.616     2.529
    66   1 H        0.926     0.021     2.717     2.578
    67   1 H        0.926     0.050     2.316     2.380
    68   1 H        0.926     0.063     2.169     2.303
    69   1 H        0.926     0.067     2.124     2.279
    70   1 H        0.926     0.027     2.635     2.539
    71   1 H        0.926     0.031     2.569     2.507
    72   1 H        0.926     0.030     2.583     2.513
    73   1 H        0.926     0.033     2.546     2.495
    74   1 H        0.926     0.033     2.545     2.495
    75   1 H        0.926     0.030     2.586     2.515
    76   1 H        0.926     0.031     2.574     2.509
    77   1 H        0.926     0.027     2.629     2.535
    78   1 H        0.926     0.056     2.241     2.341
    79   1 H        0.926     0.026     2.637     2.539
    80   1 H        0.926     0.031     2.572     2.508
    81   1 H        0.926     0.030     2.582     2.513
    82   1 H        0.926     0.033     2.544     2.494
    83   1 H        0.926     0.033     2.544     2.494
    84   1 H        0.926     0.030     2.582     2.513
    85   1 H        0.926     0.031     2.569     2.507
    86   1 H        0.926     0.027     2.633     2.537
    87   1 H        0.926     0.048     2.344     2.394
    88   1 H        0.926     0.042     2.416     2.431
    89   1 H        0.926     0.048     2.348     2.396
    90   1 H        0.926     0.024     2.669     2.555
    91   1 H        0.926     0.029     2.601     2.522
    92   1 H        0.926     0.027     2.624     2.533
    93   1 H        0.926     0.031     2.575     2.510

molecular dipole:
                 x           y           z       tot (Debye)
 q only:        0.460       0.600      -0.660
   full:        0.500       0.661      -0.704       2.764

 projected vibrational frequencies (cm⁻¹)
eigval :       -0.00    -0.00    -0.00    -0.00     0.00     0.00
eigval :        3.28     8.00    11.33    18.93    20.53    21.46
eigval :       24.92    31.82    40.13    52.23    55.78    62.39
eigval :       75.64    93.13    98.51    99.87   102.85   115.98
eigval :      125.37   128.09   139.23   142.11   147.49   155.89
eigval :      174.12   189.72   193.82   205.97   218.41   220.24
eigval :      235.45   246.70   255.66   259.19   271.98   272.12
eigval :      285.77   298.83   308.51   314.27   329.02   331.61
eigval :      344.19   348.22   371.31   375.91   382.27   391.03
eigval :      394.88   396.39   405.47   410.20   422.48   422.89
eigval :      433.18   437.94   439.09   451.59   478.64   485.48
eigval :      495.67   511.74   515.11   517.95   520.38   529.50
eigval :      541.04   541.15   543.51   547.44   558.18   570.03
eigval :      580.86   585.05   588.38   595.36   601.08   608.96
eigval :      620.92   631.43   639.80   653.26   670.04   673.36
eigval :      673.80   681.35   682.80   689.01   693.79   708.20
eigval :      708.84   731.01   738.22   750.50   755.15   769.53
eigval :      770.19   770.85   776.97   778.27   781.02   781.54
eigval :      788.05   820.20   829.91   846.35   866.14   867.88
eigval :      868.16   869.35   873.51   875.08   879.85   889.91
eigval :      893.37   898.48   899.44   899.97   903.95   905.48
eigval :      908.35   913.57   914.03   914.45   916.40   921.63
eigval :      921.76   923.08   923.71   923.80   925.79   927.39
eigval :      929.66   934.38   939.29   957.34   992.80  1005.97
eigval :     1011.81  1014.04  1014.49  1033.77  1046.06  1071.45
eigval :     1071.77  1074.82  1075.17  1077.22  1086.03  1114.40
eigval :     1120.02  1121.03  1124.25  1130.17  1141.29  1150.32
eigval :     1153.07  1155.10  1160.50  1166.14  1173.15  1179.32
eigval :     1181.11  1181.20  1182.00  1182.78  1187.46  1188.47
eigval :     1198.65  1210.52  1227.15  1235.52  1236.20  1236.64
eigval :     1237.62  1248.21  1250.23  1260.57  1264.95  1269.39
eigval :     1295.01  1296.33  1300.10  1302.49  1302.58  1313.25
eigval :     1320.01  1321.63  1326.08  1335.00  1335.10  1341.31
eigval :     1357.60  1358.09  1360.29  1362.49  1385.33  1401.75
eigval :     1403.18  1418.13  1421.06  1421.20  1427.70  1429.03
eigval :     1436.37  1442.91  1456.32  1461.73  1473.13  1476.30
eigval :     1477.81  1480.09  1487.58  1487.79  1489.86  1490.90
eigval :     1497.00  1500.53  1505.21  1557.13  1564.77  1568.38
eigval :     1575.97  1576.13  1576.75  1582.59  1589.29  1590.02
eigval :     1591.60  1593.26  1599.52  1599.84  1602.75  1614.22
eigval :     1614.99  1695.46  3026.63  3028.77  3040.11  3042.86
eigval :     3049.01  3053.15  3077.93  3077.94  3078.28  3078.30
eigval :     3078.85  3079.84  3082.39  3082.56  3082.67  3083.56
eigval :     3083.70  3083.83  3084.42  3089.32  3089.48  3089.66
eigval :     3091.04  3091.22  3094.05  3094.78  3095.16  3096.96
eigval :     3097.12  3098.54  3098.78  3099.79  3100.06  3101.25
eigval :     3101.86  3106.03  3107.38

   temp. (K)  partition function   enthalpy   heat capacity  entropy
                                   cal/mol     cal/K/mol   cal/K/mol   J/K/mol
 298.15  VIB  0.452E+22            26516.280    167.514    165.859
         ROT  0.142E+09              888.752      2.981     40.290
         INT  0.644E+30            27405.032    170.495    206.149
         TR   0.187E+29             1481.254      4.968     45.581
         TOT                       28886.2860   175.4635   251.7302  1053.2392

       T/K    H(0)-H(T)+PV         H(T)/Eh          T*S/Eh         G(T)/Eh
   ------------------------------------------------------------------------
    298.15    0.460332E-01    0.769578E+00    0.119605E+00    0.649973E+00
   ------------------------------------------------------------------------

         :::::::::::::::::::::::::::::::::::::::::::::::::::::
         ::                  THERMODYNAMIC                  ::
         :::::::::::::::::::::::::::::::::::::::::::::::::::::
         :: total free energy        -142.499804774658 Eh   ::
         ::.................................................::
         :: total energy             -143.149777807267 Eh   ::
         :: zero point energy           0.723544948060 Eh   ::
         :: G(RRHO) w/o ZPVE           -0.073571915451 Eh   ::
         :: G(RRHO) contrib.            0.649973032609 Eh   ::
         :::::::::::::::::::::::::::::::::::::::::::::::::::::

           -------------------------------------------------
          | TOTAL ENERGY             -143.149777807267 Eh   |
          | TOTAL ENTHALPY           -142.380199632389 Eh   |
          | TOTAL FREE ENERGY        -142.499804774658 Eh   |
          | GRADIENT NORM               0.000063435229 Eh/α |
          | HOMO-LUMO GAP               1.408772725274 eV   |
           -------------------------------------------------

 * finished run on 2025/09/08 at 05:59:27.218
