   * xtb version 6.7.1 (edcfbbe) compiled by 'albert@albert-system' on 2024-07-22

   ID    Z sym.   atoms
    1    6 C      1-9, 11-15, 17-19, 21-34, 36-56
    2    7 N      10, 20, 35
    3    8 O      16
    4    1 H      57-93

          program call               : xtb data2507/gas/DCPDAPM/DCPDAPM_gas_S0_crest.xyz --gfn 2 --ohess vtight --parallel 40 --molden --ceasefiles --namespace data2507/gas/DCPDAPM/DCPDAPM_gas_S0_finalOpt
          :  Hamiltonian                  GFN2-xTB          :
 * total energy  :  -143.1539436 Eh     change       -0.1996568E-08 Eh
 * total energy  :  -143.1539448 Eh     change       -0.1220104E-05 Eh
 * total energy  :  -143.1539474 Eh     change       -0.2625326E-05 Eh
 * total energy  :  -143.1539496 Eh     change       -0.2164298E-05 Eh
 * total energy  :  -143.1539515 Eh     change       -0.1951188E-05 Eh
 * total energy  :  -143.1539547 Eh     change       -0.3131585E-05 Eh
 * total energy  :  -143.1539599 Eh     change       -0.5274030E-05 Eh
 * total energy  :  -143.1539653 Eh     change       -0.5375828E-05 Eh
 * total energy  :  -143.1539686 Eh     change       -0.3313093E-05 Eh
 * total energy  :  -143.1539710 Eh     change       -0.2414686E-05 Eh
 * total energy  :  -143.1540361 Eh     change       -0.5195814E-06 Eh
 * total energy  :  -143.1540366 Eh     change       -0.5662786E-06 Eh
 * total energy  :  -143.1540374 Eh     change       -0.7228898E-06 Eh
 * total energy  :  -143.1540383 Eh     change       -0.9289811E-06 Eh
 * total energy  :  -143.1540394 Eh     change       -0.1106020E-05 Eh
 * total energy  :  -143.1540397 Eh     change       -0.3116895E-06 Eh
 * total energy  :  -143.1540406 Eh     change       -0.8411224E-06 Eh
 * total energy  :  -143.1540408 Eh     change       -0.2461796E-06 Eh
 * total energy  :  -143.1540409 Eh     change       -0.5059638E-07 Eh
   *** GEOMETRY OPTIMIZATION CONVERGED AFTER 47 ITERATIONS ***

 final structure:
================
93
 xtb: 6.7.1 (edcfbbe)
C            8.17180291405072        0.16274939404115       -1.82908424529713
C            7.60204709540290       -0.14917355846862       -0.43321129935594
C            8.68193692056509        0.06222336425291        0.64368970695364
C            6.45087969064001        0.79712313320404       -0.15138429289018
C            6.68430542208918        2.16556766973729       -0.12785733103738
C            5.68612027912572        3.07691955818826        0.16202862237891
C            4.41635753963511        2.61620727679082        0.45754857848493
C            4.15600538890423        1.26226845700297        0.43424008957833
C            5.15562808223192        0.33963045682933        0.11150084521086
N            4.86220847274480       -1.01799705584054        0.08792607080439
C            3.53096617353503       -1.43003165463124        0.33685908113763
C            3.19798055988845       -2.05174974207048        1.53687030360385
C            1.88811368922094       -2.40747245183916        1.78976138547654
C            0.89023055369337       -2.12294846799338        0.86106276523241
C           -0.52470828835558       -2.43313493171029        1.18699710818369
O           -0.85970710622667       -3.43615312450427        1.77923548845191
C           -1.50646700917960       -1.39948964199360        0.75674503897583
C           -2.79355702470082       -1.78961956829653        0.40806177380055
C           -3.72963230803206       -0.83542079773008        0.02067647977971
N           -5.02438067007287       -1.22214830131699       -0.33016600817816
C           -5.72331433941087       -0.80915711910051       -1.45047754885742
C           -5.31562418080051       -0.00133129597132       -2.50189118633360
C           -6.21548153040397        0.23026473111789       -3.52522812858633
C           -7.48895335659013       -0.33293883514591       -3.51573966142014
C           -7.89046441108555       -1.16031880916526       -2.48598114327101
C           -7.00374617547931       -1.40716799323476       -1.44664054055027
C           -7.07650643195289       -2.21393361432966       -0.25999358139119
C           -8.07189316785987       -3.01042828983313        0.29045544921115
C           -7.82017091653617       -3.64880664313033        1.48829445538123
C           -6.60130435790433       -3.48769728299708        2.14268162003152
C           -5.59582151758352       -2.70001408289094        1.61466572533450
C           -5.83418948417428       -2.07718933285835        0.39842209704229
C           -3.37087050628229        0.50955036914457       -0.01645566287806
C           -2.08782562948808        0.90298934429168        0.35169526263716
N           -1.73225452618908        2.25442812893869        0.33524682668408
C           -0.56762936648103        2.77560639943247       -0.20124989640770
C            0.45164799573014        2.13952666031005       -0.89494580292876
C            1.50200706785872        2.91050396829482       -1.35481770608791
C            1.54075357497659        4.28634591903116       -1.14200531584847
C            0.51647992807263        4.92990089201559       -0.47685463789944
C           -0.54976132196440        4.17482583802295       -0.00595287233598
C           -1.76138735463647        4.50690232696284        0.69073833431880
C           -2.28819991729026        5.69928927483643        1.16877873180067
C           -3.49586430173059        5.66785008706312        1.83671920454439
C           -4.16646407426026        4.46526673526431        2.04538635797394
C           -3.66196474974053        3.26620818372710        1.57846880562654
C           -2.46318417591918        3.29521046917275        0.88126852235593
C           -1.15689265969584       -0.05327188976193        0.74456021603514
C            1.23443763034439       -1.53962697709980       -0.35748969574696
C            2.54584453573812       -1.20185989803242       -0.62049126886560
C            5.83628343048593       -1.97409881117624       -0.16603308689529
C            5.48349558303015       -3.32572898243702       -0.21677644076650
C            6.43067110127777       -4.29818209795701       -0.45833172896189
C            7.74990954704714       -3.93825977772851       -0.66516092157823
C            8.09539213581169       -2.60005508607696       -0.64559871240454
C            7.16226617524221       -1.60039939638596       -0.40552947699249
H            9.01547420369483       -0.48250098993905       -2.05736324942481
H            7.40512028235793        0.00530042958705       -2.58556681860169
H            8.50671484163911        1.19452814690007       -1.88975678141683
H            8.27028085575300       -0.15482422545531        1.62767753706677
H            9.53166790503338       -0.59341022405158        0.47533474468189
H            9.03865627052582        1.08839137825054        0.64059657172737
H            7.67573697100294        2.53736812474092       -0.33792435711728
H            5.90260335540308        4.13420573660121        0.16986665713762
H            3.62349399038284        3.30522082938045        0.70692655802423
H            3.16300541069051        0.91701224577460        0.67710347881309
H            3.97129739855384       -2.24467895005246        2.26537484397567
H            1.61479100914272       -2.88168523710874        2.72029688353394
H           -3.04752728961997       -2.83814082961124        0.41706316311656
H           -4.32397275358234        0.42441298039749       -2.53444031474082
H           -5.92163044136460        0.85933270324416       -4.35246161294675
H           -8.16400360693111       -0.12539406534210       -4.33247019198595
H           -8.87039115066306       -1.61297563762028       -2.48680591564114
H           -9.02222510108124       -3.12064975856685       -0.20955586606108
H           -8.57906412908808       -4.27542149867593        1.93249002781488
H           -6.43746471550557       -3.98739572700008        3.08575937204793
H           -4.66242909145563       -2.57212022733681        2.14104136396270
H           -4.09328888362172        1.25006575235044       -0.32274789369860
H            0.42617215287866        1.07767941561789       -1.08265749869726
H            2.31216040383753        2.43676658985381       -1.88873376669637
H            2.38227452856606        4.85240089241120       -1.51237708858425
H            0.53667357346677        5.99866225567811       -0.32635482507512
H           -1.75787618742744        6.62805162829376        1.02263959129941
H           -3.92514371513549        6.58389460102319        2.21391653585948
H           -5.10005657979210        4.46775702709202        2.58807704770140
H           -4.18167226644095        2.33936665990559        1.76850162936881
H           -0.17897255577554        0.26068215883503        1.07485889454369
H            0.47224953581384       -1.37536236383843       -1.10557144855780
H            2.81931726068396       -0.74531030361028       -1.56019098045740
H            4.45420743657661       -3.61580352493559       -0.07200297471623
H            6.13386412404502       -5.33584369840567       -0.48851853578122
H            8.50172352871328       -4.68978365590913       -0.85142549545288
H            9.12522128684122       -2.33160885509358       -0.82637665947963

          :  Hamiltonian                  GFN2-xTB          :
         :: gradient norm              0.000167319004 Eh/a0 ::
         :: HOMO-LUMO gap              1.449294864468 eV    ::
         :: SCC energy              -145.773121930327 Eh    ::
         :: -> dispersion             -0.137489118260 Eh    ::
         :: repulsion energy           2.619081076674 Eh    ::

    * Orbital Energies and Occupations

         #    Occupation            Energy/Eh            Energy/eV
      -------------------------------------------------------------
         1        2.0000           -0.7142591             -19.4360
       ...           ...                  ...                  ...
       121        2.0000           -0.4106615             -11.1747
       122        2.0000           -0.4095602             -11.1447
       123        2.0000           -0.4086829             -11.1208
       124        2.0000           -0.4072997             -11.0832
       125        2.0000           -0.4047506             -11.0138
       126        2.0000           -0.3998537             -10.8806
       127        2.0000           -0.3987674             -10.8510
       128        2.0000           -0.3936712             -10.7123
       129        2.0000           -0.3833990             -10.4328
       130        2.0000           -0.3806712             -10.3586
       131        2.0000           -0.3698975             -10.0654
       132        2.0000           -0.3672129              -9.9924
       133        2.0000           -0.3489038              -9.4942 (HOMO)
       134                         -0.2956431              -8.0449 (LUMO)
       135                         -0.2552808              -6.9465
       136                         -0.2531809              -6.8894
       137                         -0.2474515              -6.7335
       138                         -0.2466654              -6.7121
       139                         -0.2435657              -6.6278
       140                         -0.2268239              -6.1722
       141                         -0.2253899              -6.1332
       142                         -0.2238940              -6.0925
       143                         -0.2204108              -5.9977
       144                         -0.2191430              -5.9632
       ...                                ...                  ...
       261                          0.7436324              20.2353
      -------------------------------------------------------------
                  HL-Gap            0.0532607 Eh            1.4493 eV

     #   Z          covCN         q      C6AA      α(0)
     1   6 C        3.761    -0.103    22.514     6.764
     2   6 C        3.909     0.021    20.155     6.381
     3   6 C        3.761    -0.103    22.517     6.764
     4   6 C        2.980    -0.013    28.342     8.733
     5   6 C        2.928    -0.036    28.898     8.816
     6   6 C        2.917    -0.044    29.085     8.844
     7   6 C        2.919    -0.032    28.801     8.801
     8   6 C        2.924    -0.058    29.441     8.898
     9   6 C        2.928     0.057    26.712     8.476
    10   7 N        2.754    -0.070    22.599     7.060
    11   6 C        2.928     0.077    26.290     8.409
    12   6 C        2.920    -0.037    28.909     8.817
    13   6 C        2.923    -0.018    28.467     8.750
    14   6 C        2.974    -0.014    28.352     8.734
    15   6 C        2.828     0.229    23.194     7.892
    16   8 O        0.857    -0.359    20.873     6.125
    17   6 C        2.972    -0.011    28.287     8.724
    18   6 C        2.926    -0.040    29.005     8.832
    19   6 C        2.910     0.069    26.446     8.433
    20   7 N        2.803    -0.043    22.068     6.977
    21   6 C        3.070     0.046    26.899     8.504
    22   6 C        2.910    -0.051    29.269     8.871
    23   6 C        2.924    -0.033    28.821     8.804
    24   6 C        2.920    -0.040    28.989     8.829
    25   6 C        2.913    -0.032    28.802     8.800
    26   6 C        3.067    -0.015    28.322     8.726
    27   6 C        3.067    -0.016    28.332     8.728
    28   6 C        2.913    -0.032    28.806     8.801
    29   6 C        2.920    -0.039    28.978     8.828
    30   6 C        2.924    -0.032    28.787     8.799
    31   6 C        2.910    -0.050    29.240     8.867
    32   6 C        3.071     0.046    26.886     8.502
    33   6 C        2.926    -0.057    29.404     8.893
    34   6 C        2.910     0.069    26.461     8.435
    35   7 N        2.802    -0.044    22.091     6.981
    36   6 C        3.071     0.046    26.900     8.504
    37   6 C        2.910    -0.052    29.289     8.874
    38   6 C        2.924    -0.031    28.764     8.795
    39   6 C        2.920    -0.039    28.967     8.826
    40   6 C        2.913    -0.032    28.806     8.801
    41   6 C        3.067    -0.016    28.331     8.728
    42   6 C        3.068    -0.016    28.330     8.728
    43   6 C        2.913    -0.032    28.801     8.800
    44   6 C        2.920    -0.039    28.980     8.828
    45   6 C        2.924    -0.032    28.805     8.801
    46   6 C        2.910    -0.051    29.256     8.869
    47   6 C        3.071     0.046    26.886     8.502
    48   6 C        2.925    -0.049    29.214     8.864
    49   6 C        2.921    -0.025    28.626     8.774
    50   6 C        2.921    -0.036    28.898     8.815
    51   6 C        2.927     0.058    26.710     8.475
    52   6 C        2.924    -0.059    29.463     8.901
    53   6 C        2.920    -0.033    28.811     8.802
    54   6 C        2.917    -0.044    29.090     8.845
    55   6 C        2.928    -0.036    28.894     8.815
    56   6 C        2.980    -0.014    28.346     8.733
    57   1 H        0.925     0.040     2.454     2.450
    58   1 H        0.925     0.031     2.571     2.508
    59   1 H        0.925     0.039     2.456     2.451
    60   1 H        0.925     0.031     2.566     2.505
    61   1 H        0.925     0.040     2.453     2.449
    62   1 H        0.925     0.039     2.456     2.451
    63   1 H        0.926     0.031     2.575     2.509
    64   1 H        0.926     0.027     2.632     2.537
    65   1 H        0.926     0.029     2.600     2.521
    66   1 H        0.926     0.020     2.733     2.585
    67   1 H        0.926     0.050     2.318     2.381
    68   1 H        0.926     0.058     2.225     2.332
    69   1 H        0.926     0.065     2.140     2.288
    70   1 H        0.926     0.026     2.650     2.546
    71   1 H        0.926     0.030     2.583     2.513
    72   1 H        0.926     0.030     2.590     2.517
    73   1 H        0.926     0.033     2.546     2.495
    74   1 H        0.926     0.032     2.555     2.499
    75   1 H        0.926     0.030     2.584     2.514
    76   1 H        0.926     0.033     2.539     2.492
    77   1 H        0.926     0.034     2.528     2.486
    78   1 H        0.926     0.057     2.234     2.337
    79   1 H        0.926     0.025     2.659     2.550
    80   1 H        0.926     0.030     2.580     2.512
    81   1 H        0.926     0.031     2.574     2.509
    82   1 H        0.926     0.033     2.546     2.495
    83   1 H        0.926     0.033     2.544     2.494
    84   1 H        0.926     0.031     2.579     2.511
    85   1 H        0.926     0.032     2.563     2.504
    86   1 H        0.926     0.028     2.615     2.529
    87   1 H        0.926     0.046     2.374     2.409
    88   1 H        0.926     0.039     2.469     2.457
    89   1 H        0.926     0.048     2.351     2.398
    90   1 H        0.926     0.025     2.663     2.552
    91   1 H        0.926     0.029     2.603     2.523
    92   1 H        0.926     0.027     2.627     2.535
    93   1 H        0.926     0.031     2.578     2.511

molecular dipole:
                 x           y           z       tot (Debye)
 q only:        0.444       0.759      -0.399
   full:        0.495       0.808      -0.437       2.653

 projected vibrational frequencies (cm⁻¹)
eigval :       -0.00    -0.00     0.00     0.00     0.00     0.00
eigval :        7.59    10.83    14.83    20.73    21.95    25.30
eigval :       34.19    43.74    47.12    53.80    59.21    68.06
eigval :       72.20    93.05    99.06   101.81   110.57   119.75
eigval :      124.70   128.23   139.79   141.78   148.79   161.94
eigval :      174.54   189.68   192.26   200.80   220.09   221.62
eigval :      235.32   247.64   250.96   254.88   272.10   273.76
eigval :      287.32   298.95   305.34   311.24   332.02   333.29
eigval :      345.30   347.56   374.04   375.94   382.26   390.61
eigval :      394.99   396.64   402.24   410.79   422.88   423.46
eigval :      437.17   438.32   446.83   452.30   478.76   483.64
eigval :      493.87   512.27   515.90   518.13   520.64   533.78
eigval :      541.08   541.77   544.20   548.00   548.80   561.71
eigval :      580.20   586.61   588.42   594.17   605.19   613.92
eigval :      620.98   634.34   639.17   653.95   669.37   673.82
eigval :      674.67   676.60   682.86   693.13   694.07   708.36
eigval :      708.97   730.32   739.62   750.45   755.26   769.33
eigval :      770.43   770.59   777.83   778.97   781.32   781.85
eigval :      788.61   819.26   829.18   844.16   866.43   867.43
eigval :      868.31   868.78   873.69   875.21   879.58   889.60
eigval :      892.24   897.69   897.98   900.14   903.97   905.90
eigval :      908.34   913.87   914.26   915.31   915.91   921.46
eigval :      923.10   923.62   923.93   924.99   925.86   928.26
eigval :      928.54   932.14   939.16   957.31   992.40  1005.54
eigval :     1011.98  1014.09  1014.44  1033.87  1044.38  1071.84
eigval :     1072.24  1075.02  1075.61  1077.24  1085.97  1114.63
eigval :     1120.32  1121.06  1125.23  1128.36  1141.28  1150.62
eigval :     1153.32  1155.88  1160.44  1166.23  1173.21  1179.46
eigval :     1180.12  1181.15  1181.57  1184.36  1187.53  1188.99
eigval :     1198.81  1211.09  1227.79  1234.40  1235.93  1236.07
eigval :     1237.74  1247.96  1250.01  1260.46  1262.59  1269.14
eigval :     1295.02  1296.23  1299.11  1301.76  1302.45  1311.70
eigval :     1319.94  1321.95  1325.76  1334.16  1334.84  1340.99
eigval :     1357.54  1358.10  1360.08  1362.32  1385.01  1400.70
eigval :     1403.16  1417.82  1420.84  1421.11  1427.55  1428.70
eigval :     1436.39  1442.90  1456.57  1461.00  1474.30  1476.20
eigval :     1477.45  1479.91  1487.50  1487.84  1489.89  1490.97
eigval :     1496.83  1500.53  1505.21  1557.77  1563.52  1567.03
eigval :     1575.96  1576.13  1576.71  1583.64  1589.21  1589.80
eigval :     1591.52  1593.19  1599.46  1599.78  1602.71  1614.05
eigval :     1614.79  1710.67  3026.31  3028.53  3040.19  3042.89
eigval :     3049.02  3052.90  3075.80  3077.30  3079.16  3079.71
eigval :     3079.76  3080.21  3080.74  3082.61  3083.95  3084.27
eigval :     3085.21  3085.56  3087.01  3089.53  3089.71  3091.20
eigval :     3093.07  3093.18  3094.65  3095.05  3095.94  3097.36
eigval :     3098.56  3099.56  3099.89  3101.23  3102.22  3102.56
eigval :     3105.03  3106.98  3108.20

   temp. (K)  partition function   enthalpy   heat capacity  entropy
                                   cal/mol     cal/K/mol   cal/K/mol   J/K/mol
 298.15  VIB  0.321E+21            26422.831    168.172    163.713
         ROT  0.131E+09              888.752      2.981     40.124
         INT  0.420E+29            27311.584    171.153    203.837
         TR   0.187E+29             1481.254      4.968     45.581
         TOT                       28792.8377   176.1210   249.4183  1043.5662

       T/K    H(0)-H(T)+PV         H(T)/Eh          T*S/Eh         G(T)/Eh
   ------------------------------------------------------------------------
    298.15    0.458843E-01    0.769670E+00    0.118507E+00    0.651164E+00
   ------------------------------------------------------------------------

         :::::::::::::::::::::::::::::::::::::::::::::::::::::
         ::                  THERMODYNAMIC                  ::
         :::::::::::::::::::::::::::::::::::::::::::::::::::::
         :: total free energy        -142.502877192909 Eh   ::
         ::.................................................::
         :: total energy             -143.154040853652 Eh   ::
         :: zero point energy           0.723786037225 Eh   ::
         :: G(RRHO) w/o ZPVE           -0.072622376482 Eh   ::
         :: G(RRHO) contrib.            0.651163660743 Eh   ::
         :::::::::::::::::::::::::::::::::::::::::::::::::::::

           -------------------------------------------------
          | TOTAL ENERGY             -143.154040853652 Eh   |
          | TOTAL ENTHALPY           -142.384370508820 Eh   |
          | TOTAL FREE ENERGY        -142.502877192909 Eh   |
          | GRADIENT NORM               0.000167309900 Eh/α |
          | HOMO-LUMO GAP               1.449297864239 eV   |
           -------------------------------------------------

 * finished run on 2025/09/08 at 06:06:21.230
