   * xtb version 6.7.1 (edcfbbe) compiled by 'albert@albert-system' on 2024-07-22

   ID    Z sym.   atoms
    1    6 C      1-9, 11-15, 17-19, 21-34, 36-56
    2    7 N      10, 20, 35
    3    8 O      16
    4    1 H      57-93

          program call               : xtb data2507/gas/DCPDAPM/DCPDAPM_gas_S0_finalOpt.xtbopt.xyz --gfn 2 --spinpol --tblite --uhf 2 --ohess vtight --parallel 40 --molden --ceasefiles --namespace data2507/gas/DCPDAPM/DCPDAPM_gas_T1_preOpt
 * total energy  :  -143.0713989 Eh     change        0.1298039E-07 Eh
 * total energy  :  -143.0753364 Eh     change       -0.3937460E-02 Eh
 * total energy  :  -143.0762667 Eh     change       -0.9303684E-03 Eh
 * total energy  :  -143.0764267 Eh     change       -0.1599492E-03 Eh
 * total energy  :  -143.0765369 Eh     change       -0.1102186E-03 Eh
 * total energy  :  -143.0766377 Eh     change       -0.1007730E-03 Eh
 * total energy  :  -143.0767354 Eh     change       -0.9775167E-04 Eh
 * total energy  :  -143.0768038 Eh     change       -0.6835331E-04 Eh
 * total energy  :  -143.0768376 Eh     change       -0.3380180E-04 Eh
 * total energy  :  -143.0768607 Eh     change       -0.2316770E-04 Eh
 * total energy  :  -143.0771089 Eh     change       -0.8956098E-06 Eh
 * total energy  :  -143.0771099 Eh     change       -0.9989483E-06 Eh
 * total energy  :  -143.0771109 Eh     change       -0.9820433E-06 Eh
 * total energy  :  -143.0771117 Eh     change       -0.7822681E-06 Eh
 * total energy  :  -143.0771123 Eh     change       -0.6233549E-06 Eh
 * total energy  :  -143.0771128 Eh     change       -0.4810769E-06 Eh
 * total energy  :  -143.0771131 Eh     change       -0.2909735E-06 Eh
 * total energy  :  -143.0771130 Eh     change        0.2344447E-07 Eh
 * total energy  :  -143.0771130 Eh     change       -0.1444556E-07 Eh
   *** GEOMETRY OPTIMIZATION CONVERGED AFTER 45 ITERATIONS ***

 final structure:
================
93
 xtb: 6.7.1 (edcfbbe)
C            8.23242039447629        0.23407368309769       -1.74600246302562
C            7.63852188505185       -0.15044967203249       -0.37746272691425
C            8.70796008477248       -0.01793361688178        0.72322045968234
C            6.49897827815259        0.79314245649826       -0.05468466062949
C            6.74268855956900        2.15740594172236        0.02550804868118
C            5.74834274005024        3.06258476561335        0.34727160685918
C            4.47209033567094        2.60020098837536        0.62468737598518
C            4.20246577989117        1.25214798289820        0.55512494298801
C            5.19714790119248        0.33262012571976        0.19227926506896
N            4.88917618489051       -1.01183151739436        0.09889418073200
C            3.54534927852575       -1.41984782589643        0.31929704501606
C            3.19566360572516       -2.16682703730011        1.44626697119571
C            1.88328361796164       -2.50645316878007        1.67313035981984
C            0.87068012611849       -2.05986522686396        0.80572992468211
C           -0.52622757849253       -2.35397534312274        1.08496025391781
O           -0.86351944699554       -3.40682374184717        1.69242690369785
C           -1.50598946777856       -1.37314081149267        0.64632742220467
C           -2.83055661278290       -1.75497916431552        0.38311385535060
C           -3.76344276684155       -0.81109167238412       -0.01053174111961
N           -5.07156908238122       -1.21807829423495       -0.31019030398229
C           -5.76498142079239       -0.92461532272689       -1.46469310947042
C           -5.35671189662857       -0.21380584869885       -2.58517610387414
C           -6.25544837318425       -0.07961450383640       -3.62660825991299
C           -7.52742935345068       -0.64325898414532       -3.56614597076734
C           -7.93141945589852       -1.37224097477956       -2.46299216318542
C           -7.04688092822055       -1.52112381926593       -1.40525029798358
C           -7.11669219722492       -2.20979618268777       -0.14484455791073
C           -8.10359704829332       -2.95558648038141        0.48282018481262
C           -7.84089741277419       -3.47772407629925        1.73567468428938
C           -6.61907346159327       -3.25262901075128        2.36539934358483
C           -5.62109659517907       -2.51127782864371        1.76157187059548
C           -5.87205617577369       -2.00229309327423        0.49452146525437
C           -3.41332749584387        0.53428797369654       -0.14179815357918
C           -2.11293532753033        0.92782712705702        0.17949261239176
N           -1.76344847372395        2.28690896251266        0.17615031176653
C           -0.58664131412602        2.81807657614421       -0.31241822345548
C            0.43804287614325        2.20532271385297       -1.02122538676890
C            1.51897000988312        2.97863452852843       -1.39867669093786
C            1.58007743279657        4.33770413671952       -1.10050532028853
C            0.54803406373763        4.96284843049052       -0.42741940820619
C           -0.54356809916098        4.20357155268882       -0.03030135243691
C           -1.75755959842872        4.51338091464791        0.67267991971347
C           -2.27080008560698        5.68291610031968        1.21489320563361
C           -3.48195168907198        5.62906302788366        1.87718900344159
C           -4.16699769241607        4.42463823251635        2.01671296265618
C           -3.67656737001164        3.24787554106809        1.48312942397770
C           -2.47536363556225        3.29993041875193        0.78911168995066
C           -1.17542706633707       -0.00861159592371        0.57711452783293
C            1.24733605995645       -1.38034867630315       -0.36624038854567
C            2.56102572199882       -1.06349490477921       -0.60511725292077
C            5.84003415455990       -1.95599680756992       -0.23351716294326
C            5.46080002745465       -3.29734476658818       -0.38368906550496
C            6.39099724805723       -4.26605746261063       -0.68537467295915
C            7.72160817821540       -3.91717534115085       -0.85269829957048
C            8.09460013232438       -2.59055479841611       -0.74072374311117
C            7.17823830177965       -1.59148631011492       -0.44312971331143
H            9.06354604599255       -0.41579410243959       -2.00406837883529
H            7.47177019728460        0.14193467740709       -2.51895503501763
H            8.59238822100069        1.25880551053310       -1.73866887062614
H            8.28386836074451       -0.29345932498003        1.68690067474691
H            9.55377915385059       -0.66891819431280        0.52134346790018
H            9.07158750281327        1.00364222417893        0.78819161005629
H            7.73710148317321        2.53073337561907       -0.16590818224366
H            5.97137933151517        4.11733727795759        0.39373691377788
H            3.68458692078206        3.28717209294450        0.89449128953097
H            3.20999771135117        0.90098313946781        0.78607430304492
H            3.96673564767751       -2.46227905229822        2.14321733912893
H            1.60095876954841       -3.08064708393435        2.54174270092399
H           -3.09763110498861       -2.79795756895659        0.44759667001047
H           -4.36584189813380        0.20920878473517       -2.64900803085777
H           -5.96284943252199        0.47083833131746       -4.50847956428825
H           -8.20174900322646       -0.51486797960013       -4.39965839927137
H           -8.91223489352447       -1.82142508274306       -2.42410265981430
H           -9.05578014681626       -3.11985983100196        0.00135432308712
H           -8.59452143019687       -4.06413701878471        2.23980898763318
H           -6.44745411640396       -3.66511096023915        3.34830512435887
H           -4.68102295017085       -2.33405155454009        2.26051516605349
H           -4.14361315383999        1.25938268877778       -0.46207424719880
H            0.39417488635061        1.15933349560676       -1.27640966902102
H            2.33528957246823        2.52017300626405       -1.93705285514702
H            2.44369343123156        4.90728846218572       -1.41035072575998
H            0.58566377268320        6.02002295067424       -0.21165631519822
H           -1.72869776891120        6.61199035442834        1.12320132843698
H           -3.90060602527371        6.52784528933186        2.30469991474312
H           -5.10107456376807        4.40790570705033        2.55836957675397
H           -4.20627739035263        2.31807607270872        1.62078879394522
H           -0.20091634075486        0.32501526509589        0.89814670812311
H            0.49271184954078       -1.13351542141862       -1.09834371115227
H            2.84762456136319       -0.53953989234196       -1.50598860919953
H            4.42433726231609       -3.57086586948966       -0.26775133582416
H            6.07742151114869       -5.29314589862772       -0.79262238146218
H            8.46064338141124       -4.66939507934892       -1.08148328604426
H            9.13121930954626       -2.33199150421031       -0.89385944592920

 projected vibrational frequencies (cm⁻¹)
eigval :       -0.00     0.00     0.00     0.00     0.00     0.00
eigval :        8.07    12.84    15.03    20.16    22.15    26.04
eigval :       34.53    38.10    46.51    54.37    64.08    73.77
eigval :       79.96    94.36    99.17   105.19   108.28   119.90
eigval :      125.85   128.70   136.84   141.12   146.74   164.44
eigval :      181.30   189.57   191.64   200.70   217.37   226.67
eigval :      236.61   241.81   259.32   260.42   270.76   273.30
eigval :      286.44   297.94   305.54   309.44   329.08   335.79
eigval :      342.43   347.33   373.45   377.30   384.10   390.39
eigval :      393.08   395.82   400.60   409.77   422.34   422.87
eigval :      434.68   436.68   438.29   452.75   467.77   480.92
eigval :      507.72   507.87   511.39   516.93   518.71   532.12
eigval :      537.33   538.65   539.93   544.48   545.95   554.02
eigval :      574.36   583.32   587.07   588.83   597.14   600.48
eigval :      617.39   618.44   627.81   631.81   653.29   656.12
eigval :      667.35   674.49   675.11   679.45   687.00   699.90
eigval :      709.46   709.81   725.45   748.85   754.77   767.76
eigval :      768.69   769.40   775.44   777.17   778.25   779.41
eigval :      784.93   804.34   818.66   826.14   846.23   851.93
eigval :      862.93   869.58   871.65   871.83   875.14   877.46
eigval :      879.04   884.02   896.30   898.28   902.03   903.12
eigval :      904.54   905.27   906.62   913.00   915.97   916.25
eigval :      918.08   919.65   921.40   922.92   923.12   923.53
eigval :      924.04   926.06   937.74   957.83   977.09   998.55
eigval :     1009.64  1011.56  1013.58  1030.21  1034.37  1068.74
eigval :     1070.33  1071.67  1073.80  1075.84  1084.74  1108.68
eigval :     1115.01  1115.81  1123.71  1126.74  1139.26  1144.79
eigval :     1148.04  1150.16  1153.17  1162.68  1165.01  1170.29
eigval :     1178.12  1180.09  1180.38  1181.02  1185.14  1185.74
eigval :     1196.80  1206.50  1222.45  1227.11  1232.28  1233.73
eigval :     1234.98  1242.79  1243.93  1250.54  1258.25  1260.46
eigval :     1293.22  1293.73  1294.97  1296.61  1298.57  1308.71
eigval :     1313.19  1325.14  1328.73  1329.80  1334.82  1343.85
eigval :     1350.84  1355.67  1359.74  1359.83  1367.61  1401.28
eigval :     1402.05  1408.63  1409.76  1419.29  1420.18  1422.37
eigval :     1424.65  1430.38  1433.80  1440.52  1446.30  1459.08
eigval :     1462.44  1468.86  1471.26  1480.11  1485.69  1487.40
eigval :     1487.73  1488.57  1489.59  1498.59  1500.20  1502.14
eigval :     1526.24  1557.78  1569.57  1570.84  1571.57  1574.69
eigval :     1580.97  1584.69  1586.17  1586.99  1590.98  1591.96
eigval :     1605.58  1609.94  3029.27  3031.16  3043.59  3046.26
eigval :     3052.43  3056.28  3069.94  3077.53  3077.65  3079.01
eigval :     3079.61  3080.45  3082.96  3084.36  3084.77  3084.91
eigval :     3085.16  3086.05  3087.51  3091.08  3091.26  3092.53
eigval :     3093.49  3094.82  3095.02  3097.90  3098.71  3099.58
eigval :     3100.61  3100.90  3101.58  3104.16  3109.85  3111.32
eigval :     3112.52  3116.34  3117.31

   temp. (K)  partition function   enthalpy   heat capacity  entropy
                                   cal/mol     cal/K/mol   cal/K/mol   J/K/mol
 298.15  VIB  0.238E+21            26528.999    169.427    163.712
         ROT  0.132E+09              888.752      2.981     40.136
         INT  0.313E+29            27417.751    172.408    203.848
         TR   0.187E+29             1481.254      4.968     45.581
         TOT                       28899.0051   177.3764   249.4287  1043.6098

       T/K    H(0)-H(T)+PV         H(T)/Eh          T*S/Eh         G(T)/Eh
   ------------------------------------------------------------------------
    298.15    0.460535E-01    0.766739E+00    0.118512E+00    0.648228E+00
   ------------------------------------------------------------------------

         :::::::::::::::::::::::::::::::::::::::::::::::::::::
         ::                  THERMODYNAMIC                  ::
         :::::::::::::::::::::::::::::::::::::::::::::::::::::
         :: total free energy        -142.428885265404 Eh   ::
         ::.................................................::
         :: total energy             -143.077113049234 Eh   ::
         :: zero point energy           0.720685927590 Eh   ::
         :: G(RRHO) w/o ZPVE           -0.072458143760 Eh   ::
         :: G(RRHO) contrib.            0.648227783830 Eh   ::
         :::::::::::::::::::::::::::::::::::::::::::::::::::::

           -------------------------------------------------
          | TOTAL ENERGY             -143.077113049234 Eh   |
          | TOTAL ENTHALPY           -142.310373625609 Eh   |
          | TOTAL FREE ENERGY        -142.428885265404 Eh   |
          | GRADIENT NORM               0.000102529678 Eh/α |
           -------------------------------------------------

 * finished run on 2025/09/08 at 06:06:38.103
