   * xtb version 6.7.1 (edcfbbe) compiled by 'albert@albert-system' on 2024-07-22

   ID    Z sym.   atoms
    1    6 C      1, 2, 4-9, 11-21, 23-37, 41-44
    2    7 N      3, 22, 38, 40
    3   16 S      10, 39
    4    1 H      45-72

          program call               : xtb data2507/toluene/PBTPA/PBTPA_toluene_T1_crest.xyz --gfn 2 --uhf 2 --gbsa toluene --ohess vtight --parallel 40 --molden --ceasefiles --namespace data2507/toluene/PBTPA/PBTPA_toluene_T1_finalOpt
      * Solvation model:               GBSA
        Solvent                        toluene
        Solvent mass                       9.2140E+01 g/mol
          :  Hamiltonian                  GFN2-xTB          :
 * total energy  :  -113.8641253 Eh     change       -0.3711989E-08 Eh
 * total energy  :  -113.8642135 Eh     change       -0.8811504E-04 Eh
 * total energy  :  -113.8642648 Eh     change       -0.5135405E-04 Eh
 * total energy  :  -113.8642784 Eh     change       -0.1358334E-04 Eh
 * total energy  :  -113.8642898 Eh     change       -0.1137418E-04 Eh
 * total energy  :  -113.8642974 Eh     change       -0.7606572E-05 Eh
 * total energy  :  -113.8643041 Eh     change       -0.6693740E-05 Eh
 * total energy  :  -113.8643083 Eh     change       -0.4201708E-05 Eh
 * total energy  :  -113.8643121 Eh     change       -0.3797060E-05 Eh
 * total energy  :  -113.8643169 Eh     change       -0.4882062E-05 Eh
 * total energy  :  -113.8643526 Eh     change       -0.2040899E-06 Eh
 * total energy  :  -113.8643528 Eh     change       -0.1712094E-06 Eh
 * total energy  :  -113.8643529 Eh     change       -0.1495466E-06 Eh
 * total energy  :  -113.8643531 Eh     change       -0.1979317E-06 Eh
 * total energy  :  -113.8643534 Eh     change       -0.2523467E-06 Eh
 * total energy  :  -113.8643537 Eh     change       -0.2893389E-06 Eh
 * total energy  :  -113.8643540 Eh     change       -0.3247858E-06 Eh
 * total energy  :  -113.8643544 Eh     change       -0.3854518E-06 Eh
 * total energy  :  -113.8643544 Eh     change       -0.3051241E-08 Eh
   *** GEOMETRY OPTIMIZATION CONVERGED AFTER 44 ITERATIONS ***

 final structure:
================
72
 xtb: 6.7.1 (edcfbbe)
C           -8.43031086355586       -2.67310434048711        0.77834929801672
C           -8.13755505104119       -1.89073106618289       -0.50426856893705
N           -7.53246845018199       -0.58607074287323       -0.28314812664148
C           -8.36793971848708        0.50993296046936       -0.10479954073455
C           -9.72699366725060        0.34095497157297        0.19896728924853
C          -10.57423639219413        1.41635264130082        0.37605277294596
C          -10.10186717786725        2.71460200956572        0.26688124799446
C           -8.76904288809192        2.91206159054530       -0.03234230670338
C           -7.91534328952263        1.83343138814550       -0.22151937212188
S           -6.26343917555038        2.23091412971015       -0.68882969686363
C           -5.44360794810867        0.70679994860627       -0.33917757253754
C           -4.07152491896245        0.76955940220280       -0.26965106111171
C           -3.27423398477136       -0.37330601209986       -0.06890019924647
C           -1.84480190440654       -0.31806547367065        0.00217215687396
C           -1.14351615748929        0.91974173573344       -0.01158090715861
C            0.21696328491419        1.01818867665472        0.00607293972129
C            1.07901099602947       -0.10604121377614        0.06533336381675
C            2.50876637719366        0.04135417634914        0.05216939627461
C            3.12608059542132        1.19049723588900       -0.48316329369175
C            4.49045305477087        1.33148616755650       -0.50724678454343
C            5.32493373321319        0.33231734515939        0.01199590381955
N            6.70662838131211        0.47186032958967       -0.01474276497967
C            7.29294828216104        1.73827175731524        0.11025416242490
C            8.41921250602507        2.07008988265637       -0.64384778166630
C            8.99759448910666        3.31808655695567       -0.51518705794410
C            8.46362744958761        4.25218836224155        0.35868709146613
C            7.34456866470246        3.92717279335352        1.10932986045631
C            6.76177296597053        2.68002727121391        0.99245681936879
C            7.52806103687303       -0.65307948049590       -0.16965788095816
C            8.72799708179838       -0.75078277687419        0.53577169439675
C            9.53765956230743       -1.85897118302707        0.37756728304943
C            9.16492961519601       -2.88378965500434       -0.47802361191172
C            7.97385603086319       -2.79074389726943       -1.18095282661854
C            7.15949093563766       -1.68445715503373       -1.03437900169187
C            4.72572848858294       -0.81477278911597        0.55099501033050
C            3.36173496050986       -0.95557093688653        0.56503270564102
C            0.42724489504752       -1.36269137339882        0.13676766748078
N            1.02941188393564       -2.54697665880796        0.20172249113363
S           -0.11194335135571       -3.72723617234746        0.21330697288576
N           -1.42358477039260       -2.73739521242790        0.12482027323010
C           -1.01603518511679       -1.47264425017908        0.09071880704949
C           -3.98853197144519       -1.58669065055120        0.05009614287664
C           -5.35536507647542       -1.64578361681086       -0.02138237395702
C           -6.15442181708173       -0.50321930707103       -0.21435735574276
H           -7.52019894857261       -2.86533657759337        1.33962885849998
H           -9.10936215980609       -2.13019529611691        1.42970073789906
H           -8.88432282114839       -3.62577658614257        0.51749229066916
H           -9.06058440087315       -1.73874554681759       -1.06862031115505
H           -7.46453703079135       -2.46626456182915       -1.14376422374969
H          -10.14218822360637       -0.64461081032900        0.31072617921124
H          -11.61256808128410        1.23455135770130        0.60783158957475
H          -10.75894140517955        3.55765279336259        0.40936491795537
H           -8.36536854825179        3.90780701613463       -0.13642903851655
H           -3.62389672589278        1.74123302780126       -0.40393319128667
H           -1.70930035752044        1.83760078951751       -0.02194957195222
H            0.65732677120120        2.00388943471934        0.01808611627901
H            2.52091175498036        1.96219104966876       -0.93379116060451
H            4.93219622738103        2.20997916950675       -0.95525067565722
H            8.82866998910771        1.34648452758611       -1.33326481864785
H            9.86629282216777        3.56536836165519       -1.10738048727909
H            8.91695434067282        5.22714226732941        0.45485545786943
H            6.92659888421685        4.64683640243803        1.79777677866617
H            5.89767675873243        2.42178107040543        1.58705030140403
H            9.01340953377921        0.04208142749467        1.21147076030736
H           10.46156166854963       -1.92639804044591        0.93279262212965
H            9.79811140160079       -3.75002102885501       -0.59624321755348
H            7.67881157972320       -3.58190178778168       -1.85436475134844
H            6.23666487155636       -1.60768985023349       -1.59063150131500
H            5.34923318682550       -1.58779269513023        0.97620710756812
H            2.91940197730831       -1.84156866832933        0.99053746339908
H           -3.42707765502821       -2.49311630584228        0.20587449152156
H           -5.81043976385789       -2.61368096816801        0.09409991117021

          :  Hamiltonian                  GFN2-xTB          :
         :: gradient norm              0.000037552021 Eh/a0 ::
         :: HOMO-LUMO gap              1.031715788766 eV    ::
         :: SCC energy              -115.802713644345 Eh    ::
         :: -> dispersion             -0.101249316656 Eh    ::
         :: -> Gsolv                  -0.056106480369 Eh    ::
         :: repulsion energy           1.938359263352 Eh    ::

    * Orbital Energies and Occupations

         #    Occupation            Energy/Eh            Energy/eV
      -------------------------------------------------------------
         1        2.0000           -0.7327087             -19.9380
       ...           ...                  ...                  ...
        95        2.0000           -0.4138193             -11.2606
        96        2.0000           -0.4123149             -11.2197
        97        2.0000           -0.4101212             -11.1600
        98        2.0000           -0.4077497             -11.0954
        99        2.0000           -0.4058446             -11.0436
       100        2.0000           -0.3937140             -10.7135
       101        2.0000           -0.3858403             -10.4992
       102        2.0000           -0.3825822             -10.4106
       103        2.0000           -0.3782143             -10.2917
       104        2.0000           -0.3700998             -10.0709
       105        1.9983           -0.3552103              -9.6658
       106        1.0017           -0.3431014              -9.3363
       107        1.0000           -0.2904352              -7.9031 (HOMO)
       108                         -0.2525201              -6.8714 (LUMO)
       109                         -0.2421002              -6.5879
       110                         -0.2375415              -6.4638
       111                         -0.2367478              -6.4422
       112                         -0.2318651              -6.3094
       113                         -0.2302773              -6.2662
       114                         -0.2273065              -6.1853
       115                         -0.2208731              -6.0103
       116                         -0.2203744              -5.9967
       117                         -0.2071122              -5.6358
       118                         -0.2049232              -5.5762
       ...                                ...                  ...
       214                          0.7232973              19.6819
      -------------------------------------------------------------
                  HL-Gap            0.0379151 Eh            1.0317 eV

     #   Z          covCN         q      C6AA      α(0)
     1   6 C        3.750    -0.116    22.778     6.806
     2   6 C        3.749    -0.008    20.783     6.502
     3   7 N        2.740    -0.031    21.848     6.942
     4   6 C        2.938     0.056    26.750     8.482
     5   6 C        2.926    -0.055    29.376     8.888
     6   6 C        2.919    -0.031    28.769     8.796
     7   6 C        2.917    -0.033    28.830     8.805
     8   6 C        2.993    -0.038    28.922     8.822
     9   6 C        2.972     0.034    27.225     8.559
    10  16 S        2.160    -0.113   145.785    20.322
    11   6 C        2.968     0.032    27.291     8.569
    12   6 C        3.003    -0.052    29.276     8.876
    13   6 C        2.966     0.010    27.780     8.645
    14   6 C        2.962    -0.030    28.749     8.795
    15   6 C        2.916    -0.053    29.321     8.879
    16   6 C        2.916    -0.052    29.292     8.875
    17   6 C        2.964    -0.030    28.734     8.793
    18   6 C        2.970     0.010    27.785     8.646
    19   6 C        2.922    -0.038    28.934     8.821
    20   6 C        2.917    -0.047    29.172     8.857
    21   6 C        2.923     0.061    26.623     8.461
    22   7 N        2.752    -0.051    22.220     7.001
    23   6 C        2.925     0.064    26.566     8.453
    24   6 C        2.922    -0.044    29.088     8.844
    25   6 C        2.919    -0.028    28.694     8.784
    26   6 C        2.919    -0.034    28.852     8.808
    27   6 C        2.919    -0.028    28.696     8.785
    28   6 C        2.921    -0.043    29.075     8.842
    29   6 C        2.926     0.064    26.566     8.453
    30   6 C        2.922    -0.044    29.090     8.845
    31   6 C        2.919    -0.028    28.696     8.784
    32   6 C        2.919    -0.034    28.844     8.807
    33   6 C        2.919    -0.027    28.687     8.783
    34   6 C        2.921    -0.043    29.058     8.840
    35   6 C        2.917    -0.045    29.130     8.850
    36   6 C        2.922    -0.035    28.882     8.813
    37   6 C        3.291     0.085    24.591     7.959
    38   7 N        1.848    -0.315    29.009     7.982
    39  16 S        2.565     0.121   136.226    19.644
    40   7 N        1.850    -0.313    28.964     7.976
    41   6 C        3.278     0.084    24.798     8.017
    42   6 C        2.923    -0.043    29.063     8.841
    43   6 C        2.922    -0.056    29.404     8.892
    44   6 C        2.939     0.053    26.806     8.491
    45   1 H        0.925     0.052     2.300     2.372
    46   1 H        0.925     0.054     2.273     2.358
    47   1 H        0.925     0.057     2.233     2.337
    48   1 H        0.924     0.064     2.150     2.293
    49   1 H        0.924     0.062     2.176     2.307
    50   1 H        0.926     0.062     2.177     2.307
    51   1 H        0.926     0.049     2.332     2.388
    52   1 H        0.926     0.047     2.354     2.399
    53   1 H        0.926     0.048     2.342     2.393
    54   1 H        0.926     0.039     2.463     2.454
    55   1 H        0.926     0.026     2.645     2.543
    56   1 H        0.926     0.027     2.635     2.539
    57   1 H        0.926     0.035     2.513     2.479
    58   1 H        0.926     0.037     2.495     2.470
    59   1 H        0.926     0.038     2.471     2.458
    60   1 H        0.926     0.041     2.442     2.443
    61   1 H        0.926     0.039     2.462     2.454
    62   1 H        0.926     0.039     2.457     2.451
    63   1 H        0.926     0.037     2.488     2.467
    64   1 H        0.926     0.039     2.468     2.456
    65   1 H        0.926     0.041     2.438     2.442
    66   1 H        0.926     0.039     2.460     2.453
    67   1 H        0.926     0.039     2.459     2.452
    68   1 H        0.926     0.037     2.491     2.468
    69   1 H        0.926     0.036     2.503     2.474
    70   1 H        0.926     0.053     2.280     2.361
    71   1 H        0.926     0.069     2.096     2.264
    72   1 H        0.926     0.057     2.230     2.335

molecular dipole:
                 x           y           z       tot (Debye)
 q only:       -1.749       0.857       0.002
   full:       -1.754       1.151      -0.007       5.332

 projected vibrational frequencies (cm⁻¹)
eigval :       -0.00    -0.00     0.00     0.00     0.00     0.00
eigval :        1.93    11.81    17.06    20.87    27.98    40.55
eigval :       46.08    50.21    60.67    61.83    71.00    83.63
eigval :       89.58    97.57   101.35   124.54   136.15   142.98
eigval :      148.74   166.23   177.12   190.31   192.93   207.89
eigval :      230.58   234.95   250.05   252.48   275.08   290.61
eigval :      303.76   315.13   325.16   351.77   359.94   375.40
eigval :      376.49   379.18   384.73   390.07   404.44   407.76
eigval :      421.75   422.81   432.80   438.29   457.49   471.43
eigval :      475.49   486.03   498.73   504.87   517.00   525.92
eigval :      532.29   565.12   576.93   582.99   584.03   586.89
eigval :      591.96   598.96   599.97   616.39   640.59   654.48
eigval :      658.26   659.29   663.70   666.13   678.53   688.43
eigval :      712.72   719.68   734.83   758.06   760.82   770.09
eigval :      770.89   779.94   802.08   811.00   814.22   822.25
eigval :      835.83   837.82   849.32   863.13   873.32   874.53
eigval :      882.03   888.86   893.29   895.99   901.73   906.35
eigval :      908.49   910.12   911.59   918.44   920.21   927.65
eigval :      928.58   929.21   932.16   941.36   956.24   978.60
eigval :      987.03  1003.07  1017.38  1033.30  1036.98  1076.10
eigval :     1080.03  1081.37  1104.22  1110.38  1120.14  1120.46
eigval :     1122.60  1137.22  1146.20  1153.71  1158.54  1176.44
eigval :     1179.27  1180.16  1181.67  1190.13  1192.14  1195.22
eigval :     1213.11  1233.40  1241.81  1249.05  1260.67  1268.03
eigval :     1274.65  1276.30  1278.81  1287.22  1289.27  1299.03
eigval :     1312.88  1314.17  1317.42  1323.11  1323.40  1328.81
eigval :     1329.64  1340.21  1359.76  1366.69  1405.67  1408.96
eigval :     1410.34  1418.15  1424.32  1431.19  1437.73  1439.91
eigval :     1443.30  1447.36  1462.36  1463.79  1469.72  1471.22
eigval :     1474.35  1478.20  1495.85  1503.58  1507.06  1532.03
eigval :     1548.93  1556.21  1571.11  1571.19  1575.05  1580.06
eigval :     1584.21  1590.63  2967.90  2983.77  3045.60  3049.12
eigval :     3059.87  3074.88  3076.38  3077.04  3077.58  3078.12
eigval :     3079.75  3080.37  3085.61  3086.53  3088.53  3089.03
eigval :     3089.42  3091.48  3093.07  3096.76  3096.84  3097.48
eigval :     3105.71  3107.62  3115.30  3115.94  3134.66  3140.76

   temp. (K)  partition function   enthalpy   heat capacity  entropy
                                   cal/mol     cal/K/mol   cal/K/mol   J/K/mol
 298.15  VIB  0.357E+18            21407.231    133.882    135.324
         ROT  0.105E+09              888.752      2.981     39.681
         INT  0.375E+26            22295.983    136.863    175.005
         TR   0.144E+29             1481.254      4.968     45.062
         TOT                       23777.2369   141.8309   220.0668   920.7594

       T/K    H(0)-H(T)+PV         H(T)/Eh          T*S/Eh         G(T)/Eh
   ------------------------------------------------------------------------
    298.15    0.378914E-01    0.582725E+00    0.104561E+00    0.478164E+00
   ------------------------------------------------------------------------

         :::::::::::::::::::::::::::::::::::::::::::::::::::::
         ::                  THERMODYNAMIC                  ::
         :::::::::::::::::::::::::::::::::::::::::::::::::::::
         :: total free energy        -113.386190074372 Eh   ::
         ::.................................................::
         :: total energy             -113.864354377896 Eh   ::
         :: zero point energy           0.544833687367 Eh   ::
         :: G(RRHO) w/o ZPVE           -0.066669383842 Eh   ::
         :: G(RRHO) contrib.            0.478164303524 Eh   ::
         :::::::::::::::::::::::::::::::::::::::::::::::::::::

           -------------------------------------------------
          | TOTAL ENERGY             -113.864354377896 Eh   |
          | TOTAL ENTHALPY           -113.281629251702 Eh   |
          | TOTAL FREE ENERGY        -113.386190074372 Eh   |
          | GRADIENT NORM               0.000037552088 Eh/α |
          | HOMO-LUMO GAP               1.031721821764 eV   |
           -------------------------------------------------

 * finished run on 2025/07/18 at 22:00:17.797
