   * xtb version 6.7.1 (edcfbbe) compiled by 'albert@albert-system' on 2024-07-22

   ID    Z sym.   atoms
    1    6 C      1, 2, 4-9, 11-21, 23-37, 41-44
    2    7 N      3, 22, 38, 40
    3   16 S      10, 39
    4    1 H      45-72

          program call               : xtb data2507/toluene/PBTPA/PBTPA.xyz --gfn 2 --gbsa toluene --ohess vtight --parallel 40 --molden --ceasefiles --namespace data2507/toluene/PBTPA/PBTPA_toluene_S0_preOpt
      * Solvation model:               GBSA
        Solvent                        toluene
        Solvent mass                       9.2140E+01 g/mol
          :  Hamiltonian                  GFN2-xTB          :
 * total energy  :  -113.8834857 Eh     change       -0.2066315E-08 Eh
 * total energy  :  -113.9010312 Eh     change       -0.1754545E-01 Eh
 * total energy  :  -113.9071397 Eh     change       -0.6108527E-02 Eh
 * total energy  :  -113.9094968 Eh     change       -0.2357046E-02 Eh
 * total energy  :  -113.9114213 Eh     change       -0.1924547E-02 Eh
 * total energy  :  -113.9123944 Eh     change       -0.9730960E-03 Eh
 * total energy  :  -113.9128689 Eh     change       -0.4744882E-03 Eh
 * total energy  :  -113.9131686 Eh     change       -0.2996567E-03 Eh
 * total energy  :  -113.9134138 Eh     change       -0.2452818E-03 Eh
 * total energy  :  -113.9136232 Eh     change       -0.2093821E-03 Eh
 * total energy  :  -113.9148962 Eh     change       -0.1690199E-05 Eh
 * total energy  :  -113.9148973 Eh     change       -0.1101093E-05 Eh
 * total energy  :  -113.9148982 Eh     change       -0.9231096E-06 Eh
 * total energy  :  -113.9148989 Eh     change       -0.7118672E-06 Eh
 * total energy  :  -113.9148996 Eh     change       -0.6625077E-06 Eh
 * total energy  :  -113.9149002 Eh     change       -0.6293788E-06 Eh
 * total energy  :  -113.9149005 Eh     change       -0.3109058E-06 Eh
 * total energy  :  -113.9149006 Eh     change       -0.1165161E-06 Eh
 * total energy  :  -113.9149006 Eh     change       -0.3583054E-08 Eh
   *** GEOMETRY OPTIMIZATION CONVERGED AFTER 79 ITERATIONS ***

 final structure:
================
72
 xtb: 6.7.1 (edcfbbe)
C           -8.65679680745323        2.47993281382719        0.69736131358242
C           -8.37888467350542        1.15128609636363        1.40747556448755
N           -7.73119211595151        0.14019706326501        0.58961623099175
C           -8.52455840766648       -0.69807948244864       -0.19456356830899
C           -9.86081085073115       -0.38796753673653       -0.46542460404760
C          -10.65794648925946       -1.20614505138777       -1.24709046892780
C          -10.14673352160708       -2.36051860317404       -1.80836595434681
C           -8.82928700551317       -2.69457387989292       -1.55143259275024
C           -8.04019393391192       -1.88996071494454       -0.74675229933354
S           -6.41467447110020       -2.49359829708545       -0.38473588841729
C           -5.61691189869411       -0.97263198716612        0.05035619677611
C           -4.23924228919698       -0.96109544447757       -0.03484221828759
C           -3.49507039450853        0.14971104595387        0.36249912362863
C           -2.03645461004772        0.14140362965419        0.29331632589949
C           -1.29520220610942       -1.00673310381949        0.49040071078005
C            0.10258397517067       -1.03363616669570        0.42960836112208
C            0.86675054944576        0.08286449579501        0.15393874681932
C            2.32599304636504        0.03587556925671        0.09805483568486
C            3.04640928255938       -0.81296531592003        0.94216518968238
C            4.42200086606627       -0.86430160777650        0.89720760448608
C            5.13374730222668       -0.07448502982085       -0.00934009031163
N            6.52570210825394       -0.12505947434570       -0.06044966026569
C            7.20083725720639       -1.32906167927821        0.18336461319451
C            8.40465396372723       -1.33168524799918        0.88785238008997
C            9.07420835309104       -2.51820624822038        1.11824492877151
C            8.55384391299395       -3.71813794740017        0.66057603594560
C            7.35625560188861       -3.72147004189004       -0.03659771773644
C            6.68415995376448       -2.53898948720301       -0.28009117265767
C            7.26200190094153        1.02991192039199       -0.36299914780566
C            8.39350378444745        0.95249145710867       -1.17453947013156
C            9.11932586303529        2.09154426872362       -1.46656939536050
C            8.72715927179775        3.32185505446657       -0.96399230039797
C            7.60264134816592        3.40408159687554       -0.15847066107405
C            6.87530179229061        2.26941201599300        0.14613605013264
C            4.41746884449764        0.77196000458539       -0.85943822645837
C            3.04290266728966        0.83073520636533       -0.79838803843873
C            0.14717325492371        1.28418720107683       -0.06615941621130
N            0.65528563587035        2.48719102419758       -0.33566821075845
S           -0.54806737665425        3.54449160702706       -0.48291105239540
N           -1.77496840421010        2.53991711790613       -0.20742700091949
C           -1.29337486972689        1.31720824128729        0.01923061488612
C           -4.20358036499715        1.24765662521912        0.84196499771311
C           -5.58186759953615        1.23795833865578        0.91183396488353
C           -6.34261917710676        0.13234874673670        0.51450993375046
H           -9.31011133197798        2.34432862834488       -0.15979688653928
H           -9.13617761905690        3.16220655375437        1.39531847315714
H           -7.73933320270698        2.93769286321886        0.33855071567372
H           -9.31632609333058        0.72631426498595        1.77623701087323
H           -7.74299771848615        1.32627254339446        2.27948833937157
H          -10.30680011188093        0.50389499769053       -0.06239877699716
H          -11.68653387091715       -0.92615936134540       -1.41899733622862
H          -10.75877057458767       -2.99785595285602       -2.42711690758099
H           -8.39920015362780       -3.59983408262820       -1.95357102419163
H           -3.74737960039703       -1.84038064848448       -0.42298373875371
H           -1.81030626267165       -1.92745615006812        0.72078813459680
H            0.59879037765687       -1.97951527027425        0.58864485998732
H            2.52184544194449       -1.41336475940404        1.67082510021494
H            4.95992979671360       -1.51074599883349        1.57526408499894
H            8.80803600536947       -0.39845137399848        1.25320598863258
H           10.00479443543266       -2.50578321657041        1.66690061918912
H            9.07787817965024       -4.64389515474827        0.84519659528001
H            6.94625660299006       -4.65133972038999       -0.40334749741666
H            5.75696036280655       -2.54299390664948       -0.83458056026163
H            8.69632729318720       -0.00441484583700       -1.57446602125531
H            9.99225678207828        2.01856464453344       -2.09883658363547
H            9.29434433245825        4.21028794568925       -1.19788012115633
H            7.29229272667831        4.35792551636124        0.24281576352540
H            6.00362409265325        2.33464952107584        0.78100128647740
H            4.95051541212316        1.38137434721216       -1.57434887021126
H            2.50813451884267        1.48769760272011       -1.46593274657789
H           -3.66747716856806        2.12462611808317        1.16701753142370
H           -6.06204472090360        2.12143610196731        1.29353899945691

          :  Hamiltonian                  GFN2-xTB          :
         :: gradient norm              0.000107676838 Eh/a0 ::
         :: HOMO-LUMO gap              0.972394412060 eV    ::
         :: SCC energy              -115.868081212969 Eh    ::
         :: -> dispersion             -0.101170828668 Eh    ::
         :: -> Gsolv                  -0.049533203073 Eh    ::
         :: repulsion energy           1.953180586831 Eh    ::

    * Orbital Energies and Occupations

         #    Occupation            Energy/Eh            Energy/eV
      -------------------------------------------------------------
         1        2.0000           -0.7604152             -20.6920
       ...           ...                  ...                  ...
        94        2.0000           -0.4112773             -11.1914
        95        2.0000           -0.4106112             -11.1733
        96        2.0000           -0.4101988             -11.1621
        97        2.0000           -0.4092150             -11.1353
        98        2.0000           -0.4086533             -11.1200
        99        2.0000           -0.4068563             -11.0711
       100        2.0000           -0.4056591             -11.0385
       101        2.0000           -0.4049919             -11.0204
       102        2.0000           -0.4046721             -11.0117
       103        2.0000           -0.3881293             -10.5615
       104        2.0000           -0.3773047             -10.2670
       105        2.0000           -0.3503452              -9.5334
       106        2.0000           -0.3409998              -9.2791 (HOMO)
       107                         -0.3052650              -8.3067 (LUMO)
       108                         -0.2521367              -6.8610
       109                         -0.2391053              -6.5064
       110                         -0.2318017              -6.3076
       111                         -0.2312239              -6.2919
       112                         -0.2279321              -6.2023
       113                         -0.2269178              -6.1747
       114                         -0.2225220              -6.0551
       115                         -0.2221226              -6.0443
       116                         -0.2184377              -5.9440
       117                         -0.2161562              -5.8819
       ...                                ...                  ...
       214                          0.7268948              19.7798
      -------------------------------------------------------------
                  HL-Gap            0.0357348 Eh            0.9724 eV

     #   Z          covCN         q      C6AA      α(0)
     1   6 C        3.750    -0.114    22.749     6.802
     2   6 C        3.747    -0.001    20.671     6.485
     3   7 N        2.740    -0.070    22.595     7.060
     4   6 C        2.938     0.058    26.694     8.474
     5   6 C        2.928    -0.061    29.523     8.911
     6   6 C        2.919    -0.036    28.890     8.814
     7   6 C        2.918    -0.040    29.005     8.832
     8   6 C        2.987    -0.041    29.011     8.835
     9   6 C        2.974     0.034    27.230     8.560
    10  16 S        2.143    -0.183   148.811    20.532
    11   6 C        2.972     0.033    27.249     8.563
    12   6 C        2.995    -0.048    29.178     8.861
    13   6 C        2.973     0.002    27.974     8.676
    14   6 C        2.964    -0.009    28.242     8.717
    15   6 C        2.924    -0.042    29.048     8.839
    16   6 C        2.924    -0.043    29.067     8.841
    17   6 C        2.964    -0.009    28.235     8.716
    18   6 C        2.974     0.003    27.963     8.674
    19   6 C        2.924    -0.035    28.883     8.813
    20   6 C        2.920    -0.049    29.229     8.866
    21   6 C        2.922     0.066    26.518     8.445
    22   7 N        2.752    -0.074    22.679     7.073
    23   6 C        2.924     0.065    26.545     8.449
    24   6 C        2.922    -0.047    29.170     8.857
    25   6 C        2.919    -0.030    28.743     8.792
    26   6 C        2.919    -0.038    28.956     8.824
    27   6 C        2.919    -0.030    28.747     8.792
    28   6 C        2.922    -0.047    29.175     8.858
    29   6 C        2.924     0.065    26.547     8.449
    30   6 C        2.922    -0.047    29.164     8.856
    31   6 C        2.919    -0.030    28.745     8.792
    32   6 C        2.919    -0.038    28.946     8.823
    33   6 C        2.919    -0.030    28.740     8.791
    34   6 C        2.922    -0.047    29.158     8.855
    35   6 C        2.920    -0.049    29.207     8.863
    36   6 C        2.923    -0.031    28.771     8.796
    37   6 C        3.342     0.076    23.866     7.720
    38   7 N        1.852    -0.280    28.104     7.857
    39  16 S        2.660     0.309   129.083    19.122
    40   7 N        1.852    -0.281    28.129     7.861
    41   6 C        3.341     0.076    23.886     7.727
    42   6 C        2.924    -0.037    28.929     8.820
    43   6 C        2.927    -0.062    29.539     8.913
    44   6 C        2.939     0.059    26.674     8.470
    45   1 H        0.925     0.048     2.341     2.393
    46   1 H        0.925     0.051     2.310     2.377
    47   1 H        0.925     0.048     2.344     2.394
    48   1 H        0.924     0.054     2.271     2.357
    49   1 H        0.924     0.053     2.283     2.363
    50   1 H        0.926     0.051     2.305     2.374
    51   1 H        0.926     0.039     2.464     2.455
    52   1 H        0.926     0.037     2.491     2.468
    53   1 H        0.926     0.038     2.470     2.458
    54   1 H        0.926     0.039     2.460     2.453
    55   1 H        0.926     0.042     2.417     2.431
    56   1 H        0.926     0.044     2.400     2.422
    57   1 H        0.926     0.036     2.503     2.474
    58   1 H        0.926     0.035     2.511     2.478
    59   1 H        0.926     0.033     2.547     2.496
    60   1 H        0.926     0.035     2.520     2.483
    61   1 H        0.926     0.033     2.541     2.493
    62   1 H        0.926     0.034     2.526     2.485
    63   1 H        0.926     0.032     2.552     2.498
    64   1 H        0.926     0.033     2.547     2.496
    65   1 H        0.926     0.035     2.517     2.481
    66   1 H        0.926     0.034     2.534     2.490
    67   1 H        0.926     0.035     2.516     2.480
    68   1 H        0.926     0.033     2.544     2.494
    69   1 H        0.926     0.035     2.510     2.478
    70   1 H        0.926     0.044     2.402     2.424
    71   1 H        0.926     0.048     2.341     2.393
    72   1 H        0.926     0.053     2.281     2.362

molecular dipole:
                 x           y           z       tot (Debye)
 q only:       -0.449       0.866       0.456
   full:       -0.509       0.715       0.505       2.575

 projected vibrational frequencies (cm⁻¹)
eigval :       -0.00    -0.00     0.00     0.00     0.00     0.00
eigval :       10.80    13.23    18.04    25.26    33.47    40.28
eigval :       45.72    53.01    55.55    69.27    76.53    80.52
eigval :       82.87    99.79   106.12   107.18   125.94   142.35
eigval :      165.64   173.78   180.42   189.70   197.71   203.78
eigval :      231.69   239.44   242.90   252.57   271.79   300.12
eigval :      307.58   319.00   334.13   355.41   376.32   378.05
eigval :      379.66   380.40   387.13   392.31   404.85   418.91
eigval :      427.37   431.81   436.27   450.32   463.29   473.34
eigval :      485.16   490.16   500.94   504.27   512.64   536.47
eigval :      544.99   574.36   578.92   584.51   585.87   592.97
eigval :      602.24   607.46   611.61   628.95   644.17   652.68
eigval :      660.68   662.81   666.65   669.82   686.68   692.87
eigval :      711.71   737.80   743.00   756.45   760.63   771.77
eigval :      780.27   811.23   816.46   822.11   838.71   860.93
eigval :      863.35   864.13   872.23   873.69   875.45   882.22
eigval :      891.21   892.25   893.10   903.13   904.46   905.44
eigval :      907.41   909.46   915.58   916.20   924.00   927.18
eigval :      927.98   930.24   930.56   948.79   957.89   983.73
eigval :      992.98  1004.07  1026.54  1030.29  1044.24  1074.42
eigval :     1081.30  1082.34  1108.51  1120.03  1122.53  1128.46
eigval :     1138.01  1140.72  1143.71  1148.59  1158.22  1176.76
eigval :     1179.72  1184.31  1184.66  1191.53  1193.89  1197.08
eigval :     1214.54  1236.01  1248.39  1254.84  1259.50  1270.45
eigval :     1274.73  1276.79  1279.88  1282.91  1305.26  1306.42
eigval :     1309.81  1312.64  1315.70  1323.55  1325.22  1327.01
eigval :     1331.35  1335.94  1348.67  1360.01  1366.82  1395.36
eigval :     1409.51  1414.82  1416.29  1434.20  1440.29  1459.03
eigval :     1468.87  1471.68  1473.18  1479.92  1484.39  1495.35
eigval :     1501.82  1505.95  1524.68  1529.53  1547.30  1559.78
eigval :     1561.77  1573.92  1575.68  1579.46  1587.70  1590.22
eigval :     1590.92  1598.57  2955.57  2970.26  3040.70  3047.98
eigval :     3060.17  3071.79  3072.95  3073.37  3074.65  3076.06
eigval :     3081.50  3081.86  3082.33  3082.84  3084.00  3084.84
eigval :     3085.19  3086.33  3088.23  3088.93  3093.63  3093.79
eigval :     3094.73  3099.93  3106.22  3109.95  3137.62  3139.18

   temp. (K)  partition function   enthalpy   heat capacity  entropy
                                   cal/mol     cal/K/mol   cal/K/mol   J/K/mol
 298.15  VIB  0.327E+17            21207.034    132.949    132.395
         ROT  0.103E+09              888.752      2.981     39.650
         INT  0.338E+25            22095.786    135.930    172.044
         TR   0.144E+29             1481.254      4.968     45.062
         TOT                       23577.0404   140.8982   217.1066   908.3740

       T/K    H(0)-H(T)+PV         H(T)/Eh          T*S/Eh         G(T)/Eh
   ------------------------------------------------------------------------
    298.15    0.375724E-01    0.584320E+00    0.103154E+00    0.481166E+00
   ------------------------------------------------------------------------

         :::::::::::::::::::::::::::::::::::::::::::::::::::::
         ::                  THERMODYNAMIC                  ::
         :::::::::::::::::::::::::::::::::::::::::::::::::::::
         :: total free energy        -113.433735105340 Eh   ::
         ::.................................................::
         :: total energy             -113.914900627113 Eh   ::
         :: zero point energy           0.546747460728 Eh   ::
         :: G(RRHO) w/o ZPVE           -0.065581938956 Eh   ::
         :: G(RRHO) contrib.            0.481165521772 Eh   ::
         :::::::::::::::::::::::::::::::::::::::::::::::::::::

           -------------------------------------------------
          | TOTAL ENERGY             -113.914900627113 Eh   |
          | TOTAL ENTHALPY           -113.330580760906 Eh   |
          | TOTAL FREE ENERGY        -113.433735105340 Eh   |
          | GRADIENT NORM               0.000107699049 Eh/α |
          | HOMO-LUMO GAP               0.972394247154 eV   |
           -------------------------------------------------

 * finished run on 2025/07/18 at 21:43:33.150
