   * xtb version 6.7.1 (edcfbbe) compiled by 'albert@albert-system' on 2024-07-22

   ID    Z sym.   atoms
    1    6 C      1, 2, 4-9, 11-21, 23-37, 41-44
    2    7 N      3, 22, 38, 40
    3   16 S      10, 39
    4    1 H      45-72

          program call               : xtb data2507/toluene/PBTPA/PBTPA_toluene_S0_crest.xyz --gfn 2 --gbsa toluene --ohess vtight --parallel 40 --molden --ceasefiles --namespace data2507/toluene/PBTPA/PBTPA_toluene_S0_finalOpt
      * Solvation model:               GBSA
        Solvent                        toluene
        Solvent mass                       9.2140E+01 g/mol
          :  Hamiltonian                  GFN2-xTB          :
 * total energy  :  -113.9149596 Eh     change       -0.2264187E-08 Eh
 * total energy  :  -113.9150113 Eh     change       -0.5168568E-04 Eh
 * total energy  :  -113.9150447 Eh     change       -0.3342837E-04 Eh
 * total energy  :  -113.9150575 Eh     change       -0.1276801E-04 Eh
 * total energy  :  -113.9150682 Eh     change       -0.1070873E-04 Eh
 * total energy  :  -113.9150759 Eh     change       -0.7719415E-05 Eh
 * total energy  :  -113.9150828 Eh     change       -0.6903003E-05 Eh
 * total energy  :  -113.9150891 Eh     change       -0.6277428E-05 Eh
 * total energy  :  -113.9150952 Eh     change       -0.6097413E-05 Eh
 * total energy  :  -113.9151020 Eh     change       -0.6743470E-05 Eh
 * total energy  :  -113.9151494 Eh     change       -0.7007159E-06 Eh
 * total energy  :  -113.9151501 Eh     change       -0.7165868E-06 Eh
 * total energy  :  -113.9151508 Eh     change       -0.7466033E-06 Eh
 * total energy  :  -113.9151516 Eh     change       -0.7505994E-06 Eh
 * total energy  :  -113.9151523 Eh     change       -0.7192274E-06 Eh
 * total energy  :  -113.9151530 Eh     change       -0.6662007E-06 Eh
 * total energy  :  -113.9151536 Eh     change       -0.6053456E-06 Eh
 * total energy  :  -113.9151541 Eh     change       -0.5463244E-06 Eh
 * total energy  :  -113.9151541 Eh     change       -0.5665299E-08 Eh
   *** GEOMETRY OPTIMIZATION CONVERGED AFTER 44 ITERATIONS ***

 final structure:
================
72
 xtb: 6.7.1 (edcfbbe)
C           -7.66790745491764       -2.81227806749185        1.03184197262601
C           -8.18245557663340       -1.91346618182469       -0.09158787550714
N           -7.54209065761419       -0.61185657507148       -0.05119552465215
C           -8.30887003048550        0.55017875942068       -0.12985533007605
C           -9.51951114538467        0.57983672711854       -0.82380614414835
C          -10.28530061622832        1.73121820780247       -0.87606452465492
C           -9.84985606682043        2.89342893458709       -0.26456619465543
C           -8.63248922512713        2.89641615933093        0.39423672007068
C           -7.87784418513237        1.73856779185015        0.46680848331897
S           -6.35552299848141        1.77565844708836        1.37967767424684
C           -5.46831136029864        0.54766228869682        0.45229803735036
C           -4.09457963780026        0.64954804200941        0.37910138185838
C           -3.33584042721963       -0.33544129450529       -0.25520702399049
C           -1.87801414832838       -0.24426701606291       -0.28363211731227
C           -1.21288260736768        0.96363414169652       -0.34927571608354
C            0.18265986302634        1.06805193636069       -0.33916012985415
C            1.02053136687317       -0.02682100795617       -0.25870327772752
C            2.47489672533606        0.10239547271087       -0.20907875233325
C            3.07237981507956        1.19531278614915        0.42442040157111
C            4.44226879700770        1.31696483752645        0.49687700936037
C            5.27303467229169        0.34989274278741       -0.07465236004109
N            6.65992835707276        0.46308586303756        0.00578113510011
C            7.45377056365411       -0.68475051131437        0.14330414609009
C            8.68145792713698       -0.77516630067144       -0.51209536429834
C            9.46593542471820       -1.90354679706461       -0.36732901242947
C            9.03887280128062       -2.95885038555486        0.42258053776871
C            7.81824770706723       -2.87506340762663        1.07317275770508
C            7.03071686242836       -1.74738889052393        0.94157447084556
C            7.26962896380100        1.72491424050959       -0.02897095190800
C            6.78789505927181        2.72045388252807       -0.87885042791750
C            7.39201409938836        3.96283189600051       -0.90773837467768
C            8.48670004328062        4.23015842974294       -0.10127413171395
C            8.97232069130745        3.24274842690725        0.74092174750112
C            8.36991274357749        1.99992646947250        0.78278538331109
C            4.68084348103754       -0.73808250997960       -0.72093140330555
C            3.31038941495165       -0.86036087063121       -0.77920425491848
C            0.38037440805607       -1.29090941983061       -0.20501226041746
N            0.96506590508582       -2.48496734503646       -0.10209413416860
S           -0.17048453102824       -3.62211418847641       -0.03245361904064
N           -1.46201818161438       -2.66687956481939       -0.12786307395657
C           -1.05881119217030       -1.39892530075158       -0.21953831268134
C           -4.01600913035657       -1.40238853673401       -0.83983734842479
C           -5.39198344740688       -1.48579338787865       -0.79006213204543
C           -6.15739408436825       -0.52248377989857       -0.12827112482794
H           -7.82250260395168       -2.32829360157596        1.99380287401457
H           -8.21349492546133       -3.75219085695708        1.02248263191479
H           -6.60761651614763       -3.02235957168659        0.92102697528679
H           -9.25054637415761       -1.75610381032898        0.06219650144057
H           -8.04553089104074       -2.40047304804135       -1.06494304981368
H           -9.86587235227190       -0.30383386979514       -1.33641525455888
H          -11.22472017587824        1.71703853762986       -1.40818339702776
H          -10.44510258688090        3.79248419997273       -0.30227199721374
H           -8.26491896977886        3.78960789394168        0.87678591137384
H           -3.61206069189508        1.47831579264811        0.87488389447335
H           -1.78966622827019        1.87303880456002       -0.43021968239148
H            0.61726085188789        2.05359856923412       -0.41577439536224
H            2.45398392823352        1.94014317285815        0.90319619454656
H            4.88231528902247        2.15784747040647        1.01293903990124
H            9.01286568052319        0.04323367779452       -1.13470620422456
H           10.41401031663367       -1.96172655566045       -0.88198814603883
H            9.65284941048799       -3.84035486445948        0.53068040473199
H            7.47933693694340       -3.69017759032775        1.69595394806315
H            6.08396979890033       -1.68033055289312        1.45769274123918
H            5.94082505848816        2.51051631512739       -1.51574088355753
H            7.01046793517461        4.72463783244373       -1.57203647719891
H            8.95806819585143        5.20111277154423       -0.12900789285970
H            9.82218705275490        3.44369378438987        1.37691447048560
H            8.74490507712883        1.23414552651628        1.44613214998973
H            5.30788588547041       -1.48781112259403       -1.18068714126218
H            2.87294093862726       -1.70654888609798       -1.28486542022323
H           -3.45672346999649       -2.17238674712359       -1.34657782094492
H           -5.87898958404138       -2.31532271453727       -1.27629191784105

          :  Hamiltonian                  GFN2-xTB          :
         :: gradient norm              0.000068293185 Eh/a0 ::
         :: HOMO-LUMO gap              1.008396452808 eV    ::
         :: SCC energy              -115.868527605788 Eh    ::
         :: -> dispersion             -0.101289668675 Eh    ::
         :: -> Gsolv                  -0.049404238887 Eh    ::
         :: repulsion energy           1.953373475187 Eh    ::

    * Orbital Energies and Occupations

         #    Occupation            Energy/Eh            Energy/eV
      -------------------------------------------------------------
         1        2.0000           -0.7607380             -20.7007
       ...           ...                  ...                  ...
        94        2.0000           -0.4129809             -11.2378
        95        2.0000           -0.4108640             -11.1802
        96        2.0000           -0.4102023             -11.1622
        97        2.0000           -0.4093951             -11.1402
        98        2.0000           -0.4086817             -11.1208
        99        2.0000           -0.4074819             -11.0881
       100        2.0000           -0.4057861             -11.0420
       101        2.0000           -0.4052383             -11.0271
       102        2.0000           -0.4047687             -11.0143
       103        2.0000           -0.3877354             -10.5508
       104        2.0000           -0.3766847             -10.2501
       105        2.0000           -0.3504754              -9.5369
       106        2.0000           -0.3427196              -9.3259 (HOMO)
       107                         -0.3056617              -8.3175 (LUMO)
       108                         -0.2517908              -6.8516
       109                         -0.2383879              -6.4869
       110                         -0.2323932              -6.3237
       111                         -0.2312452              -6.2925
       112                         -0.2295536              -6.2465
       113                         -0.2280063              -6.2044
       114                         -0.2226437              -6.0584
       115                         -0.2221871              -6.0460
       116                         -0.2209566              -6.0125
       117                         -0.2167140              -5.8971
       ...                                ...                  ...
       214                          0.7265297              19.7699
      -------------------------------------------------------------
                  HL-Gap            0.0370579 Eh            1.0084 eV

     #   Z          covCN         q      C6AA      α(0)
     1   6 C        3.752    -0.112    22.695     6.794
     2   6 C        3.744     0.004    20.586     6.472
     3   7 N        2.744    -0.080    22.800     7.092
     4   6 C        2.953     0.057    26.714     8.477
     5   6 C        2.925    -0.058    29.443     8.898
     6   6 C        2.918    -0.034    28.855     8.809
     7   6 C        2.919    -0.040    28.986     8.829
     8   6 C        2.968    -0.040    28.993     8.832
     9   6 C        2.973     0.035    27.221     8.558
    10  16 S        2.122    -0.183   148.797    20.531
    11   6 C        2.971     0.033    27.258     8.564
    12   6 C        2.976    -0.047    29.159     8.858
    13   6 C        2.974     0.003    27.963     8.674
    14   6 C        2.965    -0.009    28.242     8.717
    15   6 C        2.924    -0.042    29.042     8.838
    16   6 C        2.924    -0.043    29.067     8.841
    17   6 C        2.964    -0.008    28.226     8.714
    18   6 C        2.973     0.003    27.964     8.674
    19   6 C        2.924    -0.035    28.881     8.813
    20   6 C        2.920    -0.049    29.226     8.865
    21   6 C        2.923     0.066    26.515     8.444
    22   7 N        2.752    -0.074    22.679     7.073
    23   6 C        2.924     0.065    26.547     8.450
    24   6 C        2.922    -0.047    29.167     8.856
    25   6 C        2.919    -0.030    28.745     8.792
    26   6 C        2.919    -0.038    28.948     8.823
    27   6 C        2.919    -0.030    28.740     8.791
    28   6 C        2.922    -0.047    29.162     8.856
    29   6 C        2.924     0.065    26.545     8.449
    30   6 C        2.922    -0.047    29.172     8.857
    31   6 C        2.919    -0.030    28.746     8.792
    32   6 C        2.919    -0.038    28.953     8.824
    33   6 C        2.919    -0.030    28.742     8.792
    34   6 C        2.922    -0.047    29.167     8.856
    35   6 C        2.920    -0.048    29.201     8.862
    36   6 C        2.923    -0.031    28.774     8.797
    37   6 C        3.341     0.075    23.886     7.726
    38   7 N        1.852    -0.279    28.097     7.856
    39  16 S        2.660     0.311   129.025    19.118
    40   7 N        1.852    -0.281    28.134     7.861
    41   6 C        3.342     0.076    23.869     7.721
    42   6 C        2.923    -0.037    28.910     8.817
    43   6 C        2.924    -0.057    29.412     8.894
    44   6 C        2.954     0.062    26.610     8.461
    45   1 H        0.925     0.046     2.376     2.410
    46   1 H        0.925     0.052     2.293     2.368
    47   1 H        0.925     0.048     2.343     2.394
    48   1 H        0.924     0.057     2.236     2.338
    49   1 H        0.924     0.040     2.451     2.448
    50   1 H        0.926     0.042     2.424     2.434
    51   1 H        0.926     0.040     2.443     2.444
    52   1 H        0.926     0.039     2.460     2.453
    53   1 H        0.926     0.041     2.435     2.440
    54   1 H        0.926     0.040     2.442     2.444
    55   1 H        0.926     0.043     2.411     2.428
    56   1 H        0.926     0.044     2.393     2.419
    57   1 H        0.926     0.036     2.501     2.473
    58   1 H        0.926     0.035     2.513     2.479
    59   1 H        0.926     0.033     2.546     2.495
    60   1 H        0.926     0.035     2.518     2.481
    61   1 H        0.926     0.034     2.536     2.490
    62   1 H        0.926     0.035     2.518     2.482
    63   1 H        0.926     0.033     2.548     2.496
    64   1 H        0.926     0.033     2.550     2.497
    65   1 H        0.926     0.034     2.524     2.484
    66   1 H        0.926     0.033     2.540     2.492
    67   1 H        0.926     0.035     2.519     2.482
    68   1 H        0.926     0.033     2.547     2.496
    69   1 H        0.926     0.036     2.505     2.475
    70   1 H        0.926     0.045     2.388     2.416
    71   1 H        0.926     0.049     2.338     2.391
    72   1 H        0.926     0.048     2.350     2.397

molecular dipole:
                 x           y           z       tot (Debye)
 q only:       -0.262      -0.655      -0.449
   full:       -0.352      -0.463      -0.644       2.205

 projected vibrational frequencies (cm⁻¹)
eigval :       -0.00    -0.00     0.00     0.00     0.00     0.00
eigval :       10.70    15.66    17.66    26.02    29.66    38.50
eigval :       48.96    50.62    58.73    70.98    74.05    77.51
eigval :       88.15    98.85   104.40   122.58   135.66   153.59
eigval :      161.73   174.35   176.59   186.74   197.73   206.01
eigval :      228.18   231.36   241.74   259.84   281.81   286.58
eigval :      306.61   315.46   327.06   343.37   352.64   370.60
eigval :      378.43   379.61   385.75   387.75   399.59   404.03
eigval :      415.15   424.58   429.12   445.58   469.35   478.87
eigval :      485.44   493.30   501.12   503.29   511.84   535.79
eigval :      545.70   561.07   580.29   584.95   586.50   592.68
eigval :      601.94   603.26   616.23   629.46   640.40   656.36
eigval :      660.02   665.53   668.85   679.94   686.20   693.31
eigval :      710.07   737.35   743.18   756.74   760.85   773.30
eigval :      782.35   809.85   815.14   826.65   837.73   862.22
eigval :      863.62   865.16   866.91   874.43   875.60   882.19
eigval :      892.21   893.35   894.26   901.25   904.40   906.12
eigval :      906.87   909.93   914.22   916.53   923.09   925.91
eigval :      927.38   929.22   931.97   949.81   967.20   983.76
eigval :      992.57  1004.18  1026.17  1033.33  1042.14  1081.64
eigval :     1083.02  1086.51  1097.97  1120.12  1122.47  1126.91
eigval :     1132.70  1138.00  1141.56  1147.40  1156.13  1175.40
eigval :     1178.39  1179.47  1182.54  1184.95  1193.97  1196.90
eigval :     1214.16  1230.10  1242.26  1252.22  1259.00  1269.12
eigval :     1274.18  1276.87  1280.69  1289.40  1305.11  1306.59
eigval :     1309.77  1310.56  1315.47  1319.79  1323.85  1324.55
eigval :     1326.09  1334.38  1350.55  1361.47  1367.14  1398.76
eigval :     1408.26  1415.38  1418.29  1434.17  1440.23  1454.96
eigval :     1468.75  1471.81  1471.94  1478.94  1483.19  1484.70
eigval :     1496.85  1501.02  1524.08  1531.17  1546.97  1560.13
eigval :     1561.76  1571.55  1575.67  1579.44  1587.30  1589.68
eigval :     1590.80  1598.49  2903.78  2999.47  3037.89  3046.02
eigval :     3052.56  3072.60  3072.82  3073.63  3073.97  3076.54
eigval :     3081.51  3082.03  3082.40  3083.14  3083.73  3085.28
eigval :     3086.08  3086.36  3088.66  3090.71  3094.16  3094.22
eigval :     3094.86  3096.94  3103.18  3103.71  3107.14  3114.79

   temp. (K)  partition function   enthalpy   heat capacity  entropy
                                   cal/mol     cal/K/mol   cal/K/mol   J/K/mol
 298.15  VIB  0.288E+17            21248.743    133.186    132.322
         ROT  0.103E+09              888.752      2.981     39.649
         INT  0.297E+25            22137.495    136.167    171.971
         TR   0.144E+29             1481.254      4.968     45.062
         TOT                       23618.7490   141.1347   217.0326   908.0644

       T/K    H(0)-H(T)+PV         H(T)/Eh          T*S/Eh         G(T)/Eh
   ------------------------------------------------------------------------
    298.15    0.376389E-01    0.583836E+00    0.103119E+00    0.480717E+00
   ------------------------------------------------------------------------

         :::::::::::::::::::::::::::::::::::::::::::::::::::::
         ::                  THERMODYNAMIC                  ::
         :::::::::::::::::::::::::::::::::::::::::::::::::::::
         :: total free energy        -113.434436859632 Eh   ::
         ::.................................................::
         :: total energy             -113.915154133771 Eh   ::
         :: zero point energy           0.546197598305 Eh   ::
         :: G(RRHO) w/o ZPVE           -0.065480324165 Eh   ::
         :: G(RRHO) contrib.            0.480717274139 Eh   ::
         :::::::::::::::::::::::::::::::::::::::::::::::::::::

           -------------------------------------------------
          | TOTAL ENERGY             -113.915154133771 Eh   |
          | TOTAL ENTHALPY           -113.331317663180 Eh   |
          | TOTAL FREE ENERGY        -113.434436859632 Eh   |
          | GRADIENT NORM               0.000068297860 Eh/α |
          | HOMO-LUMO GAP               1.008396137225 eV   |
           -------------------------------------------------

 * finished run on 2025/07/18 at 21:51:39.044
