   * xtb version 6.7.1 (edcfbbe) compiled by 'albert@albert-system' on 2024-07-22

   ID    Z sym.   atoms
    1    6 C      1, 2, 4-9, 11-21, 23-37, 41-44
    2    7 N      3, 22, 38, 40
    3   16 S      10, 39
    4    1 H      45-72

          program call               : xtb data2507/toluene/PBTPA/PBTPA_toluene_S0_finalOpt.xtbopt.xyz --gfn 2 --uhf 2 --gbsa toluene --ohess vtight --parallel 40 --molden --ceasefiles --namespace data2507/toluene/PBTPA/PBTPA_toluene_T1_preOpt
      * Solvation model:               GBSA
        Solvent                        toluene
        Solvent mass                       9.2140E+01 g/mol
          :  Hamiltonian                  GFN2-xTB          :
 * total energy  :  -113.8564475 Eh     change       -0.4937817E-08 Eh
 * total energy  :  -113.8605924 Eh     change       -0.4144891E-02 Eh
 * total energy  :  -113.8623631 Eh     change       -0.1770740E-02 Eh
 * total energy  :  -113.8626776 Eh     change       -0.3144841E-03 Eh
 * total energy  :  -113.8629948 Eh     change       -0.3171687E-03 Eh
 * total energy  :  -113.8631841 Eh     change       -0.1892980E-03 Eh
 * total energy  :  -113.8633676 Eh     change       -0.1834658E-03 Eh
 * total energy  :  -113.8635331 Eh     change       -0.1655564E-03 Eh
 * total energy  :  -113.8636539 Eh     change       -0.1208258E-03 Eh
 * total energy  :  -113.8637285 Eh     change       -0.7459908E-04 Eh
 * total energy  :  -113.8639611 Eh     change       -0.1140221E-05 Eh
 * total energy  :  -113.8639621 Eh     change       -0.1003423E-05 Eh
 * total energy  :  -113.8639631 Eh     change       -0.1017407E-05 Eh
 * total energy  :  -113.8639640 Eh     change       -0.9233174E-06 Eh
 * total energy  :  -113.8639648 Eh     change       -0.8425307E-06 Eh
 * total energy  :  -113.8639656 Eh     change       -0.8019548E-06 Eh
 * total energy  :  -113.8639664 Eh     change       -0.7249104E-06 Eh
 * total energy  :  -113.8639670 Eh     change       -0.6502341E-06 Eh
 * total energy  :  -113.8639670 Eh     change       -0.1921296E-07 Eh
   *** GEOMETRY OPTIMIZATION CONVERGED AFTER 44 ITERATIONS ***

 final structure:
================
72
 xtb: 6.7.1 (edcfbbe)
C           -7.74751199438660       -2.70670178473415        1.07847218430873
C           -8.19635845170111       -1.87682801259259       -0.12383274900106
N           -7.54479864540502       -0.57807845941753       -0.13506055500614
C           -8.30976329164739        0.58178347962722       -0.18444368059007
C           -9.53787070034067        0.60623109277692       -0.85494631872674
C          -10.31312023685636        1.74839380327402       -0.88699126147740
C           -9.88076604229790        2.91030027685590       -0.26596448111888
C           -8.65270332205967        2.92144575614520        0.36693573349701
C           -7.87324598577074        1.77457049414998        0.40602584393135
S           -6.33212984621016        1.85058012350657        1.26798437428496
C           -5.46112392745138        0.56915451579912        0.41078291306087
C           -4.08804730777748        0.63508506021089        0.39004874434120
C           -3.30716254503541       -0.38525457293964       -0.18459605425884
C           -1.87543552349552       -0.31986678616778       -0.21386324019241
C           -1.18226202389682        0.90360907662780       -0.00960070996692
C            0.17815039547743        1.00188415471869        0.00321110879867
C            1.04442791746064       -0.10738732579816       -0.18717901488899
C            2.47230466243280        0.03804808665670       -0.13427222947397
C            3.08261671274937        1.14442609726470        0.49464217446580
C            4.44586262823061        1.28366214482144        0.54826886405788
C            5.28975967351729        0.32260799170161       -0.02543879248287
N            6.67036476721798        0.46077299092032        0.03214237416569
C            7.48883474781698       -0.67126318525517        0.14119006765360
C            8.70356630081101       -0.73162581166874       -0.54285291524219
C            9.51009020631058       -1.84730190040396       -0.42689269134665
C            9.11974593456107       -2.91616003416396        0.36465459800283
C            7.91336987752591       -2.86073821357251        1.04517210017705
C            7.10166371006360       -1.74786377894694        0.94035239527038
C            7.25569327059596        1.73268448356425       -0.01574248798484
C            6.73361820264022        2.71918406279655       -0.85350989591879
C            7.31452330222083        3.97188002398319       -0.89592941899282
C            8.42217784181988        4.25859673208913       -0.11339462173659
C            8.94670986834700        3.28040628545416        0.71695168924134
C            8.37071667823104        2.02586786692100        0.77047412797615
C            4.69985714220661       -0.78422434432438       -0.65232930020793
C            3.33671060269395       -0.91992095726898       -0.70307818512104
C            0.39478412925598       -1.34453853229717       -0.43581955361458
N            0.99175373007960       -2.51662725804792       -0.63221631059321
S           -0.15590490006969       -3.67672109752275       -0.83209909620231
N           -1.46522769092085       -2.69555921233881       -0.65856143038199
C           -1.04879245700773       -1.45012146335777       -0.45046274568055
C           -4.01725885730119       -1.47322360818938       -0.73751366801957
C           -5.38602493175257       -1.53290929833599       -0.71879403133915
C           -6.16448836110403       -0.51492172102311       -0.14349790382610
H           -7.95951891241825       -2.17109243628016        2.00142346925490
H           -8.29212733963242       -3.64696632681348        1.08953532702969
H           -6.68293708181601       -2.92120065115397        1.04210685663768
H           -9.26960617024185       -1.71080886864088       -0.03816850395479
H           -8.00517189641061       -2.41865271420100       -1.05600809492088
H           -9.87964294221644       -0.27232222674897       -1.37845754770691
H          -11.25748933485265        1.73201416227861       -1.40922484826974
H          -10.48677966376936        3.80227159512126       -0.28508410423129
H           -8.28354161046123        3.81485069746145        0.84687571472038
H           -3.61996704658499        1.47565251354514        0.87748067424855
H           -1.75796990972405        1.80947596363617        0.10215897275512
H            0.61551759280281        1.98109711383218        0.12407809078307
H            2.47325835633232        1.88340271251619        0.99125957321300
H            4.88028583843104        2.12899104444422        1.06246179398786
H            9.00285042082028        0.09596671745601       -1.16906437922495
H           10.44587333714943       -1.88543791326154       -0.96466923138028
H            9.75121499896478       -3.78740685996918        0.45066049392427
H            7.60438908595444       -3.68636406487912        1.66906601418671
H            6.16720265378359       -1.69999103444440        1.48011279164191
H            5.87876676794435        2.49076609827676       -1.47308785344276
H            6.90465073172498        4.72619009424074       -1.55131829500944
H            8.87405530513649        5.23820575796347       -0.15109846138839
H            9.80636458237711        3.49791104117365        1.33346184041767
H            8.77283815266251        1.26734573622951        1.42576404392913
H            5.33092113151739       -1.52713841232477       -1.11818950859603
H            2.90194963058740       -1.77173044646767       -1.20013693080209
H           -3.45399943655079       -2.27076250634272       -1.19353029918313
H           -5.87086997766140       -2.37510442700956       -1.18485078005863

          :  Hamiltonian                  GFN2-xTB          :
         :: gradient norm              0.000066312112 Eh/a0 ::
         :: HOMO-LUMO gap              1.079151832386 eV    ::
         :: SCC energy              -115.803161395256 Eh    ::
         :: -> dispersion             -0.101324719098 Eh    ::
         :: -> Gsolv                  -0.055857470252 Eh    ::
         :: repulsion energy           1.939194358980 Eh    ::

    * Orbital Energies and Occupations

         #    Occupation            Energy/Eh            Energy/eV
      -------------------------------------------------------------
         1        2.0000           -0.7303966             -19.8751
       ...           ...                  ...                  ...
        95        2.0000           -0.4139634             -11.2645
        96        2.0000           -0.4128441             -11.2341
        97        2.0000           -0.4106681             -11.1748
        98        2.0000           -0.4084260             -11.1138
        99        2.0000           -0.4065496             -11.0628
       100        2.0000           -0.3925250             -10.6811
       101        2.0000           -0.3861795             -10.5085
       102        2.0000           -0.3830610             -10.4236
       103        2.0000           -0.3789174             -10.3109
       104        2.0000           -0.3706446             -10.0858
       105        1.9981           -0.3559179              -9.6850
       106        1.0019           -0.3440290              -9.3615
       107        1.0000           -0.2905166              -7.9054 (HOMO)
       108                         -0.2508589              -6.8262 (LUMO)
       109                         -0.2430249              -6.6130
       110                         -0.2385091              -6.4902
       111                         -0.2373319              -6.4581
       112                         -0.2323638              -6.3229
       113                         -0.2320212              -6.3136
       114                         -0.2278411              -6.1999
       115                         -0.2245257              -6.1097
       116                         -0.2212891              -6.0216
       117                         -0.2073698              -5.6428
       118                         -0.2048131              -5.5732
       ...                                ...                  ...
       214                          0.7229373              19.6721
      -------------------------------------------------------------
                  HL-Gap            0.0396577 Eh            1.0791 eV

     #   Z          covCN         q      C6AA      α(0)
     1   6 C        3.752    -0.113    22.726     6.798
     2   6 C        3.746    -0.004    20.715     6.492
     3   7 N        2.743    -0.042    22.044     6.973
     4   6 C        2.949     0.055    26.765     8.485
     5   6 C        2.925    -0.052    29.295     8.876
     6   6 C        2.918    -0.030    28.748     8.792
     7   6 C        2.919    -0.033    28.822     8.804
     8   6 C        2.974    -0.037    28.909     8.820
     9   6 C        2.971     0.035    27.212     8.557
    10  16 S        2.134    -0.121   146.121    20.345
    11   6 C        2.967     0.032    27.291     8.569
    12   6 C        2.983    -0.051    29.249     8.871
    13   6 C        2.969     0.011    27.764     8.643
    14   6 C        2.964    -0.030    28.737     8.793
    15   6 C        2.916    -0.053    29.310     8.878
    16   6 C        2.916    -0.052    29.291     8.875
    17   6 C        2.964    -0.029    28.728     8.792
    18   6 C        2.969     0.011    27.773     8.644
    19   6 C        2.922    -0.038    28.935     8.821
    20   6 C        2.917    -0.047    29.159     8.855
    21   6 C        2.924     0.061    26.628     8.462
    22   7 N        2.752    -0.049    22.181     6.995
    23   6 C        2.926     0.064    26.568     8.453
    24   6 C        2.921    -0.044    29.084     8.844
    25   6 C        2.919    -0.028    28.691     8.784
    26   6 C        2.919    -0.034    28.835     8.806
    27   6 C        2.919    -0.027    28.682     8.782
    28   6 C        2.921    -0.042    29.053     8.839
    29   6 C        2.926     0.064    26.569     8.453
    30   6 C        2.921    -0.043    29.068     8.841
    31   6 C        2.919    -0.028    28.691     8.784
    32   6 C        2.919    -0.034    28.843     8.807
    33   6 C        2.919    -0.028    28.689     8.783
    34   6 C        2.921    -0.044    29.082     8.844
    35   6 C        2.917    -0.045    29.116     8.848
    36   6 C        2.922    -0.037    28.909     8.817
    37   6 C        3.285     0.085    24.685     7.985
    38   7 N        1.849    -0.314    28.988     7.980
    39  16 S        2.566     0.120   136.263    19.647
    40   7 N        1.849    -0.314    28.981     7.979
    41   6 C        3.284     0.085    24.698     7.989
    42   6 C        2.921    -0.039    28.973     8.827
    43   6 C        2.920    -0.052    29.287     8.875
    44   6 C        2.951     0.057    26.730     8.480
    45   1 H        0.925     0.049     2.335     2.390
    46   1 H        0.925     0.058     2.224     2.332
    47   1 H        0.925     0.051     2.310     2.377
    48   1 H        0.925     0.067     2.115     2.274
    49   1 H        0.924     0.054     2.268     2.355
    50   1 H        0.926     0.052     2.290     2.367
    51   1 H        0.926     0.050     2.319     2.381
    52   1 H        0.926     0.049     2.335     2.390
    53   1 H        0.926     0.050     2.320     2.382
    54   1 H        0.926     0.041     2.438     2.442
    55   1 H        0.926     0.026     2.638     2.540
    56   1 H        0.926     0.028     2.618     2.530
    57   1 H        0.926     0.036     2.503     2.474
    58   1 H        0.926     0.037     2.489     2.467
    59   1 H        0.926     0.039     2.460     2.453
    60   1 H        0.926     0.041     2.433     2.439
    61   1 H        0.926     0.040     2.454     2.450
    62   1 H        0.926     0.040     2.453     2.449
    63   1 H        0.926     0.037     2.487     2.466
    64   1 H        0.926     0.037     2.484     2.465
    65   1 H        0.926     0.040     2.452     2.449
    66   1 H        0.926     0.039     2.457     2.451
    67   1 H        0.926     0.041     2.435     2.440
    68   1 H        0.926     0.039     2.463     2.454
    69   1 H        0.926     0.036     2.498     2.472
    70   1 H        0.926     0.056     2.249     2.345
    71   1 H        0.926     0.064     2.151     2.293
    72   1 H        0.926     0.053     2.284     2.363

molecular dipole:
                 x           y           z       tot (Debye)
 q only:       -1.264       1.068       0.047
   full:       -1.291       1.349      -0.018       4.747

 projected vibrational frequencies (cm⁻¹)
eigval :       -0.00    -0.00    -0.00     0.00     0.00     0.00
eigval :        7.77    15.04    19.68    23.73    26.67    40.37
eigval :       48.10    51.03    60.27    68.18    73.32    76.87
eigval :       93.36   100.57   104.33   122.57   136.95   144.31
eigval :      151.97   167.03   176.09   192.25   199.99   206.44
eigval :      226.40   231.50   242.22   259.20   277.51   289.45
eigval :      302.82   312.32   333.39   337.55   347.37   361.44
eigval :      377.42   378.59   383.48   386.25   401.20   404.47
eigval :      406.82   410.95   424.83   430.26   444.84   472.74
eigval :      479.37   489.57   503.72   506.06   506.46   526.39
eigval :      537.94   559.89   566.20   582.06   584.05   588.95
eigval :      591.74   598.29   600.72   616.12   638.50   653.81
eigval :      659.69   661.89   664.59   671.89   678.94   688.00
eigval :      709.71   718.65   734.36   756.72   760.59   770.07
eigval :      772.03   782.97   799.19   811.78   812.67   822.64
eigval :      833.17   846.66   849.84   866.39   871.46   873.76
eigval :      880.45   889.77   893.04   895.97   901.29   904.76
eigval :      908.24   908.29   910.19   917.81   920.40   925.70
eigval :      928.27   928.61   932.53   941.26   964.03   978.63
eigval :      986.75  1003.03  1016.92  1032.94  1036.76  1080.18
eigval :     1081.51  1084.76  1096.03  1108.93  1120.18  1122.32
eigval :     1123.48  1129.16  1147.40  1154.42  1156.62  1174.10
eigval :     1176.71  1178.94  1180.21  1183.33  1192.51  1195.59
eigval :     1213.64  1228.89  1238.97  1251.61  1259.00  1268.40
eigval :     1274.65  1276.36  1279.42  1282.92  1291.46  1299.47
eigval :     1312.34  1314.11  1316.62  1317.85  1322.21  1323.62
eigval :     1329.49  1343.70  1360.49  1366.58  1407.03  1408.00
eigval :     1412.31  1417.75  1422.37  1431.07  1438.24  1440.85
eigval :     1442.64  1446.10  1462.06  1463.33  1466.06  1468.77
eigval :     1470.92  1479.10  1483.00  1494.09  1503.61  1532.24
eigval :     1551.75  1556.31  1570.80  1571.94  1574.80  1579.64
eigval :     1584.08  1590.45  2929.40  3014.52  3037.58  3050.30
eigval :     3054.63  3075.69  3077.04  3077.74  3078.19  3078.59
eigval :     3080.36  3080.92  3086.10  3086.87  3088.85  3089.08
eigval :     3090.02  3092.01  3092.99  3097.13  3097.57  3098.12
eigval :     3103.08  3103.28  3104.97  3108.39  3115.68  3118.30

   temp. (K)  partition function   enthalpy   heat capacity  entropy
                                   cal/mol     cal/K/mol   cal/K/mol   J/K/mol
 298.15  VIB  0.524E+17            21431.447    134.269    133.675
         ROT  0.104E+09              888.752      2.981     39.671
         INT  0.546E+25            22320.199    137.250    173.346
         TR   0.144E+29             1481.254      4.968     45.062
         TOT                       23801.4534   142.2178   218.4086   913.8214

       T/K    H(0)-H(T)+PV         H(T)/Eh          T*S/Eh         G(T)/Eh
   ------------------------------------------------------------------------
    298.15    0.379300E-01    0.582271E+00    0.103773E+00    0.478498E+00
   ------------------------------------------------------------------------

         :::::::::::::::::::::::::::::::::::::::::::::::::::::
         ::                  THERMODYNAMIC                  ::
         :::::::::::::::::::::::::::::::::::::::::::::::::::::
         :: total free energy        -113.385469264213 Eh   ::
         ::.................................................::
         :: total energy             -113.863967036024 Eh   ::
         :: zero point energy           0.544340691756 Eh   ::
         :: G(RRHO) w/o ZPVE           -0.065842919944 Eh   ::
         :: G(RRHO) contrib.            0.478497771812 Eh   ::
         :::::::::::::::::::::::::::::::::::::::::::::::::::::

           -------------------------------------------------
          | TOTAL ENERGY             -113.863967036024 Eh   |
          | TOTAL ENTHALPY           -113.281696313927 Eh   |
          | TOTAL FREE ENERGY        -113.385469264213 Eh   |
          | GRADIENT NORM               0.000066676646 Eh/α |
          | HOMO-LUMO GAP               1.079140911316 eV   |
           -------------------------------------------------

 * finished run on 2025/07/18 at 21:51:45.802
