   * xtb version 6.7.1 (edcfbbe) compiled by 'albert@albert-system' on 2024-07-22

   ID    Z sym.   atoms
    1    6 C      1-24, 26-32
    2    7 N      25
    3    1 H      33-51

          program call               : xtb data2507/gas/4-SCZ/4-SCZ_gas_S0_finalOpt.xtbopt.xyz --gfn 2 --spinpol --tblite --uhf 2 --ohess vtight --parallel 40 --molden --ceasefiles --namespace data2507/gas/4-SCZ/4-SCZ_gas_T1_preOpt
 * total energy  :   -78.9415120 Eh     change        0.6895434E-08 Eh
 * total energy  :   -78.9490088 Eh     change       -0.7496808E-02 Eh
 * total energy  :   -78.9513271 Eh     change       -0.2318338E-02 Eh
 * total energy  :   -78.9514334 Eh     change       -0.1062887E-03 Eh
 * total energy  :   -78.9514968 Eh     change       -0.6333240E-04 Eh
 * total energy  :   -78.9515251 Eh     change       -0.2831062E-04 Eh
 * total energy  :   -78.9515524 Eh     change       -0.2737446E-04 Eh
 * total energy  :   -78.9515874 Eh     change       -0.3497233E-04 Eh
 * total energy  :   -78.9515986 Eh     change       -0.1115652E-04 Eh
 * total energy  :   -78.9516241 Eh     change       -0.2554108E-04 Eh
 * total energy  :   -78.9517275 Eh     change       -0.3143605E-06 Eh
 * total energy  :   -78.9517278 Eh     change       -0.3440015E-06 Eh
 * total energy  :   -78.9517283 Eh     change       -0.4360159E-06 Eh
 * total energy  :   -78.9517288 Eh     change       -0.4982166E-06 Eh
 * total energy  :   -78.9517293 Eh     change       -0.5714505E-06 Eh
 * total energy  :   -78.9517298 Eh     change       -0.4682720E-06 Eh
 * total energy  :   -78.9517303 Eh     change       -0.4340737E-06 Eh
 * total energy  :   -78.9517307 Eh     change       -0.4338171E-06 Eh
 * total energy  :   -78.9517307 Eh     change       -0.7354032E-08 Eh
   *** GEOMETRY OPTIMIZATION CONVERGED AFTER 44 ITERATIONS ***

 final structure:
================
51
 xtb: 6.7.1 (edcfbbe)
C           -3.91005084460114        1.00488100156052       -3.18288345084354
C           -2.60986843611024        0.63776538309805       -3.49700250645330
C           -1.71746257489521        0.26003817043016       -2.50285077460707
C           -2.15416424587098        0.25755538059242       -1.19628471109908
C           -3.46788871365516        0.62765106250378       -0.87256810020336
C           -4.35249994528940        1.00405689107194       -1.86983426187830
C           -3.63376491951504        0.52597653829636        0.56842443908053
C           -4.72646824396812        0.77435956223828        1.38278882007628
C           -4.59062853347174        0.58894089770905        2.74920607734071
C           -3.38829215563348        0.16349427104493        3.29487884462067
C           -2.28943513715423       -0.08785244141386        2.48485021268813
C           -2.42023174163531        0.09576481448102        1.12546711659585
C           -1.38410783131482       -0.11324877573723        0.05026880286921
C           -0.83139696322074       -1.51624903330479        0.01641144532780
C           -1.52126458552878       -2.68846143452782       -0.07299405519124
C           -0.81111665162518       -3.89675948374967       -0.06182521905037
C            0.58195857828374       -3.89336740004542        0.08253480239468
C            1.29288858062000       -2.72613161814212        0.17539019669104
C            0.60548896064746       -1.48470127786662        0.09785586877446
C            1.03921052183631       -0.16250671146344        0.12656135688578
C           -0.13110544560876        0.70620075497121        0.23176823800284
C           -0.05411569477937        2.02164977566141        0.53874385871126
C            1.21983292717631        2.63128462511027        0.72275383672266
C            2.35118375868203        1.84883338354477        0.52655698111576
N            3.65959775880793        2.26607053475227        0.56928709446475
C            4.47859597734721        1.24323294120908        0.19659560035699
C            5.85707624564757        1.22065883180451        0.07262092132569
C            6.44475168982145        0.05450795465633       -0.37982537530064
C            5.65986875498880       -1.05428536400763       -0.72818078596228
C            4.29193636601011       -1.04561285859497       -0.60384907387591
C            3.65969278744800        0.10124475171158       -0.09594775652960
C            2.32397220143669        0.48314410364551        0.16259057608150
H           -4.58657652591469        1.29478633980141       -3.97390561797703
H           -2.28827868303454        0.64512125637077       -4.52820630001515
H           -0.70482645744531       -0.02670859867480       -2.74677168241824
H           -5.36604245253913        1.29035980186243       -1.63046848540642
H           -5.66498459748085        1.10540372827626        0.96312930478842
H           -5.43234646078893        0.77780135524587        3.39982357246142
H           -3.30685287280362        0.02583970627241        4.36319452832336
H           -1.35251101212714       -0.42010663223668        2.90794672303665
H           -2.59960101824330       -2.69025852107464       -0.14562072714146
H           -1.34173354225898       -4.83294629064698       -0.13796809106746
H            1.10159890066480       -4.83980502449505        0.13672839035176
H            2.35649269401317       -2.74104605244201        0.34570279890155
H           -0.94698304194164        2.61902412259333        0.64663938039928
H            1.29800990902457        3.67997567426126        0.96007079594488
H            3.96210151458181        3.19013321844037        0.82909447928370
H            6.44922647686947        2.09249302609581        0.30958218153734
H            7.51685486080170        0.00100277276244       -0.49037151326426
H            6.15205783839988       -1.93529483859383       -1.11418100083743
H            3.71128471429520       -1.89660675259615       -0.91948268916063

 projected vibrational frequencies (cm⁻¹)
eigval :       -0.00    -0.00    -0.00     0.00     0.00     0.00
eigval :       17.63    33.50    36.01    60.11    69.60    82.69
eigval :       92.65   123.59   137.78   142.58   160.16   205.56
eigval :      222.47   227.74   244.40   269.20   283.56   301.02
eigval :      345.14   365.63   386.09   391.49   400.94   415.20
eigval :      418.75   433.52   438.89   449.58   472.14   481.21
eigval :      490.73   502.34   521.68   530.28   538.13   559.80
eigval :      565.82   578.23   590.71   614.31   620.62   631.96
eigval :      661.37   670.48   673.75   687.33   690.03   694.67
eigval :      712.38   726.66   731.20   753.73   754.41   762.94
eigval :      785.91   798.23   822.00   845.96   847.93   855.35
eigval :      878.61   879.36   880.23   882.59   891.55   898.96
eigval :      907.08   909.28   910.16   913.86   916.24   926.94
eigval :      927.78   943.10  1007.34  1034.74  1045.77  1056.58
eigval :     1060.60  1073.51  1078.64  1089.35  1121.16  1128.49
eigval :     1143.09  1144.87  1147.67  1161.73  1171.02  1176.65
eigval :     1178.02  1182.01  1199.41  1208.84  1221.77  1231.65
eigval :     1243.55  1255.10  1256.71  1261.88  1285.18  1289.39
eigval :     1309.67  1328.22  1331.26  1342.75  1362.58  1365.16
eigval :     1366.14  1374.66  1395.69  1412.00  1427.75  1428.48
eigval :     1440.15  1461.96  1471.13  1483.86  1497.12  1525.01
eigval :     1544.70  1560.47  1576.15  1583.77  1594.90  1600.85
eigval :     1603.41  1612.33  3069.89  3071.53  3072.20  3073.48
eigval :     3073.99  3076.33  3077.18  3077.37  3082.95  3084.67
eigval :     3085.16  3090.23  3091.86  3096.39  3097.13  3099.42
eigval :     3112.80  3116.99  3471.86

   temp. (K)  partition function   enthalpy   heat capacity  entropy
                                   cal/mol     cal/K/mol   cal/K/mol   J/K/mol
 298.15  VIB  0.408E+09            13050.052     90.355     77.538
         ROT  0.180E+08              888.752      2.981     36.177
         INT  0.733E+16            13938.804     93.336    113.714
         TR   0.790E+28             1481.254      4.968     43.871
         TOT                       15420.0579    98.3037   157.5854   659.3371

       T/K    H(0)-H(T)+PV         H(T)/Eh          T*S/Eh         G(T)/Eh
   ------------------------------------------------------------------------
    298.15    0.245734E-01    0.412021E+00    0.748739E-01    0.337147E+00
   ------------------------------------------------------------------------

         :::::::::::::::::::::::::::::::::::::::::::::::::::::
         ::                  THERMODYNAMIC                  ::
         :::::::::::::::::::::::::::::::::::::::::::::::::::::
         :: total free energy         -78.614583621799 Eh   ::
         ::.................................................::
         :: total energy              -78.951730662639 Eh   ::
         :: zero point energy           0.387447502094 Eh   ::
         :: G(RRHO) w/o ZPVE           -0.050300461255 Eh   ::
         :: G(RRHO) contrib.            0.337147040840 Eh   ::
         :::::::::::::::::::::::::::::::::::::::::::::::::::::

           -------------------------------------------------
          | TOTAL ENERGY              -78.951730662639 Eh   |
          | TOTAL ENTHALPY            -78.539709734036 Eh   |
          | TOTAL FREE ENERGY         -78.614583621799 Eh   |
          | GRADIENT NORM               0.000043316125 Eh/α |
           -------------------------------------------------

 * finished run on 2025/08/21 at 13:28:40.500
