   * xtb version 6.7.1 (edcfbbe) compiled by 'albert@albert-system' on 2024-07-22

   ID    Z sym.   atoms
    1    6 C      1-24, 26-32
    2    7 N      25
    3    1 H      33-51

          program call               : xtb data2507/gas/4-SCZ/4-SCZ.xyz --gfn 2 --ohess vtight --parallel 40 --molden --ceasefiles --namespace data2507/gas/4-SCZ/4-SCZ_gas_S0_preOpt
          :  Hamiltonian                  GFN2-xTB          :
 * total energy  :   -79.0351976 Eh     change       -0.7746905E-08 Eh
 * total energy  :   -79.0425567 Eh     change       -0.7359085E-02 Eh
 * total energy  :   -79.0436983 Eh     change       -0.1141607E-02 Eh
 * total energy  :   -79.0439351 Eh     change       -0.2368091E-03 Eh
 * total energy  :   -79.0441119 Eh     change       -0.1767687E-03 Eh
 * total energy  :   -79.0441756 Eh     change       -0.6376772E-04 Eh
 * total energy  :   -79.0442086 Eh     change       -0.3297573E-04 Eh
 * total energy  :   -79.0442369 Eh     change       -0.2831950E-04 Eh
 * total energy  :   -79.0442525 Eh     change       -0.1559997E-04 Eh
 * total energy  :   -79.0442682 Eh     change       -0.1570790E-04 Eh
 * total energy  :   -79.0442803 Eh     change       -0.2461527E-05 Eh
 * total energy  :   -79.0442814 Eh     change       -0.1098076E-05 Eh
 * total energy  :   -79.0442820 Eh     change       -0.5795181E-06 Eh
 * total energy  :   -79.0442826 Eh     change       -0.6153522E-06 Eh
 * total energy  :   -79.0442834 Eh     change       -0.8085868E-06 Eh
 * total energy  :   -79.0442842 Eh     change       -0.8380229E-06 Eh
 * total energy  :   -79.0442848 Eh     change       -0.5647281E-06 Eh
 * total energy  :   -79.0442852 Eh     change       -0.4119768E-06 Eh
 * total energy  :   -79.0442852 Eh     change       -0.7110415E-08 Eh
   *** GEOMETRY OPTIMIZATION CONVERGED AFTER 22 ITERATIONS ***

 final structure:
================
51
 xtb: 6.7.1 (edcfbbe)
C           -4.54236510228005        0.46984870132249       -2.73449312260050
C           -3.32505768350696        0.07855101423817       -3.27141894832918
C           -2.22322239692471       -0.13605835409581       -2.45427974576454
C           -2.36733051999215        0.04913289957417       -1.09688258525212
C           -3.59605357481613        0.44442124478252       -0.54829102048541
C           -4.69097885610404        0.65681490759724       -1.36950526183218
C           -3.44168401512998        0.55693604121554        0.89357924101040
C           -4.34288698030227        0.90813152734700        1.88500944581493
C           -3.90673478443933        0.93081107600204        3.20009978796282
C           -2.59643361482274        0.61008221848248        3.52166350280000
C           -1.68755716037967        0.25678344213783        2.53327568292804
C           -2.11846164866358        0.23246900573120        1.22528107310944
C           -1.33068081408099       -0.11940285482674       -0.01436352029591
C           -0.73302171302854       -1.49970684590618        0.02782480277736
C           -1.40445785991924       -2.69909029929778        0.10815805980153
C           -0.66999725775522       -3.87505118169716        0.05570880536041
C            0.70515121890828       -3.83112579865046       -0.10804561678481
C            1.38052921727755       -2.62330345132100       -0.18146347273730
C            0.66656720231792       -1.43902297613642       -0.07646583311056
C            1.06517106219399       -0.03710891257235       -0.14565666527171
C           -0.10357406421955        0.73849991896822       -0.19089246312166
C           -0.10322142094372        2.10939629281486       -0.37953878298415
C            1.10103558029578        2.76880122139277       -0.53736964200573
C            2.26927677484892        2.02845473978396       -0.43312937654417
N            3.55514611523442        2.49631044151283       -0.50964308805717
C            4.42619430557067        1.46981657012852       -0.26806103818530
C            5.81049376350734        1.50778632710263       -0.20122672280134
C            6.47289571370918        0.34146649878180        0.12363176310970
C            5.76456144195111       -0.82490946073657        0.40061019570982
C            4.38669182549699       -0.86524389283050        0.32612619383856
C            3.68833615075840        0.27984170330744       -0.04554109868810
C            2.29633471977050        0.62707744761108       -0.19403459239440
H           -5.38591881242092        0.63062306057595       -3.39023381439607
H           -3.23323681453690       -0.06138915310273       -4.33857556620663
H           -1.27453982617790       -0.44144114656325       -2.87137345717936
H           -5.64108813975687        0.96140162079784       -0.95591838365462
H           -5.36435921063831        1.15887337853072        1.63957263228036
H           -4.59625025013012        1.20199998109061        3.98650148360236
H           -2.27909515646806        0.63503600764894        4.55388634910008
H           -0.66649852358349        0.00674981850538        2.78263253584530
H           -2.48117321350196       -2.71972452437907        0.19613542872541
H           -1.17462201586790       -4.82784283172763        0.11847555043090
H            1.26163355225668       -4.75403818237345       -0.18694506335614
H            2.44292930154962       -2.61860775223907       -0.35588176308845
H           -1.03750987536059        2.64948253788481       -0.41712263755836
H            1.13870756019526        3.83235605153728       -0.71940158228391
H            3.81287075855686        3.45585521510174       -0.66270399852497
H            6.34748991102722        2.42690301161890       -0.38486363678459
H            7.55103127493727        0.33731811689975        0.18488307536058
H            6.30632575809209       -1.71390407002841        0.68816560825360
H            3.86863909729567       -1.77105835154217        0.59210228245777

          :  Hamiltonian                  GFN2-xTB          :
         :: gradient norm              0.000065086725 Eh/a0 ::
         :: HOMO-LUMO gap              2.810201191921 eV    ::
         :: SCC energy               -80.571325046408 Eh    ::
         :: -> dispersion             -0.073834723831 Eh    ::
         :: repulsion energy           1.527039826970 Eh    ::

    * Orbital Energies and Occupations

         #    Occupation            Energy/Eh            Energy/eV
      -------------------------------------------------------------
         1        2.0000           -0.6753153             -18.3763
       ...           ...                  ...                  ...
        62        2.0000           -0.4199403             -11.4272
        63        2.0000           -0.4186965             -11.3933
        64        2.0000           -0.4177151             -11.3666
        65        2.0000           -0.4148505             -11.2887
        66        2.0000           -0.4119388             -11.2094
        67        2.0000           -0.4064917             -11.0612
        68        2.0000           -0.4033273             -10.9751
        69        2.0000           -0.3928947             -10.6912
        70        2.0000           -0.3909891             -10.6394
        71        2.0000           -0.3889225             -10.5831
        72        2.0000           -0.3768407             -10.2544
        73        2.0000           -0.3717748             -10.1165
        74        2.0000           -0.3596150              -9.7856 (HOMO)
        75                         -0.2563420              -6.9754 (LUMO)
        76                         -0.2483740              -6.7586
        77                         -0.2282160              -6.2101
        78                         -0.2216184              -6.0305
        79                         -0.2205618              -6.0018
        80                         -0.2142435              -5.8299
        81                         -0.2039699              -5.5503
        82                         -0.1877671              -5.1094
        83                         -0.1850446              -5.0353
        84                         -0.1776503              -4.8341
        85                         -0.1072870              -2.9194
       ...                                ...                  ...
       147                          0.7707057              20.9720
      -------------------------------------------------------------
                  HL-Gap            0.1032730 Eh            2.8102 eV

     #   Z          covCN         q      C6AA      α(0)
     1   6 C        2.921    -0.033    28.822     8.804
     2   6 C        2.923    -0.032    28.795     8.800
     3   6 C        2.914    -0.033    28.812     8.802
     4   6 C        3.057     0.006    27.826     8.651
     5   6 C        3.037     0.001    27.974     8.675
     6   6 C        2.915    -0.034    28.851     8.808
     7   6 C        3.036     0.001    27.976     8.676
     8   6 C        2.915    -0.034    28.849     8.808
     9   6 C        2.921    -0.033    28.822     8.804
    10   6 C        2.923    -0.032    28.794     8.800
    11   6 C        2.914    -0.033    28.815     8.802
    12   6 C        3.058     0.007    27.804     8.647
    13   6 C        3.979     0.009    20.351     6.409
    14   6 C        3.060     0.006    27.817     8.649
    15   6 C        2.914    -0.033    28.830     8.805
    16   6 C        2.923    -0.032    28.801     8.801
    17   6 C        2.920    -0.034    28.839     8.806
    18   6 C        2.917    -0.037    28.924     8.819
    19   6 C        3.034     0.004    27.899     8.664
    20   6 C        3.021    -0.003    28.071     8.691
    21   6 C        3.063    -0.005    28.092     8.691
    22   6 C        2.918    -0.036    28.900     8.816
    23   6 C        2.914    -0.058    29.439     8.897
    24   6 C        3.077     0.052    26.754     8.480
    25   7 N        2.753    -0.122    23.648     7.222
    26   6 C        3.074     0.055    26.692     8.471
    27   6 C        2.910    -0.056    29.385     8.889
    28   6 C        2.924    -0.033    28.813     8.803
    29   6 C        2.919    -0.043    29.067     8.841
    30   6 C        2.915    -0.035    28.881     8.813
    31   6 C        3.066    -0.014    28.288     8.721
    32   6 C        3.055    -0.021    28.464     8.750
    33   1 H        0.926     0.029     2.596     2.519
    34   1 H        0.926     0.030     2.590     2.517
    35   1 H        0.926     0.028     2.618     2.530
    36   1 H        0.926     0.030     2.582     2.513
    37   1 H        0.926     0.030     2.580     2.512
    38   1 H        0.926     0.029     2.594     2.519
    39   1 H        0.926     0.030     2.588     2.516
    40   1 H        0.926     0.029     2.607     2.525
    41   1 H        0.926     0.027     2.633     2.538
    42   1 H        0.926     0.029     2.599     2.521
    43   1 H        0.926     0.029     2.602     2.523
    44   1 H        0.926     0.038     2.474     2.460
    45   1 H        0.926     0.029     2.604     2.523
    46   1 H        0.926     0.025     2.651     2.546
    47   1 H        0.860     0.156     1.359     1.826
    48   1 H        0.926     0.023     2.687     2.564
    49   1 H        0.926     0.028     2.609     2.526
    50   1 H        0.926     0.027     2.630     2.536
    51   1 H        0.926     0.036     2.503     2.474

molecular dipole:
                 x           y           z       tot (Debye)
 q only:        0.235       0.453      -0.085
   full:        0.274       0.716      -0.125       1.973

 projected vibrational frequencies (cm⁻¹)
eigval :       -0.00    -0.00     0.00     0.00     0.00     0.00
eigval :       18.91    34.44    36.10    57.29    73.21    83.43
eigval :      101.91   126.46   139.95   144.20   164.69   213.85
eigval :      224.77   234.43   255.96   279.94   298.84   308.30
eigval :      353.85   387.19   393.81   401.24   409.31   415.22
eigval :      423.26   441.44   447.15   452.98   477.78   485.28
eigval :      502.83   520.92   537.34   540.30   550.80   578.26
eigval :      582.79   592.97   594.26   621.87   634.46   638.29
eigval :      677.00   687.50   690.36   701.59   707.50   714.05
eigval :      738.30   754.20   765.29   769.79   777.86   786.22
eigval :      804.61   817.21   859.58   861.73   877.19   878.89
eigval :      879.81   893.59   897.58   900.48   902.57   910.34
eigval :      911.40   912.31   919.91   926.80   927.11   927.88
eigval :      948.11   967.39  1008.85  1052.31  1066.25  1073.83
eigval :     1078.61  1079.89  1088.32  1123.16  1133.89  1143.61
eigval :     1145.51  1158.35  1171.32  1175.43  1178.35  1179.89
eigval :     1186.65  1200.49  1210.14  1214.16  1236.09  1242.26
eigval :     1260.98  1262.20  1265.49  1286.33  1287.01  1303.20
eigval :     1325.30  1327.63  1343.60  1364.07  1366.94  1392.35
eigval :     1406.54  1425.90  1429.22  1431.98  1446.85  1451.00
eigval :     1462.55  1469.56  1472.51  1489.18  1572.65  1585.55
eigval :     1585.99  1588.12  1596.67  1600.52  1602.56  1604.39
eigval :     1604.82  1613.86  3071.53  3072.21  3072.71  3073.44
eigval :     3076.28  3077.16  3077.54  3079.26  3079.85  3082.89
eigval :     3084.81  3089.79  3090.58  3091.36  3091.77  3092.39
eigval :     3121.31  3128.87  3489.03

   temp. (K)  partition function   enthalpy   heat capacity  entropy
                                   cal/mol     cal/K/mol   cal/K/mol   J/K/mol
 298.15  VIB  0.236E+09            12728.117     88.427     75.504
         ROT  0.179E+08              888.752      2.981     36.166
         INT  0.422E+16            13616.869     91.408    111.670
         TR   0.790E+28             1481.254      4.968     43.871
         TOT                       15098.1234    96.3758   155.5409   650.7830

       T/K    H(0)-H(T)+PV         H(T)/Eh          T*S/Eh         G(T)/Eh
   ------------------------------------------------------------------------
    298.15    0.240604E-01    0.415655E+00    0.739025E-01    0.341752E+00
   ------------------------------------------------------------------------

         :::::::::::::::::::::::::::::::::::::::::::::::::::::
         ::                  THERMODYNAMIC                  ::
         :::::::::::::::::::::::::::::::::::::::::::::::::::::
         :: total free energy         -78.702533039396 Eh   ::
         ::.................................................::
         :: total energy              -79.044285219437 Eh   ::
         :: zero point energy           0.391594280290 Eh   ::
         :: G(RRHO) w/o ZPVE           -0.049842100250 Eh   ::
         :: G(RRHO) contrib.            0.341752180041 Eh   ::
         :::::::::::::::::::::::::::::::::::::::::::::::::::::

           -------------------------------------------------
          | TOTAL ENERGY              -79.044285219437 Eh   |
          | TOTAL ENTHALPY            -78.628630548076 Eh   |
          | TOTAL FREE ENERGY         -78.702533039396 Eh   |
          | GRADIENT NORM               0.000065082819 Eh/α |
          | HOMO-LUMO GAP               2.810201113205 eV   |
           -------------------------------------------------

 * finished run on 2025/08/21 at 13:26:53.275
