   * xtb version 6.7.1 (edcfbbe) compiled by 'albert@albert-system' on 2024-07-22

   ID    Z sym.   atoms
    1    6 C      1-24, 26-32
    2    7 N      25
    3    1 H      33-51

          program call               : xtb data2507/gas/4-SCZ/4-SCZ_gas_T1_crest.xyz --gfn 2 --spinpol --tblite --uhf 2 --ohess vtight --parallel 40 --molden --ceasefiles --namespace data2507/gas/4-SCZ/4-SCZ_gas_T1_finalOpt
 * total energy  :   -78.9516888 Eh     change       -0.8380852E-08 Eh
 * total energy  :   -78.9517195 Eh     change       -0.3067650E-04 Eh
 * total energy  :   -78.9517311 Eh     change       -0.1158557E-04 Eh
 * total energy  :   -78.9517326 Eh     change       -0.1544450E-05 Eh
 * total energy  :   -78.9517331 Eh     change       -0.5166785E-06 Eh
 * total energy  :   -78.9517330 Eh     change        0.1672579E-06 Eh
 * total energy  :   -78.9517334 Eh     change       -0.4153077E-06 Eh
 * total energy  :   -78.9517336 Eh     change       -0.2335441E-06 Eh
 * total energy  :   -78.9517339 Eh     change       -0.3038592E-06 Eh
 * total energy  :   -78.9517342 Eh     change       -0.2782255E-06 Eh
 * total energy  :   -78.9517345 Eh     change       -0.3364931E-06 Eh
 * total energy  :   -78.9517350 Eh     change       -0.4192099E-06 Eh
 * total energy  :   -78.9517354 Eh     change       -0.4008054E-06 Eh
 * total energy  :   -78.9517356 Eh     change       -0.2817522E-06 Eh
 * total energy  :   -78.9517358 Eh     change       -0.1558540E-06 Eh
 * total energy  :   -78.9517359 Eh     change       -0.1213852E-06 Eh
 * total energy  :   -78.9517360 Eh     change       -0.1111695E-06 Eh
 * total energy  :   -78.9517361 Eh     change       -0.8298736E-07 Eh
   *** GEOMETRY OPTIMIZATION CONVERGED AFTER 18 ITERATIONS ***

 final structure:
================
51
 xtb: 6.7.1 (edcfbbe)
C           -4.70251977154982        0.86988286284927       -2.51558808413354
C           -3.52369265080347        0.51436491803263       -3.15459917520922
C           -2.39127864961038        0.18172583920818       -2.42392059210747
C           -2.46448090844514        0.21384827119419       -1.04825662887434
C           -3.65409134850256        0.57338730955266       -0.39705581905161
C           -4.78061134729158        0.90320334696401       -1.13258075332322
C           -3.42795897237376        0.51785144643220        1.03824369064531
C           -4.26902853023705        0.78061224578857        2.10706576001065
C           -3.77067447086295        0.64221347049911        3.39250737411471
C           -2.45823961094199        0.24941789002231        3.60970592627040
C           -1.60940771024362       -0.01547952437325        2.54358033640753
C           -2.10195047525926        0.12057934343179        1.26426378409896
C           -1.38509878650527       -0.10864464561465       -0.04704028115504
C           -0.83335240377327       -1.50598664692969       -0.18423569769817
C           -1.52203016231694       -2.68186969028977       -0.21612875862280
C           -0.81222218382505       -3.88016020145803       -0.37333066522849
C            0.57873763265807       -3.85893036309239       -0.53545288666869
C            1.28852977977395       -2.68758443836689       -0.50822470086026
C            0.60191978017000       -1.46352376364015       -0.28552292855663
C            1.03476272556819       -0.14493039463088       -0.18140769433272
C           -0.13725990747336        0.72787419198131       -0.17820897111349
C           -0.06507196605837        2.06702842370049       -0.35662415452462
C            1.20605124314812        2.69368825315497       -0.50014988769473
C            2.34064420259251        1.89814512238920       -0.39624756615844
N            3.64836466143220        2.31965501279871       -0.41110961131869
C            4.47178591300110        1.26639831742671       -0.14882779179146
C            5.85122614217611        1.23388176624459       -0.03859448551671
C            6.44339643777065        0.02968631316730        0.29205841045693
C            5.66259637090815       -1.10979687784550        0.53456531303251
C            4.29372813401025       -1.09132666876048        0.42225794675033
C            3.65673049613494        0.09958662287878        0.03649460438029
C            2.31847082204280        0.50314181251925       -0.16942858389010
H           -5.57134589837217        1.12385972031905       -3.10558953174021
H           -3.48733988559679        0.49559301407894       -4.23405014370422
H           -1.47279799911340       -0.09662742487922       -2.92004431655987
H           -5.70098270574605        1.18027458840266       -0.63997098301148
H           -5.29177621501550        1.08675842459147        1.94340948839448
H           -4.41252378833523        0.84265991511205        4.23825692742175
H           -2.09253838941091        0.14791293401255        4.62104349588674
H           -0.58715892721310       -0.32189304867725        2.71173415111432
H           -2.59909357083904       -2.69360541069316       -0.12735758391978
H           -1.34185400074707       -4.81976052940196       -0.39466318882969
H            1.09734732540403       -4.79286438295158       -0.70133393458430
H            2.34987240589506       -2.68169666362075       -0.69310492442840
H           -0.95933212932482        2.67109846755329       -0.38985675481794
H            1.28028798787126        3.76088116489288       -0.63356060167195
H            3.94760821432174        3.26555072798621       -0.58033036838582
H            6.44084583382609        2.12579028740539       -0.19265883126372
H            7.51635388063034       -0.03245109826766        0.38904282788330
H            6.15885352482536       -2.02378473275673        0.82744377383793
H            3.71592100942699       -1.97046763504132        0.65544187214151

 projected vibrational frequencies (cm⁻¹)
eigval :       -0.00    -0.00    -0.00    -0.00     0.00     0.00
eigval :       17.85    33.40    36.05    60.38    69.88    82.70
eigval :       92.68   123.62   137.80   142.66   159.63   204.94
eigval :      222.71   227.78   244.87   269.16   283.38   300.89
eigval :      345.18   365.63   386.10   391.41   400.84   415.15
eigval :      418.69   433.41   439.13   449.63   471.91   481.33
eigval :      490.46   502.33   521.57   530.27   538.11   559.96
eigval :      565.83   578.29   590.68   614.09   620.71   631.82
eigval :      661.40   670.60   673.70   687.42   689.94   694.64
eigval :      712.36   726.78   731.24   753.64   754.51   762.95
eigval :      785.89   798.26   822.34   845.94   847.86   855.52
eigval :      878.58   879.35   880.29   882.64   891.53   898.81
eigval :      907.17   909.30   910.15   913.93   916.29   926.91
eigval :      927.76   943.21  1007.24  1034.77  1045.88  1056.50
eigval :     1060.40  1073.44  1078.58  1089.22  1121.03  1128.51
eigval :     1143.02  1144.52  1147.61  1161.74  1171.05  1176.52
eigval :     1177.90  1181.91  1199.21  1208.59  1221.85  1231.60
eigval :     1243.43  1254.67  1256.64  1262.43  1285.03  1289.41
eigval :     1309.65  1328.26  1331.22  1342.88  1362.67  1365.20
eigval :     1366.02  1374.64  1395.64  1412.12  1427.52  1428.08
eigval :     1440.05  1461.63  1470.80  1484.02  1497.17  1525.21
eigval :     1545.01  1560.96  1576.33  1583.61  1594.74  1600.71
eigval :     1603.33  1612.52  3069.84  3071.46  3072.14  3073.43
eigval :     3073.95  3076.28  3077.12  3077.33  3082.86  3084.62
eigval :     3085.08  3090.15  3091.85  3096.12  3096.96  3099.18
eigval :     3111.98  3115.92  3471.84

   temp. (K)  partition function   enthalpy   heat capacity  entropy
                                   cal/mol     cal/K/mol   cal/K/mol   J/K/mol
 298.15  VIB  0.402E+09            13050.003     90.363     77.527
         ROT  0.180E+08              888.752      2.981     36.174
         INT  0.721E+16            13938.755     93.344    113.701
         TR   0.790E+28             1481.254      4.968     43.871
         TOT                       15420.0089    98.3121   157.5723   659.2826

       T/K    H(0)-H(T)+PV         H(T)/Eh          T*S/Eh         G(T)/Eh
   ------------------------------------------------------------------------
    298.15    0.245733E-01    0.412009E+00    0.748677E-01    0.337141E+00
   ------------------------------------------------------------------------

         :::::::::::::::::::::::::::::::::::::::::::::::::::::
         ::                  THERMODYNAMIC                  ::
         :::::::::::::::::::::::::::::::::::::::::::::::::::::
         :: total free energy         -78.614594840355 Eh   ::
         ::.................................................::
         :: total energy              -78.951736087795 Eh   ::
         :: zero point energy           0.387435597758 Eh   ::
         :: G(RRHO) w/o ZPVE           -0.050294350317 Eh   ::
         :: G(RRHO) contrib.            0.337141247441 Eh   ::
         :::::::::::::::::::::::::::::::::::::::::::::::::::::

           -------------------------------------------------
          | TOTAL ENERGY              -78.951736087795 Eh   |
          | TOTAL ENTHALPY            -78.539727141696 Eh   |
          | TOTAL FREE ENERGY         -78.614594840355 Eh   |
          | GRADIENT NORM               0.000042274502 Eh/α |
           -------------------------------------------------

 * finished run on 2025/08/21 at 13:30:33.689
