   * xtb version 6.7.1 (edcfbbe) compiled by 'albert@albert-system' on 2024-07-22

   ID    Z sym.   atoms
    1    6 C      1-24, 26-32
    2    7 N      25
    3    1 H      33-51

          program call               : xtb data2507/gas/4-SCZ/4-SCZ_gas_S0_crest.xyz --gfn 2 --ohess vtight --parallel 40 --molden --ceasefiles --namespace data2507/gas/4-SCZ/4-SCZ_gas_S0_finalOpt
          :  Hamiltonian                  GFN2-xTB          :
 * total energy  :   -79.0442860 Eh     change       -0.6806104E-08 Eh
 * total energy  :   -79.0442866 Eh     change       -0.5383920E-06 Eh
 * total energy  :   -79.0442869 Eh     change       -0.3249723E-06 Eh
 * total energy  :   -79.0442875 Eh     change       -0.6261080E-06 Eh
 * total energy  :   -79.0442877 Eh     change       -0.2391686E-06 Eh
 * total energy  :   -79.0442878 Eh     change       -0.2901123E-07 Eh
   *** GEOMETRY OPTIMIZATION CONVERGED AFTER 6 ITERATIONS ***

 final structure:
================
51
 xtb: 6.7.1 (edcfbbe)
C           -3.96489616312122        1.07696013575986       -3.13868617663439
C           -2.67349060301259        0.71650175897197       -3.49294186880098
C           -1.75847826717559        0.31184818391605       -2.53020740658552
C           -2.16390622719180        0.27716057598162       -1.21430027094850
C           -3.46822269473639        0.64091008271866       -0.84975394010747
C           -4.37569354978532        1.04322981834892       -1.81570074925574
C           -3.59781484965965        0.50722735110785        0.59275536836308
C           -4.66828035389458        0.74097667939085        1.44003115253703
C           -4.49818058175867        0.52593686637311        2.79836608136398
C           -3.28366391474974        0.08647882777786        3.30341307366760
C           -2.20663990928628       -0.15084018120213        2.45993839702468
C           -2.37244497535067        0.06152116975638        1.10904003832650
C           -1.36442256920738       -0.12435986062086        0.00222925402791
C           -0.81869502265544       -1.52471316528079       -0.07106611110729
C           -1.53538764962741       -2.69684231486775       -0.16224354438275
C           -0.84501971715999       -3.90004714201523       -0.13658370787792
C            0.53251356153643       -3.90983694581260        0.01198189536559
C            1.25327405741212       -2.72930596396887        0.09666606232360
C            0.58320466370970       -1.51757651503687        0.01871431423769
C            1.03456589022665       -0.13256957051590        0.10471020532681
C           -0.10407647851711        0.68506736516717        0.17236788578018
C           -0.05141620515045        2.05236952928603        0.37896237661708
C            1.17767808844334        2.66463768081115        0.53446267588998
C            2.31663265166679        1.88270769557124        0.41162038230018
N            3.61938972395632        2.30133148235725        0.48708097289993
C            4.45030146323544        1.24635963969379        0.22784758038352
C            5.83487648976585        1.23325660413706        0.15726356511187
C            6.45214501953146        0.04743634804057       -0.18532781706225
C            5.69960436926504       -1.08740022140723       -0.47638504791580
C            4.32139919441045       -1.07690353709781       -0.39816051296135
C            3.66746282441768        0.08811779807278       -0.00799243511795
C            2.29001521832420        0.48479108270726        0.15267719815171
H           -4.65948766003995        1.38841550087684       -3.90547009160144
H           -2.37584819921242        0.75088879031868       -4.53074259287960
H           -0.75204712776449        0.03121291125903       -2.80511457120032
H           -5.38247114055996        1.32513651035191       -1.54468072109117
H           -5.61615247531346        1.08319377021253        1.05150096147831
H           -5.32258976461372        0.70258859196846        3.47406411054557
H           -3.17459303464131       -0.07382940473075        4.36607151303107
H           -1.26021658330929       -0.49413632093559        2.85193321939104
H           -2.61304915646102       -2.67583550846946       -0.23767482195529
H           -1.38557041733022       -4.83229174877853       -0.20815406751480
H            1.05504656276871       -4.85391812144156        0.06977606995465
H            2.31697656443725       -2.76737617578740        0.25833553981805
H           -0.96479780332792        2.62587226313784        0.43219336492717
H            1.25638335730739        3.72351746192672        0.73007288235265
H            3.91367514851300        3.24805160406191        0.65341190322681
H            6.40649130219968        2.12886772815072        0.35216472579296
H            7.52924788612223        0.00341817149022       -0.24907239133536
H            6.20673860558574       -1.99212412466412       -0.77770926014819
H            3.76903035877852       -1.95878661446870       -0.67524998943318

          :  Hamiltonian                  GFN2-xTB          :
         :: gradient norm              0.000104433949 Eh/a0 ::
         :: HOMO-LUMO gap              2.810607586110 eV    ::
         :: SCC energy               -80.571321986083 Eh    ::
         :: -> dispersion             -0.073835368352 Eh    ::
         :: repulsion energy           1.527034207219 Eh    ::

    * Orbital Energies and Occupations

         #    Occupation            Energy/Eh            Energy/eV
      -------------------------------------------------------------
         1        2.0000           -0.6753295             -18.3767
       ...           ...                  ...                  ...
        62        2.0000           -0.4199644             -11.4278
        63        2.0000           -0.4186883             -11.3931
        64        2.0000           -0.4177115             -11.3665
        65        2.0000           -0.4148577             -11.2889
        66        2.0000           -0.4119467             -11.2096
        67        2.0000           -0.4064589             -11.0603
        68        2.0000           -0.4033285             -10.9751
        69        2.0000           -0.3928876             -10.6910
        70        2.0000           -0.3909886             -10.6393
        71        2.0000           -0.3889306             -10.5833
        72        2.0000           -0.3768384             -10.2543
        73        2.0000           -0.3717935             -10.1170
        74        2.0000           -0.3596280              -9.7860 (HOMO)
        75                         -0.2563401              -6.9754 (LUMO)
        76                         -0.2483714              -6.7585
        77                         -0.2282262              -6.2103
        78                         -0.2216251              -6.0307
        79                         -0.2205503              -6.0015
        80                         -0.2142398              -5.8298
        81                         -0.2039682              -5.5503
        82                         -0.1877691              -5.1095
        83                         -0.1850603              -5.0357
        84                         -0.1776292              -4.8335
        85                         -0.1072844              -2.9194
       ...                                ...                  ...
       147                          0.7706459              20.9703
      -------------------------------------------------------------
                  HL-Gap            0.1032880 Eh            2.8106 eV

     #   Z          covCN         q      C6AA      α(0)
     1   6 C        2.921    -0.033    28.822     8.804
     2   6 C        2.923    -0.032    28.794     8.800
     3   6 C        2.914    -0.033    28.815     8.802
     4   6 C        3.057     0.007    27.805     8.648
     5   6 C        3.037     0.001    27.976     8.675
     6   6 C        2.915    -0.034    28.849     8.808
     7   6 C        3.037     0.001    27.975     8.675
     8   6 C        2.915    -0.034    28.851     8.808
     9   6 C        2.921    -0.033    28.822     8.804
    10   6 C        2.923    -0.032    28.795     8.800
    11   6 C        2.914    -0.033    28.812     8.802
    12   6 C        3.057     0.006    27.824     8.650
    13   6 C        3.979     0.009    20.352     6.409
    14   6 C        3.060     0.006    27.817     8.649
    15   6 C        2.914    -0.033    28.830     8.805
    16   6 C        2.923    -0.032    28.801     8.801
    17   6 C        2.920    -0.034    28.839     8.807
    18   6 C        2.917    -0.037    28.924     8.819
    19   6 C        3.034     0.004    27.899     8.664
    20   6 C        3.021    -0.003    28.071     8.691
    21   6 C        3.063    -0.005    28.092     8.691
    22   6 C        2.918    -0.036    28.900     8.816
    23   6 C        2.914    -0.058    29.439     8.897
    24   6 C        3.077     0.052    26.754     8.480
    25   7 N        2.753    -0.122    23.647     7.222
    26   6 C        3.074     0.055    26.692     8.471
    27   6 C        2.910    -0.056    29.385     8.889
    28   6 C        2.924    -0.033    28.813     8.803
    29   6 C        2.919    -0.043    29.067     8.841
    30   6 C        2.915    -0.035    28.881     8.813
    31   6 C        3.066    -0.014    28.288     8.721
    32   6 C        3.055    -0.021    28.464     8.750
    33   1 H        0.926     0.029     2.594     2.519
    34   1 H        0.926     0.030     2.588     2.516
    35   1 H        0.926     0.029     2.607     2.525
    36   1 H        0.926     0.030     2.581     2.512
    37   1 H        0.926     0.030     2.582     2.513
    38   1 H        0.926     0.029     2.595     2.519
    39   1 H        0.926     0.030     2.590     2.517
    40   1 H        0.926     0.028     2.618     2.530
    41   1 H        0.926     0.027     2.633     2.538
    42   1 H        0.926     0.029     2.599     2.521
    43   1 H        0.926     0.029     2.603     2.523
    44   1 H        0.926     0.038     2.474     2.459
    45   1 H        0.926     0.029     2.604     2.523
    46   1 H        0.926     0.025     2.651     2.546
    47   1 H        0.860     0.156     1.359     1.826
    48   1 H        0.926     0.023     2.687     2.563
    49   1 H        0.926     0.028     2.609     2.526
    50   1 H        0.926     0.027     2.630     2.536
    51   1 H        0.926     0.036     2.503     2.474

molecular dipole:
                 x           y           z       tot (Debye)
 q only:        0.252       0.443       0.090
   full:        0.302       0.703       0.135       1.975

 projected vibrational frequencies (cm⁻¹)
eigval :       -0.00    -0.00    -0.00    -0.00     0.00     0.00
eigval :       18.83    34.43    36.10    56.79    73.21    83.42
eigval :      102.00   126.44   139.95   144.10   164.65   214.02
eigval :      224.79   234.20   255.87   279.95   298.81   308.34
eigval :      353.79   387.19   393.75   401.22   409.32   415.22
eigval :      423.26   441.48   447.01   452.79   477.78   485.28
eigval :      502.82   520.88   537.37   540.27   550.81   578.26
eigval :      582.76   592.97   594.23   621.90   634.47   638.33
eigval :      677.02   687.50   690.35   701.56   707.47   714.04
eigval :      738.32   754.19   765.30   769.76   777.68   786.21
eigval :      804.61   817.23   859.58   861.66   876.86   878.88
eigval :      879.80   893.62   897.48   900.51   902.52   910.33
eigval :      911.32   912.29   919.86   926.70   927.11   927.87
eigval :      948.06   967.42  1008.86  1052.33  1066.17  1073.83
eigval :     1078.60  1079.87  1088.47  1123.17  1133.86  1143.61
eigval :     1145.52  1158.28  1171.29  1175.40  1178.38  1179.89
eigval :     1186.67  1200.48  1210.21  1214.06  1236.09  1242.34
eigval :     1261.21  1262.23  1265.24  1286.32  1286.92  1303.32
eigval :     1325.40  1327.62  1343.55  1364.05  1366.94  1392.30
eigval :     1406.48  1425.96  1429.22  1431.99  1446.80  1451.04
eigval :     1462.55  1469.56  1472.50  1489.20  1572.59  1585.55
eigval :     1585.95  1588.05  1596.67  1600.51  1602.50  1604.39
eigval :     1604.79  1613.87  3071.52  3072.20  3072.69  3073.47
eigval :     3076.30  3077.18  3077.53  3079.31  3079.87  3082.90
eigval :     3084.83  3089.78  3090.58  3091.37  3091.77  3092.38
eigval :     3121.41  3129.41  3489.15

   temp. (K)  partition function   enthalpy   heat capacity  entropy
                                   cal/mol     cal/K/mol   cal/K/mol   J/K/mol
 298.15  VIB  0.239E+09            12729.451     88.421     75.516
         ROT  0.179E+08              888.752      2.981     36.167
         INT  0.427E+16            13618.203     91.402    111.682
         TR   0.790E+28             1481.254      4.968     43.871
         TOT                       15099.4570    96.3703   155.5534   650.8355

       T/K    H(0)-H(T)+PV         H(T)/Eh          T*S/Eh         G(T)/Eh
   ------------------------------------------------------------------------
    298.15    0.240625E-01    0.415653E+00    0.739084E-01    0.341745E+00
   ------------------------------------------------------------------------

         :::::::::::::::::::::::::::::::::::::::::::::::::::::
         ::                  THERMODYNAMIC                  ::
         :::::::::::::::::::::::::::::::::::::::::::::::::::::
         :: total free energy         -78.702542860250 Eh   ::
         ::.................................................::
         :: total energy              -79.044287778864 Eh   ::
         :: zero point energy           0.391590845316 Eh   ::
         :: G(RRHO) w/o ZPVE           -0.049845926702 Eh   ::
         :: G(RRHO) contrib.            0.341744918613 Eh   ::
         :::::::::::::::::::::::::::::::::::::::::::::::::::::

           -------------------------------------------------
          | TOTAL ENERGY              -79.044287778864 Eh   |
          | TOTAL ENTHALPY            -78.628634417156 Eh   |
          | TOTAL FREE ENERGY         -78.702542860250 Eh   |
          | GRADIENT NORM               0.000104414896 Eh/α |
          | HOMO-LUMO GAP               2.810608932418 eV   |
           -------------------------------------------------

 * finished run on 2025/08/21 at 13:28:36.663
