   * xtb version 6.7.1 (edcfbbe) compiled by 'albert@albert-system' on 2024-07-22

   ID    Z sym.   atoms
    1    6 C      1-40
    2    1 H      41-66

          program call               : xtb data2507/toluene/diarylbiindole/diarylbiindole_toluene_S0_finalOpt.xtbopt.xyz --gfn 2 --uhf 2 --gbsa toluene --ohess vtight --parallel 40 --molden --ceasefiles --namespace data2507/toluene/diarylbiindole/diarylbiindole_toluene_T1_preOpt
      * Solvation model:               GBSA
        Solvent                        toluene
        Solvent mass                       9.2140E+01 g/mol
          :  Hamiltonian                  GFN2-xTB          :
 * total energy  :   -98.8828877 Eh     change       -0.4405578E-08 Eh
 * total energy  :   -98.8891125 Eh     change       -0.6224762E-02 Eh
 * total energy  :   -98.8906037 Eh     change       -0.1491162E-02 Eh
 * total energy  :   -98.8906952 Eh     change       -0.9158999E-04 Eh
 * total energy  :   -98.8907946 Eh     change       -0.9939397E-04 Eh
 * total energy  :   -98.8908714 Eh     change       -0.7676433E-04 Eh
 * total energy  :   -98.8909728 Eh     change       -0.1014435E-03 Eh
 * total energy  :   -98.8910760 Eh     change       -0.1031478E-03 Eh
 * total energy  :   -98.8911426 Eh     change       -0.6662470E-04 Eh
 * total energy  :   -98.8911891 Eh     change       -0.4643569E-04 Eh
 * total energy  :   -98.8916056 Eh     change       -0.1065311E-05 Eh
 * total energy  :   -98.8916065 Eh     change       -0.9421585E-06 Eh
 * total energy  :   -98.8916073 Eh     change       -0.7808277E-06 Eh
 * total energy  :   -98.8916079 Eh     change       -0.5934446E-06 Eh
 * total energy  :   -98.8916083 Eh     change       -0.4465784E-06 Eh
 * total energy  :   -98.8916087 Eh     change       -0.4021272E-06 Eh
 * total energy  :   -98.8916091 Eh     change       -0.4072289E-06 Eh
 * total energy  :   -98.8916096 Eh     change       -0.4584689E-06 Eh
 * total energy  :   -98.8916096 Eh     change       -0.2415959E-08 Eh
   *** GEOMETRY OPTIMIZATION CONVERGED AFTER 68 ITERATIONS ***

 final structure:
================
66
 xtb: 6.7.1 (edcfbbe)
C           -3.47726148851714       -4.04494593894850       -0.02687890575739
C           -2.76197346591541       -3.70927190640098        1.11063620857190
C           -1.99438418548445       -2.55924276116055        1.13548262862439
C           -1.93824929214541       -1.72676282626587        0.02281749242949
C           -1.13711982836611       -0.47952512633518        0.04406997369079
C           -1.80168450039542        0.73799062187565       -0.03235651291381
C           -3.25950007197684        0.79073357020232       -0.20256496552322
C           -3.81116942286489        1.46852145779010       -1.29093608317234
C           -5.17987546717793        1.50678410825740       -1.47686477021122
C           -6.02404695020897        0.88205822112066       -0.57252859411331
C           -5.48806341154718        0.22000060211232        0.52022204490926
C           -4.11921434199218        0.17126220825802        0.70364492879194
C           -1.06204030710666        1.96798997899976        0.12156096853595
C           -1.70577909165811        3.19756814680193        0.26540468688536
C           -0.98716191878465        4.37441444241459        0.41882743268472
C            0.41008716690121        4.36432349294004        0.41676009562046
C            1.17581213632084        5.55743761238020        0.55504791404586
C            2.55676790679206        5.51377841065512        0.56141840910686
C            3.22629091080253        4.31635544947146        0.41860010420645
C            2.50499579884375        3.09514836101443        0.26523480298948
C            3.14441497327933        1.88106713286738        0.05159853722027
C            2.43179620904687        0.67621072452857       -0.09610335549298
C            3.20056653497622       -0.49188095469888       -0.54108041624908
C            2.80200979467479       -1.19794870298816       -1.67609917766249
C            3.56736896947832       -2.23934185208419       -2.16140993165465
C            4.74368156707671       -2.59830712440216       -1.52238848514085
C            5.15307864464031       -1.90015004676360       -0.39859390622178
C            4.39516402406665       -0.84935358295699        0.08208753749806
C            1.03593703870724        0.67348758051815        0.06989030797523
C            0.25855087361430       -0.54023028803726        0.15841891400424
C            0.90826227740310       -1.80769976470702        0.49194355738002
C            1.73520994246815       -1.87281809712330        1.61663537052060
C            2.31099179535997       -3.06584503014817        2.00208181331872
C            2.08464274937100       -4.21993370904378        1.26798983455618
C            1.27626814603590       -4.16656122673342        0.14440507564170
C            0.68797599714922       -2.97723163285542       -0.23770044936400
C            0.35544190633309        1.91937320539419        0.16346251284529
C            1.08502112816605        3.12583479709682        0.27971751096093
C           -2.66355976124046       -2.06790069387179       -1.11366270054810
C           -3.42588679044380       -3.22153932369187       -1.13901300790606
H           -4.07480335859104       -4.94485661560922       -0.04570072381200
H           -2.80082899561025       -4.34641845575996        1.98258754465910
H           -1.43961016356984       -2.29718563672407        2.02543555706732
H           -3.15378333833960        1.94819843977207       -2.00286308579722
H           -5.59083530239974        2.02564164988618       -2.33131275400744
H           -7.09405701418760        0.91434281087353       -0.71724922034784
H           -6.14057992763674       -0.26073566905269        1.23498164629815
H           -3.70782110427320       -0.33434616536719        1.56461357452960
H           -2.78463235041873        3.23397586903006        0.26829934867243
H           -1.51084839483466        5.31155932185919        0.54038051150259
H            0.65436174935109        6.49781719421758        0.65268404405254
H            3.11886967357170        6.43057214198815        0.67238332583775
H            4.30539538610061        4.28362379730124        0.41266712376664
H            4.22056835789432        1.85973521366720       -0.04230159760203
H            1.89320549292950       -0.90873392603046       -2.18474476811800
H            3.24841507673090       -2.77301516649928       -3.04527814379329
H            5.33959226961839       -3.41568802888935       -1.90124651992876
H            6.06935431488098       -2.17495282329328        0.10435653634461
H            4.71506188626131       -0.31443042700928        0.96502389743068
H            1.90316179515548       -0.97760075984655        2.19924780124394
H            2.93777656356763       -3.09891908492142        2.88190851575111
H            2.53789167119380       -5.15304850161700        1.56897001179256
H            1.10237144748879       -5.05922891811162       -0.43932759576205
H            0.07463431731028       -2.94432394351076       -1.12547500493035
H           -2.62250849002379       -1.42652197032309       -1.98288904744368
H           -3.98279988176095       -3.47720155143408       -2.02913661963690

          :  Hamiltonian                  GFN2-xTB          :
         :: gradient norm              0.000047732016 Eh/a0 ::
         :: HOMO-LUMO gap              1.146298603263 eV    ::
         :: SCC energy              -100.832730834013 Eh    ::
         :: -> dispersion             -0.105344597391 Eh    ::
         :: -> Gsolv                  -0.036227112000 Eh    ::
         :: repulsion energy           1.941121241492 Eh    ::

    * Orbital Energies and Occupations

         #    Occupation            Energy/Eh            Energy/eV
      -------------------------------------------------------------
         1        2.0000           -0.6561074             -17.8536
       ...           ...                  ...                  ...
        82        2.0000           -0.4088119             -11.1243
        83        2.0000           -0.4074247             -11.0866
        84        2.0000           -0.4061897             -11.0530
        85        2.0000           -0.4045521             -11.0084
        86        2.0000           -0.4028726             -10.9627
        87        2.0000           -0.4004324             -10.8963
        88        2.0000           -0.3969653             -10.8020
        89        2.0000           -0.3949576             -10.7473
        90        2.0000           -0.3931403             -10.6979
        91        2.0000           -0.3812284             -10.3738
        92        2.0000           -0.3795261             -10.3274
        93        1.0000           -0.3527201              -9.5980
        94        1.0000           -0.2870056              -7.8098 (HOMO)
        95                         -0.2448799              -6.6635 (LUMO)
        96                         -0.2372940              -6.4571
        97                         -0.2278177              -6.1992
        98                         -0.2248526              -6.1186
        99                         -0.2230246              -6.0688
       100                         -0.2226433              -6.0584
       101                         -0.2192954              -5.9673
       102                         -0.2178692              -5.9285
       103                         -0.2145082              -5.8371
       104                         -0.2090481              -5.6885
       105                         -0.1944742              -5.2919
       ...                                ...                  ...
       186                          0.7258160              19.7505
      -------------------------------------------------------------
                  HL-Gap            0.0421257 Eh            1.1463 eV

     #   Z          covCN         q      C6AA      α(0)
     1   6 C        2.920    -0.032    28.807     8.801
     2   6 C        2.919    -0.030    28.756     8.794
     3   6 C        2.924    -0.031    28.772     8.796
     4   6 C        2.979     0.016    27.656     8.626
     5   6 C        2.973     0.001    28.007     8.681
     6   6 C        2.976    -0.008    28.202     8.711
     7   6 C        2.975     0.015    27.669     8.628
     8   6 C        2.925    -0.032    28.806     8.802
     9   6 C        2.918    -0.031    28.776     8.797
    10   6 C        2.920    -0.032    28.809     8.802
    11   6 C        2.918    -0.030    28.751     8.793
    12   6 C        2.924    -0.032    28.810     8.802
    13   6 C        2.978     0.005    27.904     8.665
    14   6 C        2.916    -0.038    28.957     8.824
    15   6 C        2.916    -0.040    28.984     8.828
    16   6 C        2.977     0.010    27.781     8.646
    17   6 C        2.917    -0.040    28.983     8.828
    18   6 C        2.906    -0.029    28.716     8.787
    19   6 C        2.917    -0.040    28.992     8.830
    20   6 C        2.974     0.010    27.788     8.647
    21   6 C        2.926    -0.044    29.094     8.846
    22   6 C        2.971     0.003    27.947     8.671
    23   6 C        2.979     0.013    27.712     8.635
    24   6 C        2.925    -0.031    28.779     8.798
    25   6 C        2.918    -0.030    28.760     8.794
    26   6 C        2.920    -0.033    28.824     8.804
    27   6 C        2.918    -0.031    28.770     8.796
    28   6 C        2.924    -0.035    28.868     8.811
    29   6 C        2.976     0.001    28.003     8.680
    30   6 C        2.974    -0.004    28.117     8.698
    31   6 C        2.975     0.016    27.647     8.625
    32   6 C        2.926    -0.032    28.797     8.800
    33   6 C        2.918    -0.031    28.774     8.796
    34   6 C        2.920    -0.033    28.827     8.805
    35   6 C        2.918    -0.030    28.757     8.794
    36   6 C        2.923    -0.032    28.799     8.800
    37   6 C        2.991    -0.001    28.035     8.685
    38   6 C        2.997     0.000    28.011     8.682
    39   6 C        2.925    -0.032    28.809     8.802
    40   6 C        2.919    -0.031    28.765     8.795
    41   1 H        0.926     0.031     2.574     2.509
    42   1 H        0.926     0.030     2.583     2.513
    43   1 H        0.926     0.025     2.662     2.551
    44   1 H        0.925     0.031     2.575     2.509
    45   1 H        0.926     0.032     2.562     2.503
    46   1 H        0.926     0.031     2.575     2.510
    47   1 H        0.926     0.030     2.584     2.514
    48   1 H        0.926     0.028     2.622     2.532
    49   1 H        0.926     0.033     2.540     2.492
    50   1 H        0.926     0.032     2.560     2.502
    51   1 H        0.926     0.032     2.552     2.498
    52   1 H        0.926     0.031     2.565     2.505
    53   1 H        0.926     0.033     2.550     2.497
    54   1 H        0.926     0.035     2.515     2.480
    55   1 H        0.926     0.028     2.621     2.532
    56   1 H        0.926     0.030     2.584     2.514
    57   1 H        0.926     0.030     2.583     2.513
    58   1 H        0.926     0.031     2.570     2.507
    59   1 H        0.926     0.032     2.563     2.504
    60   1 H        0.925     0.027     2.628     2.535
    61   1 H        0.926     0.031     2.579     2.511
    62   1 H        0.926     0.030     2.586     2.515
    63   1 H        0.926     0.029     2.594     2.519
    64   1 H        0.926     0.028     2.617     2.530
    65   1 H        0.926     0.026     2.642     2.542
    66   1 H        0.926     0.030     2.580     2.512

molecular dipole:
                 x           y           z       tot (Debye)
 q only:       -0.004       0.008      -0.019
   full:       -0.018      -0.017      -0.016       0.076

 projected vibrational frequencies (cm⁻¹)
eigval :       -0.00    -0.00     0.00     0.00     0.00     0.00
eigval :       15.85    23.69    30.73    44.33    48.62    51.61
eigval :       54.75    64.48    72.00    73.89    80.14    94.77
eigval :      111.92   129.81   175.28   181.41   192.40   203.56
eigval :      205.59   216.44   221.02   244.43   251.27   257.58
eigval :      276.57   286.29   308.18   350.53   372.01   372.42
eigval :      373.33   378.98   383.05   424.04   438.52   447.68
eigval :      459.57   469.98   484.96   492.06   504.53   507.14
eigval :      544.31   547.42   554.80   564.60   582.79   587.32
eigval :      587.93   591.68   596.64   611.95   621.97   624.49
eigval :      640.94   649.90   665.08   667.52   670.53   672.14
eigval :      689.05   719.37   725.04   742.43   745.22   752.54
eigval :      757.70   759.22   788.25   791.89   800.13   817.55
eigval :      827.23   831.97   856.01   872.67   874.03   877.13
eigval :      880.30   882.00   897.29   897.76   900.94   901.96
eigval :      903.23   908.61   926.54   927.53   927.62   928.51
eigval :      928.80   929.36   929.75   932.85   954.36   971.14
eigval :      983.53   990.94  1023.91  1032.23  1082.01  1082.15
eigval :     1083.12  1084.12  1112.68  1117.47  1118.47  1119.40
eigval :     1120.46  1123.71  1145.58  1156.57  1173.02  1179.44
eigval :     1179.89  1181.21  1182.01  1185.36  1195.33  1196.83
eigval :     1200.10  1201.04  1208.21  1216.47  1248.68  1265.45
eigval :     1269.90  1274.84  1279.97  1282.08  1284.39  1288.59
eigval :     1310.64  1314.59  1315.96  1317.82  1320.93  1326.41
eigval :     1345.10  1368.69  1379.06  1392.35  1401.89  1417.44
eigval :     1422.88  1426.40  1430.61  1435.46  1441.41  1464.84
eigval :     1470.55  1472.76  1485.74  1488.43  1490.58  1498.08
eigval :     1513.91  1561.78  1565.42  1568.60  1572.33  1582.31
eigval :     1585.87  1589.01  1591.95  1600.43  3063.41  3064.14
eigval :     3064.63  3065.40  3065.76  3065.81  3066.75  3068.38
eigval :     3068.87  3073.28  3073.63  3074.23  3074.39  3074.59
eigval :     3076.55  3077.59  3077.90  3081.94  3083.44  3084.33
eigval :     3087.61  3088.00  3088.48  3090.67  3092.42  3093.27

   temp. (K)  partition function   enthalpy   heat capacity  entropy
                                   cal/mol     cal/K/mol   cal/K/mol   J/K/mol
 298.15  VIB  0.811E+13            17833.550    116.676    109.654
         ROT  0.327E+08              888.752      2.981     37.368
         INT  0.265E+21            18722.302    119.657    147.021
         TR   0.110E+29             1481.254      4.968     44.534
         TOT                       20203.5562   124.6248   191.5558   801.4697

       T/K    H(0)-H(T)+PV         H(T)/Eh          T*S/Eh         G(T)/Eh
   ------------------------------------------------------------------------
    298.15    0.321964E-01    0.541226E+00    0.910144E-01    0.450212E+00
   ------------------------------------------------------------------------

         :::::::::::::::::::::::::::::::::::::::::::::::::::::
         ::                  THERMODYNAMIC                  ::
         :::::::::::::::::::::::::::::::::::::::::::::::::::::
         :: total free energy         -98.441397865436 Eh   ::
         ::.................................................::
         :: total energy              -98.891609595798 Eh   ::
         :: zero point energy           0.509029678091 Eh   ::
         :: G(RRHO) w/o ZPVE           -0.058817947729 Eh   ::
         :: G(RRHO) contrib.            0.450211730361 Eh   ::
         :::::::::::::::::::::::::::::::::::::::::::::::::::::

           -------------------------------------------------
          | TOTAL ENERGY              -98.891609595798 Eh   |
          | TOTAL ENTHALPY            -98.350383501528 Eh   |
          | TOTAL FREE ENERGY         -98.441397865436 Eh   |
          | GRADIENT NORM               0.000047733498 Eh/α |
          | HOMO-LUMO GAP               1.146298556339 eV   |
           -------------------------------------------------

 * finished run on 2025/08/29 at 14:34:28.248
