   * xtb version 6.7.1 (edcfbbe) compiled by 'albert@albert-system' on 2024-07-22

   ID    Z sym.   atoms
    1    6 C      1-40
    2    1 H      41-66

          program call               : xtb data2507/toluene/diarylbiindole/diarylbiindole_toluene_T1_crest.xyz --gfn 2 --uhf 2 --gbsa toluene --ohess vtight --parallel 40 --molden --ceasefiles --namespace data2507/toluene/diarylbiindole/diarylbiindole_toluene_T1_finalOpt
      * Solvation model:               GBSA
        Solvent                        toluene
        Solvent mass                       9.2140E+01 g/mol
          :  Hamiltonian                  GFN2-xTB          :
 * total energy  :   -98.8914950 Eh     change       -0.3648069E-08 Eh
 * total energy  :   -98.8915397 Eh     change       -0.4474275E-04 Eh
 * total energy  :   -98.8915649 Eh     change       -0.2521760E-04 Eh
 * total energy  :   -98.8915940 Eh     change       -0.2907566E-04 Eh
 * total energy  :   -98.8916211 Eh     change       -0.2712655E-04 Eh
 * total energy  :   -98.8916342 Eh     change       -0.1301988E-04 Eh
 * total energy  :   -98.8916372 Eh     change       -0.3004351E-05 Eh
 * total energy  :   -98.8916392 Eh     change       -0.2021533E-05 Eh
 * total energy  :   -98.8916417 Eh     change       -0.2560044E-05 Eh
 * total energy  :   -98.8916446 Eh     change       -0.2823622E-05 Eh
 * total energy  :   -98.8916467 Eh     change       -0.1101580E-06 Eh
 * total energy  :   -98.8916477 Eh     change       -0.9973552E-06 Eh
 * total energy  :   -98.8916485 Eh     change       -0.8274452E-06 Eh
 * total energy  :   -98.8916490 Eh     change       -0.5058153E-06 Eh
 * total energy  :   -98.8916494 Eh     change       -0.3555896E-06 Eh
 * total energy  :   -98.8916497 Eh     change       -0.3324796E-06 Eh
 * total energy  :   -98.8916500 Eh     change       -0.2403664E-06 Eh
 * total energy  :   -98.8916501 Eh     change       -0.1493093E-06 Eh
 * total energy  :   -98.8916502 Eh     change       -0.9691155E-07 Eh
   *** GEOMETRY OPTIMIZATION CONVERGED AFTER 20 ITERATIONS ***

 final structure:
================
66
 xtb: 6.7.1 (edcfbbe)
C           -3.59000858214954       -3.93772981425392       -0.16391612537883
C           -3.54169348038557       -3.15197347014731        0.97528131410491
C           -2.74677420767128       -2.02060076024793        1.00492445158007
C           -1.98557914801056       -1.66472662292766       -0.10310081124546
C           -1.14879933604662       -0.44146867132827       -0.07089194657550
C           -1.77824770685941        0.79347048386899        0.02522346826256
C           -3.23491290412157        0.88740297555839        0.18584346589150
C           -4.10843075228659        0.31230948431347       -0.73623912636803
C           -5.47614197014476        0.39967500586743       -0.55812990132069
C           -5.99737631137783        1.05621578449463        0.54501815463702
C           -5.13920977784210        1.63673291758830        1.46556279954052
C           -3.77146426298428        1.56056796912469        1.28481210820063
C           -1.00047195027974        2.00359548295958       -0.09479614707151
C           -1.60531210957039        3.25429459606765       -0.22514612323001
C           -0.84978517353988        4.41131341119042       -0.34970235136395
C            0.54650207955236        4.35934997153316       -0.33009856947607
C            1.34954106104632        5.53051233982441       -0.44127604048333
C            2.72851651461754        5.44519955292003       -0.42820301014040
C            3.35986441794214        4.22639397414557       -0.29208550516775
C            2.60030327005750        3.02540395262519       -0.16691926689077
C            3.19953852588229        1.78989716849919        0.04103501772702
C            2.44861421080336        0.60521134665562        0.15985246419220
C            3.16949572692142       -0.59123325089162        0.60871329462059
C            4.37027840394402       -0.97753816291889        0.01531124634187
C            5.08167102750081       -2.05697361912742        0.50362794908661
C            4.61878709071166       -2.75627003496559        1.60578363884435
C            3.43544724453884       -2.36975642656265        2.21516502569817
C            2.71659223695930       -1.29943999872180        1.72201904491071
C            1.05685484128211        0.64705351383969       -0.03344479171510
C            0.24624289607609       -0.54094102634938       -0.16142280981648
C            0.86667174786877       -1.81947870403621       -0.50823066893583
C            0.59652634121787       -2.99685554553327        0.19139076208195
C            1.16057849097706       -4.19436695353084       -0.20156685499929
C            1.99339690600271       -4.24783062799339       -1.30712741946264
C            2.26902508060021       -3.08605056906907       -2.01163170069507
C            1.71798537699378       -1.88515671628180       -1.61457966485735
C            0.41530205592224        1.91383426863473       -0.11730310845136
C            1.18224454616715        3.09934738959716       -0.20291085637558
C           -2.03887813640193       -2.45939534405859       -1.24332312066446
C           -2.83837788997517       -3.58728213067852       -1.27319265815553
H           -4.21257687994968       -4.82039584924753       -0.18771705055656
H           -4.12649641047696       -3.41966788141824        1.84372443565706
H           -2.70822108182090       -1.40868965235174        1.89523060484943
H           -3.70862026057799       -0.18899583171094       -1.60511969667005
H           -6.13932808120838       -0.04673667203540       -1.28522635188424
H           -7.06664607013782        1.11810480063215        0.68563070676740
H           -5.53839481691166        2.15049107230400        2.32865798090011
H           -3.10341220921525        2.00589564016181        2.00901184718530
H           -2.68248817248955        3.32305509245411       -0.24118772863075
H           -1.34366838181566        5.36559196354066       -0.46250702197856
H            0.85815600520328        6.48747433859033       -0.53339116557396
H            3.31942535497732        6.34602957962189       -0.51838918694797
H            4.43729859790944        4.16143487438680       -0.27039316254355
H            4.27269473281516        1.73536328832525        0.15375061502155
H            4.73176750548878       -0.44207945647358       -0.85106066929334
H            6.00349052356206       -2.35352846601012        0.02370063632376
H            5.17856716680448       -3.59599660741224        1.99081403894229
H            3.07462408985183       -2.90442152661222        3.08217936847534
H            1.80235791060222       -0.98898183212633        2.20792602573659
H           -0.03678687021427       -2.96464626466660        1.06503806010463
H            0.94838293217869       -5.09329019994482        0.35943641984692
H            2.42765821515357       -5.18703157778643       -1.61690479360787
H            2.91517860877560       -3.11934010341648       -2.87733554654149
H            1.92465299200991       -0.98337182152774       -2.17421223970150
H           -1.45613815441701       -2.18496014023768       -2.11139417405894
H           -2.87428734653671       -4.19511686932241       -2.16597302820087

          :  Hamiltonian                  GFN2-xTB          :
         :: gradient norm              0.000039563065 Eh/a0 ::
         :: HOMO-LUMO gap              1.144528942312 eV    ::
         :: SCC energy              -100.832785676043 Eh    ::
         :: -> dispersion             -0.105324284141 Eh    ::
         :: -> Gsolv                  -0.036261689536 Eh    ::
         :: repulsion energy           1.941135478131 Eh    ::

    * Orbital Energies and Occupations

         #    Occupation            Energy/Eh            Energy/eV
      -------------------------------------------------------------
         1        2.0000           -0.6561419             -17.8545
       ...           ...                  ...                  ...
        82        2.0000           -0.4088046             -11.1241
        83        2.0000           -0.4073998             -11.0859
        84        2.0000           -0.4061739             -11.0526
        85        2.0000           -0.4046344             -11.0107
        86        2.0000           -0.4028743             -10.9628
        87        2.0000           -0.4004369             -10.8964
        88        2.0000           -0.3969892             -10.8026
        89        2.0000           -0.3949407             -10.7469
        90        2.0000           -0.3931274             -10.6975
        91        2.0000           -0.3812033             -10.3731
        92        2.0000           -0.3795070             -10.3269
        93        1.0000           -0.3526971              -9.5974
        94        1.0000           -0.2870266              -7.8104 (HOMO)
        95                         -0.2449660              -6.6659 (LUMO)
        96                         -0.2374042              -6.4601
        97                         -0.2278223              -6.1994
        98                         -0.2248214              -6.1177
        99                         -0.2230818              -6.0704
       100                         -0.2225729              -6.0565
       101                         -0.2193307              -5.9683
       102                         -0.2178906              -5.9291
       103                         -0.2144874              -5.8365
       104                         -0.2090216              -5.6878
       105                         -0.1944346              -5.2908
       ...                                ...                  ...
       186                          0.7258226              19.7506
      -------------------------------------------------------------
                  HL-Gap            0.0420607 Eh            1.1445 eV

     #   Z          covCN         q      C6AA      α(0)
     1   6 C        2.920    -0.032    28.807     8.801
     2   6 C        2.919    -0.031    28.765     8.795
     3   6 C        2.925    -0.032    28.807     8.802
     4   6 C        2.979     0.016    27.655     8.626
     5   6 C        2.973     0.001    28.008     8.681
     6   6 C        2.976    -0.007    28.201     8.711
     7   6 C        2.975     0.015    27.669     8.628
     8   6 C        2.924    -0.032    28.809     8.802
     9   6 C        2.918    -0.030    28.751     8.793
    10   6 C        2.919    -0.032    28.809     8.802
    11   6 C        2.918    -0.031    28.776     8.797
    12   6 C        2.925    -0.032    28.806     8.802
    13   6 C        2.978     0.005    27.904     8.665
    14   6 C        2.916    -0.038    28.956     8.824
    15   6 C        2.916    -0.040    28.984     8.828
    16   6 C        2.977     0.010    27.781     8.646
    17   6 C        2.917    -0.040    28.983     8.828
    18   6 C        2.906    -0.029    28.717     8.787
    19   6 C        2.917    -0.040    28.992     8.830
    20   6 C        2.974     0.010    27.788     8.647
    21   6 C        2.926    -0.044    29.095     8.846
    22   6 C        2.971     0.003    27.946     8.671
    23   6 C        2.978     0.013    27.712     8.635
    24   6 C        2.924    -0.035    28.868     8.811
    25   6 C        2.918    -0.031    28.770     8.796
    26   6 C        2.920    -0.033    28.823     8.804
    27   6 C        2.918    -0.030    28.759     8.794
    28   6 C        2.926    -0.031    28.779     8.798
    29   6 C        2.977     0.001    28.003     8.680
    30   6 C        2.974    -0.004    28.118     8.698
    31   6 C        2.975     0.016    27.648     8.625
    32   6 C        2.923    -0.032    28.800     8.801
    33   6 C        2.918    -0.030    28.757     8.794
    34   6 C        2.920    -0.033    28.827     8.805
    35   6 C        2.918    -0.031    28.775     8.796
    36   6 C        2.926    -0.032    28.797     8.800
    37   6 C        2.991    -0.001    28.035     8.685
    38   6 C        2.998     0.000    28.012     8.682
    39   6 C        2.924    -0.031    28.774     8.797
    40   6 C        2.919    -0.030    28.756     8.794
    41   1 H        0.926     0.031     2.574     2.509
    42   1 H        0.926     0.030     2.581     2.512
    43   1 H        0.926     0.026     2.643     2.542
    44   1 H        0.926     0.028     2.622     2.532
    45   1 H        0.926     0.030     2.585     2.514
    46   1 H        0.926     0.031     2.575     2.510
    47   1 H        0.926     0.032     2.562     2.503
    48   1 H        0.925     0.031     2.575     2.510
    49   1 H        0.926     0.033     2.541     2.493
    50   1 H        0.926     0.032     2.560     2.502
    51   1 H        0.926     0.032     2.552     2.498
    52   1 H        0.926     0.031     2.566     2.505
    53   1 H        0.926     0.033     2.550     2.497
    54   1 H        0.926     0.035     2.514     2.479
    55   1 H        0.926     0.032     2.562     2.503
    56   1 H        0.926     0.031     2.570     2.507
    57   1 H        0.926     0.030     2.583     2.513
    58   1 H        0.926     0.030     2.584     2.514
    59   1 H        0.926     0.028     2.620     2.531
    60   1 H        0.926     0.028     2.617     2.530
    61   1 H        0.926     0.029     2.595     2.519
    62   1 H        0.926     0.030     2.586     2.515
    63   1 H        0.926     0.031     2.579     2.511
    64   1 H        0.925     0.027     2.628     2.535
    65   1 H        0.926     0.025     2.662     2.551
    66   1 H        0.926     0.030     2.584     2.514

molecular dipole:
                 x           y           z       tot (Debye)
 q only:       -0.001       0.008       0.020
   full:       -0.016      -0.017       0.017       0.074

 projected vibrational frequencies (cm⁻¹)
eigval :       -0.00    -0.00    -0.00     0.00     0.00     0.00
eigval :       19.01    22.75    34.85    45.55    49.71    51.94
eigval :       53.68    64.46    69.37    74.55    81.14    95.18
eigval :      113.11   130.55   176.14   182.06   193.62   204.11
eigval :      206.17   216.78   221.32   245.14   253.18   257.75
eigval :      276.57   286.84   309.04   350.29   373.74   374.48
eigval :      375.24   378.49   382.93   424.00   438.68   447.94
eigval :      460.13   470.20   484.64   492.22   504.64   506.75
eigval :      544.70   548.73   555.67   566.08   582.72   587.35
eigval :      588.36   592.13   596.50   612.34   622.08   625.26
eigval :      641.15   652.45   665.27   668.11   670.94   672.70
eigval :      690.93   719.85   725.85   743.01   747.24   751.84
eigval :      757.35   759.54   788.38   792.47   800.20   818.42
eigval :      827.27   833.20   856.15   873.35   874.64   877.11
eigval :      879.25   881.63   896.80   898.20   901.00   902.49
eigval :      904.29   908.85   926.19   927.55   929.04   929.13
eigval :      929.65   930.22   930.73   931.69   954.51   971.29
eigval :      983.57   990.98  1024.00  1032.25  1082.35  1082.54
eigval :     1083.19  1083.93  1112.42  1118.54  1119.19  1119.93
eigval :     1120.55  1123.97  1145.13  1155.25  1173.23  1179.44
eigval :     1180.08  1180.25  1181.82  1185.46  1197.02  1198.34
eigval :     1200.32  1201.41  1208.78  1215.43  1248.83  1265.34
eigval :     1269.92  1275.08  1280.77  1282.16  1284.81  1289.01
eigval :     1310.54  1314.69  1316.14  1317.94  1321.12  1326.51
eigval :     1345.17  1369.06  1379.23  1392.64  1402.15  1417.57
eigval :     1423.04  1426.48  1430.70  1435.71  1441.47  1465.06
eigval :     1470.68  1472.94  1485.84  1488.49  1490.54  1498.07
eigval :     1514.18  1561.82  1565.50  1568.65  1572.07  1582.17
eigval :     1585.95  1589.07  1591.94  1600.51  3063.23  3064.27
eigval :     3064.86  3065.06  3066.04  3066.76  3067.05  3068.42
eigval :     3068.68  3072.90  3073.31  3073.73  3074.36  3074.96
eigval :     3077.02  3077.04  3078.55  3081.99  3083.66  3084.72
eigval :     3087.32  3088.05  3088.58  3091.06  3092.61  3093.81

   temp. (K)  partition function   enthalpy   heat capacity  entropy
                                   cal/mol     cal/K/mol   cal/K/mol   J/K/mol
 298.15  VIB  0.590E+13            17803.460    116.694    109.344
         ROT  0.327E+08              888.752      2.981     37.367
         INT  0.193E+21            18692.213    119.675    146.711
         TR   0.110E+29             1481.254      4.968     44.534
         TOT                       20173.4666   124.6430   191.2458   800.1726

       T/K    H(0)-H(T)+PV         H(T)/Eh          T*S/Eh         G(T)/Eh
   ------------------------------------------------------------------------
    298.15    0.321485E-01    0.541314E+00    0.908671E-01    0.450447E+00
   ------------------------------------------------------------------------

         :::::::::::::::::::::::::::::::::::::::::::::::::::::
         ::                  THERMODYNAMIC                  ::
         :::::::::::::::::::::::::::::::::::::::::::::::::::::
         :: total free energy         -98.441203405334 Eh   ::
         ::.................................................::
         :: total energy              -98.891650193962 Eh   ::
         :: zero point energy           0.509165392239 Eh   ::
         :: G(RRHO) w/o ZPVE           -0.058718603611 Eh   ::
         :: G(RRHO) contrib.            0.450446788628 Eh   ::
         :::::::::::::::::::::::::::::::::::::::::::::::::::::

           -------------------------------------------------
          | TOTAL ENERGY              -98.891650193962 Eh   |
          | TOTAL ENTHALPY            -98.350336336335 Eh   |
          | TOTAL FREE ENERGY         -98.441203405334 Eh   |
          | GRADIENT NORM               0.000039539448 Eh/α |
          | HOMO-LUMO GAP               1.144529055191 eV   |
           -------------------------------------------------

 * finished run on 2025/08/29 at 14:37:09.457
