   * xtb version 6.7.1 (edcfbbe) compiled by 'albert@albert-system' on 2024-07-22

   ID    Z sym.   atoms
    1    6 C      1-40
    2    1 H      41-66

          program call               : xtb data2507/toluene/diarylbiindole/diarylbiindole_toluene_S0_crest.xyz --gfn 2 --gbsa toluene --ohess vtight --parallel 40 --molden --ceasefiles --namespace data2507/toluene/diarylbiindole/diarylbiindole_toluene_S0_finalOpt
      * Solvation model:               GBSA
        Solvent                        toluene
        Solvent mass                       9.2140E+01 g/mol
          :  Hamiltonian                  GFN2-xTB          :
 * total energy  :   -98.9651037 Eh     change       -0.4594767E-08 Eh
 * total energy  :   -98.9651440 Eh     change       -0.4027539E-04 Eh
 * total energy  :   -98.9651695 Eh     change       -0.2554816E-04 Eh
 * total energy  :   -98.9651966 Eh     change       -0.2704695E-04 Eh
 * total energy  :   -98.9652198 Eh     change       -0.2323629E-04 Eh
 * total energy  :   -98.9652313 Eh     change       -0.1149218E-04 Eh
 * total energy  :   -98.9652341 Eh     change       -0.2761489E-05 Eh
 * total energy  :   -98.9652359 Eh     change       -0.1845819E-05 Eh
 * total energy  :   -98.9652391 Eh     change       -0.3147758E-05 Eh
 * total energy  :   -98.9652429 Eh     change       -0.3878003E-05 Eh
 * total energy  :   -98.9652458 Eh     change       -0.2811268E-05 Eh
 * total energy  :   -98.9652473 Eh     change       -0.1569166E-05 Eh
 * total energy  :   -98.9652485 Eh     change       -0.1159028E-05 Eh
 * total energy  :   -98.9652491 Eh     change       -0.6259137E-06 Eh
 * total energy  :   -98.9652496 Eh     change       -0.5321176E-06 Eh
 * total energy  :   -98.9652501 Eh     change       -0.4157310E-06 Eh
 * total energy  :   -98.9652503 Eh     change       -0.2378646E-06 Eh
 * total energy  :   -98.9652503 Eh     change       -0.3131807E-07 Eh
   *** GEOMETRY OPTIMIZATION CONVERGED AFTER 18 ITERATIONS ***

 final structure:
================
66
 xtb: 6.7.1 (edcfbbe)
C           -3.44898949361685       -4.01162806544802        0.19879282919705
C           -2.67617498093775       -3.63972297568321        1.28604147217573
C           -1.91466909368040       -2.48670553883657        1.23567957540960
C           -1.91985204209231       -1.68838236996554        0.09725728596249
C           -1.12448028043918       -0.43949442902092        0.04697217509394
C           -1.79602576324278        0.77890535814993       -0.04307570067321
C           -3.27128350056375        0.79369138402375       -0.14409940870202
C           -3.88882493079839        1.27286336571475       -1.29579560835471
C           -5.26753501901483        1.26836063055935       -1.40597870830186
C           -6.04629151712927        0.79264365017549       -0.36398726472671
C           -5.43950577471978        0.32411531046437        0.78957305414566
C           -4.06088187478590        0.32241239786365        0.89932512435603
C           -1.07309929086206        1.98013365143311        0.01523824595486
C           -1.73149014843124        3.24503006666181        0.07351993307149
C           -1.03627380660682        4.40119225968372        0.16676545205520
C            0.38721898856803        4.39946959581690        0.21315899166228
C            1.12624637730596        5.57829841981138        0.33279926379694
C            2.50753133255231        5.54518526437589        0.39003684765854
C            3.18207568088710        4.34041039648747        0.32021763880936
C            2.48067392606217        3.13893399582340        0.19836735307983
C            3.14020618311924        1.88960769422567        0.05372468358768
C            2.46454884081094        0.71345526983844       -0.06812140842160
C            3.26150894518325       -0.47712105388208       -0.42408787585914
C            3.01848119483369       -1.13958596055698       -1.62371759360684
C            3.82505043513201       -2.18911518505554       -2.02071302270736
C            4.88581576316581       -2.59198814736125       -1.22673220716447
C            5.14220235500113       -1.93118584509635       -0.03739585342494
C            4.34223267130747       -0.87437349493604        0.35627813432370
C            1.02747911942501        0.69342652973784        0.02823897738339
C            0.27256137958631       -0.49103373965921        0.10475789690748
C            0.89879933419250       -1.80936278795274        0.33268426170157
C            1.62457016148178       -2.02678110105902        1.49987243999546
C            2.15660374074525       -3.27263168710643        1.77383563646542
C            1.97165177246607       -4.31808698140040        0.88531622829617
C            1.25092463253430       -4.11040798341455       -0.27854687551083
C            0.71176959640011       -2.86743983111023       -0.55036307336432
C            0.34363632519757        1.93999178521937        0.05831584929099
C            1.06599524088568        3.15727523397443        0.15094967922741
C           -2.70187392815851       -2.06647167187613       -0.98863173241483
C           -3.45923248980536       -3.22234376600304       -0.93887040065741
H           -4.04244699907219       -4.91357214167990        0.23835825229013
H           -2.66598644725692       -4.25032770901045        2.17761295475778
H           -1.31566580259141       -2.19608859779038        2.08695007998407
H           -3.27920777265532        1.64120151074772       -2.10950094025665
H           -5.73553828655337        1.63763081839222       -2.30740540650650
H           -7.12323102098007        0.78889575980917       -0.45000065576910
H           -6.04264284618750       -0.04393793371014        1.60705321189337
H           -3.58905364383683       -0.04105393340494        1.80068671334525
H           -2.81128284557118        3.25749613421135        0.05560557860171
H           -1.54960298018197        5.35111583982338        0.21806296694442
H            0.60303879165714        6.52263274774502        0.38524604899851
H            3.06320274523642        6.46731576907106        0.48492569117966
H            4.26206122547399        4.31788307854803        0.35562638659865
H            4.21948382174878        1.89093714235155       -0.01734429290098
H            2.19791000704731       -0.81834352793678       -2.24959864320916
H            3.62695888327279       -2.69401628708096       -2.95535167075723
H            5.51308222816479       -3.41511440842585       -1.53657726881118
H            5.97148740295459       -2.23768912157510        0.58408654378065
H            4.54395362223002       -0.35902165937347        1.28469457771432
H            1.76073273134430       -1.21211906326617        2.19779826811171
H            2.71587250278038       -3.42889162357358        2.68520307559169
H            2.38900500732098       -5.29140180144072        1.09865721554663
H            1.10419844541775       -4.92212662439794       -0.97652383944566
H            0.15206662292971       -2.71029561494207       -1.46072469826885
H           -2.70846939275626       -1.45339216821842       -1.87874481507555
H           -4.06025086549506       -3.50716069778837       -1.79063351015505

          :  Hamiltonian                  GFN2-xTB          :
         :: gradient norm              0.000154133240 Eh/a0 ::
         :: HOMO-LUMO gap              2.236905388264 eV    ::
         :: SCC energy              -100.925223845500 Eh    ::
         :: -> dispersion             -0.105847357040 Eh    ::
         :: -> Gsolv                  -0.036101954979 Eh    ::
         :: repulsion energy           1.959973524017 Eh    ::

    * Orbital Energies and Occupations

         #    Occupation            Energy/Eh            Energy/eV
      -------------------------------------------------------------
         1        2.0000           -0.6569224             -17.8758
       ...           ...                  ...                  ...
        81        2.0000           -0.4102297             -11.1629
        82        2.0000           -0.4090365             -11.1304
        83        2.0000           -0.4082343             -11.1086
        84        2.0000           -0.4053410             -11.0299
        85        2.0000           -0.4043265             -11.0023
        86        2.0000           -0.4026971             -10.9579
        87        2.0000           -0.4009155             -10.9095
        88        2.0000           -0.3967984             -10.7974
        89        2.0000           -0.3949181             -10.7463
        90        2.0000           -0.3930948             -10.6967
        91        2.0000           -0.3821550             -10.3990
        92        2.0000           -0.3797109             -10.3325
        93        2.0000           -0.3600062              -9.7963 (HOMO)
        94                         -0.2778015              -7.5594 (LUMO)
        95                         -0.2472361              -6.7276
        96                         -0.2323222              -6.3218
        97                         -0.2273918              -6.1876
        98                         -0.2246617              -6.1134
        99                         -0.2231535              -6.0723
       100                         -0.2217481              -6.0341
       101                         -0.2196924              -5.9781
       102                         -0.2181558              -5.9363
       103                         -0.2131692              -5.8006
       104                         -0.2090230              -5.6878
       ...                                ...                  ...
       186                          0.7269134              19.7803
      -------------------------------------------------------------
                  HL-Gap            0.0822048 Eh            2.2369 eV

     #   Z          covCN         q      C6AA      α(0)
     1   6 C        2.920    -0.032    28.809     8.802
     2   6 C        2.919    -0.031    28.763     8.795
     3   6 C        2.925    -0.032    28.793     8.800
     4   6 C        2.979     0.015    27.679     8.630
     5   6 C        2.983    -0.001    28.052     8.688
     6   6 C        2.980    -0.003    28.083     8.693
     7   6 C        2.977     0.015    27.670     8.628
     8   6 C        2.925    -0.032    28.803     8.801
     9   6 C        2.918    -0.031    28.770     8.796
    10   6 C        2.920    -0.032    28.804     8.801
    11   6 C        2.919    -0.030    28.751     8.793
    12   6 C        2.924    -0.032    28.798     8.800
    13   6 C        2.984     0.003    27.948     8.672
    14   6 C        2.914    -0.036    28.891     8.814
    15   6 C        2.913    -0.038    28.944     8.822
    16   6 C        2.982     0.010    27.782     8.646
    17   6 C        2.920    -0.039    28.973     8.827
    18   6 C        2.913    -0.031    28.780     8.797
    19   6 C        2.920    -0.039    28.968     8.826
    20   6 C        2.980     0.009    27.802     8.649
    21   6 C        2.928    -0.044    29.093     8.846
    22   6 C        2.969     0.005    27.912     8.666
    23   6 C        2.983     0.012    27.730     8.638
    24   6 C        2.926    -0.032    28.786     8.799
    25   6 C        2.919    -0.031    28.763     8.795
    26   6 C        2.920    -0.033    28.828     8.805
    27   6 C        2.919    -0.031    28.772     8.796
    28   6 C        2.925    -0.035    28.870     8.811
    29   6 C        2.979    -0.000    28.025     8.684
    30   6 C        2.977    -0.000    28.028     8.684
    31   6 C        2.979     0.016    27.648     8.625
    32   6 C        2.926    -0.031    28.778     8.797
    33   6 C        2.919    -0.031    28.763     8.795
    34   6 C        2.920    -0.032    28.807     8.802
    35   6 C        2.919    -0.030    28.761     8.794
    36   6 C        2.924    -0.031    28.777     8.797
    37   6 C        2.991    -0.001    28.051     8.688
    38   6 C        2.997     0.000    28.008     8.681
    39   6 C        2.925    -0.032    28.807     8.802
    40   6 C        2.919    -0.031    28.769     8.796
    41   1 H        0.926     0.031     2.573     2.508
    42   1 H        0.926     0.030     2.582     2.513
    43   1 H        0.926     0.026     2.650     2.546
    44   1 H        0.925     0.030     2.584     2.514
    45   1 H        0.926     0.032     2.560     2.502
    46   1 H        0.926     0.031     2.572     2.508
    47   1 H        0.926     0.030     2.581     2.512
    48   1 H        0.926     0.027     2.631     2.537
    49   1 H        0.926     0.033     2.544     2.494
    50   1 H        0.926     0.032     2.564     2.504
    51   1 H        0.926     0.031     2.566     2.505
    52   1 H        0.926     0.031     2.578     2.511
    53   1 H        0.926     0.031     2.568     2.506
    54   1 H        0.925     0.031     2.568     2.506
    55   1 H        0.926     0.027     2.630     2.536
    56   1 H        0.926     0.030     2.587     2.515
    57   1 H        0.926     0.030     2.585     2.514
    58   1 H        0.926     0.031     2.572     2.508
    59   1 H        0.926     0.030     2.579     2.512
    60   1 H        0.925     0.027     2.625     2.534
    61   1 H        0.926     0.031     2.573     2.508
    62   1 H        0.926     0.031     2.578     2.511
    63   1 H        0.926     0.030     2.588     2.516
    64   1 H        0.926     0.027     2.623     2.533
    65   1 H        0.926     0.027     2.628     2.535
    66   1 H        0.926     0.031     2.577     2.510

molecular dipole:
                 x           y           z       tot (Debye)
 q only:       -0.093      -0.058      -0.009
   full:       -0.105      -0.091      -0.004       0.354

 projected vibrational frequencies (cm⁻¹)
eigval :       -0.00    -0.00    -0.00    -0.00     0.00     0.00
eigval :       16.44    23.46    39.68    42.91    47.72    54.59
eigval :       57.67    61.26    64.12    67.82    77.60    95.86
eigval :      107.31   134.40   182.05   192.19   197.63   202.80
eigval :      208.20   214.76   223.01   242.03   253.55   257.74
eigval :      280.13   294.97   314.86   365.91   369.79   371.04
eigval :      371.75   377.08   394.12   441.77   445.63   461.53
eigval :      473.41   479.83   489.55   498.12   508.45   517.54
eigval :      550.11   559.47   572.17   576.17   584.27   589.81
eigval :      592.59   600.80   604.04   613.11   625.39   642.87
eigval :      645.59   667.63   668.74   669.44   673.32   687.54
eigval :      711.99   721.29   743.53   752.81   757.44   761.49
eigval :      763.79   781.04   790.48   801.16   831.47   835.85
eigval :      862.75   869.71   876.34   876.64   877.83   880.32
eigval :      884.96   901.39   901.48   902.22   903.16   905.79
eigval :      919.86   923.86   926.96   927.37   927.46   929.57
eigval :      929.67   930.11   930.49   932.07   963.61   972.59
eigval :      986.66   994.23  1034.02  1037.75  1082.88  1083.66
eigval :     1084.17  1084.78  1114.98  1118.39  1118.67  1120.01
eigval :     1121.05  1122.09  1150.46  1167.30  1178.70  1180.03
eigval :     1180.06  1182.17  1193.81  1195.85  1196.23  1198.43
eigval :     1201.24  1209.44  1214.31  1240.10  1247.52  1273.38
eigval :     1281.04  1282.18  1282.76  1283.37  1303.99  1309.55
eigval :     1312.38  1314.41  1316.21  1317.65  1344.67  1358.65
eigval :     1374.36  1397.62  1398.60  1407.54  1428.87  1429.12
eigval :     1430.26  1431.43  1443.87  1462.68  1474.68  1478.24
eigval :     1486.58  1487.54  1493.49  1519.07  1544.25  1570.43
eigval :     1580.38  1581.44  1582.47  1583.40  1587.77  1599.21
eigval :     1600.52  1601.09  1601.82  1605.10  3062.82  3064.10
eigval :     3064.81  3065.07  3065.29  3066.00  3066.62  3066.90
eigval :     3068.21  3068.66  3068.71  3071.34  3073.02  3073.98
eigval :     3074.28  3074.77  3077.57  3077.87  3080.62  3081.18
eigval :     3081.67  3087.39  3087.43  3087.93  3089.00  3089.72

   temp. (K)  partition function   enthalpy   heat capacity  entropy
                                   cal/mol     cal/K/mol   cal/K/mol   J/K/mol
 298.15  VIB  0.584E+13            17618.340    115.240    108.590
         ROT  0.326E+08              888.752      2.981     37.360
         INT  0.190E+21            18507.092    118.221    145.950
         TR   0.110E+29             1481.254      4.968     44.534
         TOT                       19988.3461   123.1891   190.4847   796.9881

       T/K    H(0)-H(T)+PV         H(T)/Eh          T*S/Eh         G(T)/Eh
   ------------------------------------------------------------------------
    298.15    0.318535E-01    0.544186E+00    0.905054E-01    0.453680E+00
   ------------------------------------------------------------------------

         :::::::::::::::::::::::::::::::::::::::::::::::::::::
         ::                  THERMODYNAMIC                  ::
         :::::::::::::::::::::::::::::::::::::::::::::::::::::
         :: total free energy         -98.511570042663 Eh   ::
         ::.................................................::
         :: total energy              -98.965250317021 Eh   ::
         :: zero point energy           0.512332254112 Eh   ::
         :: G(RRHO) w/o ZPVE           -0.058651979755 Eh   ::
         :: G(RRHO) contrib.            0.453680274357 Eh   ::
         :::::::::::::::::::::::::::::::::::::::::::::::::::::

           -------------------------------------------------
          | TOTAL ENERGY              -98.965250317021 Eh   |
          | TOTAL ENTHALPY            -98.421064605855 Eh   |
          | TOTAL FREE ENERGY         -98.511570042663 Eh   |
          | GRADIENT NORM               0.000154136652 Eh/α |
          | HOMO-LUMO GAP               2.236905504506 eV   |
           -------------------------------------------------

 * finished run on 2025/08/29 at 14:34:22.354
