   * xtb version 6.7.1 (edcfbbe) compiled by 'albert@albert-system' on 2024-07-22

   ID    Z sym.   atoms
    1    6 C      1-40
    2    1 H      41-66

          program call               : xtb data2507/toluene/diarylbiindole/diarylbiindole.xyz --gfn 2 --gbsa toluene --ohess vtight --parallel 40 --molden --ceasefiles --namespace data2507/toluene/diarylbiindole/diarylbiindole_toluene_S0_preOpt
      * Solvation model:               GBSA
        Solvent                        toluene
        Solvent mass                       9.2140E+01 g/mol
          :  Hamiltonian                  GFN2-xTB          :
 * total energy  :   -98.9433757 Eh     change       -0.2889507E-08 Eh
 * total energy  :   -98.9561997 Eh     change       -0.1282404E-01 Eh
 * total energy  :   -98.9600986 Eh     change       -0.3898849E-02 Eh
 * total energy  :   -98.9609123 Eh     change       -0.8137529E-03 Eh
 * total energy  :   -98.9612590 Eh     change       -0.3466614E-03 Eh
 * total energy  :   -98.9613796 Eh     change       -0.1205841E-03 Eh
 * total energy  :   -98.9614832 Eh     change       -0.1036297E-03 Eh
 * total energy  :   -98.9615936 Eh     change       -0.1103984E-03 Eh
 * total energy  :   -98.9617182 Eh     change       -0.1245897E-03 Eh
 * total energy  :   -98.9618335 Eh     change       -0.1153559E-03 Eh
 * total energy  :   -98.9621011 Eh     change       -0.4171553E-05 Eh
 * total energy  :   -98.9621056 Eh     change       -0.4524901E-05 Eh
 * total energy  :   -98.9621081 Eh     change       -0.2542696E-05 Eh
 * total energy  :   -98.9621092 Eh     change       -0.1038998E-05 Eh
 * total energy  :   -98.9621099 Eh     change       -0.6803396E-06 Eh
 * total energy  :   -98.9621106 Eh     change       -0.7208459E-06 Eh
 * total energy  :   -98.9621111 Eh     change       -0.5215556E-06 Eh
 * total energy  :   -98.9621113 Eh     change       -0.2010701E-06 Eh
 * total energy  :   -98.9621114 Eh     change       -0.7266240E-07 Eh
   *** GEOMETRY OPTIMIZATION CONVERGED AFTER 31 ITERATIONS ***

 final structure:
================
66
 xtb: 6.7.1 (edcfbbe)
C           -2.90523044433390       -4.17752333665159       -0.00026996943683
C           -2.60201209121006       -3.55271646577445        1.19737082142405
C           -1.99582046102052       -2.30968760959934        1.19763092286622
C           -1.68445274333137       -1.67957227325984       -0.00010318662320
C           -1.04051921336232       -0.34262688426266       -0.00003779614655
C           -1.84544008160845        0.79028843648367        0.00002600857547
C           -3.31717881787090        0.61810276926767        0.00010048087566
C           -4.01373008214032        0.52207978708245       -1.19886174924530
C           -5.38348433848553        0.32847051800064       -1.19788283223395
C           -6.07093036809195        0.23014227241228        0.00027649175880
C           -5.38342675342030        0.32915499119176        1.19834818329255
C           -4.01367616019233        0.52278510009201        1.19915073407773
C           -1.25751238820899        2.06122412104700        0.00000757582480
C           -2.05661354909141        3.24347509058935       -0.00001426922975
C           -1.49614169802527        4.47349775595262       -0.00007243004551
C           -0.08025658531700        4.63172564123165       -0.00012149773035
C            0.52188401759284        5.89134925335300       -0.00018828854971
C            1.89891242513298        6.01870509119888       -0.00025768171557
C            2.70483714143062        4.89558772873165       -0.00024872521295
C            2.14262103883197        3.61757912127780       -0.00016900567548
C            2.93931585671326        2.44147057759483       -0.00011294198658
C            2.40333659045599        1.19162616413231       -0.00004354346501
C            3.37052816433310        0.06707175563269        0.00008881877340
C            3.87948966374519       -0.41992027449724       -1.19774526856399
C            4.85564996721158       -1.39952743661256       -1.19705045464378
C            5.34343655244934       -1.89415817119340        0.00040349018409
C            4.85518688245283       -1.39960958181966        1.19770186926997
C            3.87902853431960       -0.42000099487979        1.19808677228561
C            0.97647420769416        1.01180600710776       -0.00005982041774
C            0.35263319890673       -0.24602222468697       -0.00005943787102
C            1.06806373678686       -1.54472174845245       -0.00005415209670
C            1.34398566869922       -2.19251368587031        1.19745568256185
C            1.90338835071140       -3.45658101128887        1.19705412113298
C            2.18351315919056       -4.09231973202427       -0.00004221291704
C            1.90373625714429       -3.45643778621969       -1.19714317026118
C            1.34435513577000       -2.19236045285554       -1.19755835149583
C            0.15605389834470        2.17670082289395       -0.00005238313344
C            0.73500867977308        3.47168427130921       -0.00011204760904
C           -1.99525925483505       -2.30980421521941       -1.19792366323981
C           -2.60145216087763       -3.55283114091893       -1.19782979340462
H           -3.37846447700443       -5.14882467020777       -0.00033334898231
H           -2.83903949361344       -4.03522162568399        2.13481743896465
H           -1.76035387492891       -1.82164897398569        2.13246449604852
H           -3.47611608477874        0.60173762514322       -2.13303235848762
H           -5.91610594012016        0.25453149541264       -2.13522048700030
H           -7.14050784465830        0.07739046096852        0.00034579203498
H           -5.91600887563114        0.25577783452458        2.13575197487814
H           -3.47602207716415        0.60302179171272        2.13325035230218
H           -3.13069975274111        3.12625999409532        0.00003190127798
H           -2.11147017914057        5.36219293311904       -0.00006140077202
H           -0.10452064873110        6.77221423092325       -0.00019946310944
H            2.34753327333431        7.00194989475618       -0.00031284529233
H            3.78083992329529        4.99689437181999       -0.00029008362464
H            4.01529530345373        2.55576290292880       -0.00014846104218
H            3.50530284085520       -0.02635956300828       -2.13233730957294
H            5.24066252100181       -1.77456531539772       -2.13454204935122
H            6.10695084613540       -2.65848417175377        0.00052581901645
H            5.23994972944647       -1.77459683666189        2.13531431390705
H            3.50457413308476       -0.02641196215374        2.13256033137244
H            1.11878493318973       -1.69935713237442        2.13226548953202
H            2.11598694882525       -3.94981693273064        2.13467778825614
H            2.61636730399240       -5.08214104235881       -0.00003976349755
H            2.11666433385671       -3.94953582617361       -2.13476417118770
H            1.11948263335884       -1.69906939095961       -2.13237630023576
H           -1.75933752373965       -1.82186408803988       -2.13269370065119
H           -2.83805088784529       -4.03542225441670       -2.13534025473593

          :  Hamiltonian                  GFN2-xTB          :
         :: gradient norm              0.000028002436 Eh/a0 ::
         :: HOMO-LUMO gap              2.350710427300 eV    ::
         :: SCC energy              -100.925831765839 Eh    ::
         :: -> dispersion             -0.104969374476 Eh    ::
         :: -> Gsolv                  -0.036611802080 Eh    ::
         :: repulsion energy           1.963720391367 Eh    ::

    * Orbital Energies and Occupations

         #    Occupation            Energy/Eh            Energy/eV
      -------------------------------------------------------------
         1        2.0000           -0.6569599             -17.8768
       ...           ...                  ...                  ...
        81        2.0000           -0.4095424             -11.1442
        82        2.0000           -0.4091957             -11.1348
        83        2.0000           -0.4058546             -11.0439
        84        2.0000           -0.4049620             -11.0196
        85        2.0000           -0.4033421             -10.9755
        86        2.0000           -0.4018738             -10.9355
        87        2.0000           -0.4012780             -10.9193
        88        2.0000           -0.3949121             -10.7461
        89        2.0000           -0.3946056             -10.7378
        90        2.0000           -0.3929337             -10.6923
        91        2.0000           -0.3867266             -10.5234
        92        2.0000           -0.3831916             -10.4272
        93        2.0000           -0.3612812              -9.8310 (HOMO)
        94                         -0.2748942              -7.4803 (LUMO)
        95                         -0.2413963              -6.5687
        96                         -0.2303477              -6.2681
        97                         -0.2279574              -6.2030
        98                         -0.2238723              -6.0919
        99                         -0.2238571              -6.0915
       100                         -0.2204417              -5.9985
       101                         -0.2193289              -5.9682
       102                         -0.2189610              -5.9582
       103                         -0.2124030              -5.7798
       104                         -0.2101785              -5.7192
       ...                                ...                  ...
       186                          0.7267284              19.7753
      -------------------------------------------------------------
                  HL-Gap            0.0863870 Eh            2.3507 eV

     #   Z          covCN         q      C6AA      α(0)
     1   6 C        2.920    -0.033    28.830     8.805
     2   6 C        2.919    -0.031    28.773     8.796
     3   6 C        2.925    -0.033    28.813     8.803
     4   6 C        2.980     0.012    27.737     8.639
     5   6 C        2.990    -0.001    28.046     8.687
     6   6 C        2.981    -0.002    28.065     8.690
     7   6 C        2.978     0.015    27.683     8.631
     8   6 C        2.925    -0.032    28.806     8.802
     9   6 C        2.919    -0.030    28.760     8.794
    10   6 C        2.920    -0.033    28.818     8.803
    11   6 C        2.919    -0.030    28.760     8.794
    12   6 C        2.925    -0.032    28.806     8.802
    13   6 C        2.985     0.003    27.946     8.672
    14   6 C        2.914    -0.035    28.873     8.811
    15   6 C        2.913    -0.038    28.936     8.821
    16   6 C        2.982     0.010    27.782     8.646
    17   6 C        2.921    -0.039    28.976     8.827
    18   6 C        2.913    -0.031    28.781     8.797
    19   6 C        2.921    -0.039    28.970     8.826
    20   6 C        2.981     0.010    27.798     8.648
    21   6 C        2.928    -0.043    29.080     8.844
    22   6 C        2.968     0.005    27.908     8.665
    23   6 C        2.984     0.013    27.725     8.637
    24   6 C        2.925    -0.033    28.814     8.803
    25   6 C        2.919    -0.030    28.758     8.794
    26   6 C        2.920    -0.033    28.821     8.804
    27   6 C        2.919    -0.030    28.758     8.794
    28   6 C        2.925    -0.033    28.814     8.803
    29   6 C        2.977     0.001    28.012     8.682
    30   6 C        2.977    -0.000    28.025     8.684
    31   6 C        2.982     0.015    27.671     8.629
    32   6 C        2.926    -0.032    28.787     8.799
    33   6 C        2.920    -0.031    28.764     8.795
    34   6 C        2.921    -0.033    28.825     8.804
    35   6 C        2.920    -0.031    28.764     8.795
    36   6 C        2.926    -0.032    28.787     8.799
    37   6 C        2.991    -0.002    28.056     8.689
    38   6 C        2.997     0.001    28.001     8.680
    39   6 C        2.925    -0.033    28.813     8.803
    40   6 C        2.919    -0.031    28.773     8.796
    41   1 H        0.926     0.031     2.574     2.509
    42   1 H        0.926     0.031     2.565     2.505
    43   1 H        0.926     0.028     2.618     2.530
    44   1 H        0.926     0.029     2.607     2.525
    45   1 H        0.926     0.032     2.562     2.503
    46   1 H        0.926     0.031     2.572     2.508
    47   1 H        0.926     0.032     2.562     2.503
    48   1 H        0.926     0.029     2.607     2.525
    49   1 H        0.926     0.031     2.565     2.505
    50   1 H        0.926     0.032     2.560     2.502
    51   1 H        0.926     0.031     2.566     2.505
    52   1 H        0.926     0.031     2.579     2.511
    53   1 H        0.926     0.031     2.572     2.508
    54   1 H        0.925     0.028     2.614     2.528
    55   1 H        0.926     0.028     2.615     2.529
    56   1 H        0.926     0.031     2.570     2.507
    57   1 H        0.926     0.031     2.579     2.511
    58   1 H        0.926     0.031     2.570     2.507
    59   1 H        0.926     0.028     2.615     2.529
    60   1 H        0.926     0.028     2.621     2.532
    61   1 H        0.926     0.031     2.571     2.507
    62   1 H        0.926     0.030     2.580     2.512
    63   1 H        0.926     0.031     2.571     2.507
    64   1 H        0.926     0.028     2.621     2.532
    65   1 H        0.926     0.028     2.618     2.530
    66   1 H        0.926     0.031     2.565     2.505

molecular dipole:
                 x           y           z       tot (Debye)
 q only:       -0.088      -0.108       0.000
   full:       -0.095      -0.153       0.000       0.458

 projected vibrational frequencies (cm⁻¹)
eigval :       -0.00    -0.00     0.00     0.00     0.00     0.00
eigval :      -32.78    14.92    19.98    24.79    42.77    43.03
eigval :       45.90    46.94    56.55    74.56    76.28    92.97
eigval :       98.06   126.38   173.49   187.92   191.87   199.45
eigval :      203.86   206.50   218.09   231.98   244.55   253.91
eigval :      275.07   292.54   308.67   363.70   366.81   370.90
eigval :      375.46   387.13   388.79   445.52   446.58   452.60
eigval :      475.95   478.33   495.01   498.54   511.33   511.61
eigval :      550.11   560.71   569.97   574.24   583.30   592.37
eigval :      594.28   599.98   609.75   610.28   624.43   643.15
eigval :      648.93   665.06   669.10   672.01   672.75   687.17
eigval :      714.11   714.64   740.91   751.69   755.20   755.99
eigval :      762.76   780.81   791.29   804.63   831.87   837.34
eigval :      862.97   869.80   873.72   876.93   879.96   883.34
eigval :      885.28   896.78   899.53   901.21   902.75   904.65
eigval :      920.86   925.12   926.37   927.33   928.60   929.61
eigval :      930.93   931.65   932.28   932.72   964.09   972.95
eigval :      987.85   994.52  1034.25  1038.73  1082.66  1083.37
eigval :     1083.48  1084.89  1114.68  1116.43  1117.49  1119.17
eigval :     1120.80  1122.27  1151.91  1163.18  1178.56  1179.83
eigval :     1180.41  1181.17  1192.80  1193.33  1194.24  1197.36
eigval :     1200.96  1208.14  1213.70  1236.49  1245.34  1272.08
eigval :     1278.95  1279.96  1281.06  1282.47  1304.27  1308.99
eigval :     1309.17  1311.77  1314.94  1316.77  1345.96  1360.81
eigval :     1374.53  1398.65  1401.46  1408.31  1428.39  1428.89
eigval :     1430.21  1430.53  1443.51  1463.68  1475.81  1478.96
eigval :     1488.88  1492.03  1500.49  1529.42  1546.83  1572.71
eigval :     1582.37  1583.31  1584.76  1585.49  1591.49  1602.11
eigval :     1603.06  1604.41  1605.08  1606.85  3060.90  3065.10
eigval :     3065.27  3065.37  3065.68  3066.28  3066.59  3066.63
eigval :     3067.42  3067.45  3068.33  3071.79  3072.37  3073.78
eigval :     3074.62  3076.13  3076.63  3077.80  3078.93  3080.14
eigval :     3081.73  3084.95  3086.87  3087.36  3088.24  3089.31

   temp. (K)  partition function   enthalpy   heat capacity  entropy
                                   cal/mol     cal/K/mol   cal/K/mol   J/K/mol
 298.15  VIB  0.656E+13            17264.459    112.907    105.910
         ROT  0.326E+08              888.752      2.981     37.362
         INT  0.214E+21            18153.211    115.888    143.272
         TR   0.110E+29             1481.254      4.968     44.534
         TOT                       19634.4651   120.8565   187.8067   785.7831

       T/K    H(0)-H(T)+PV         H(T)/Eh          T*S/Eh         G(T)/Eh
   ------------------------------------------------------------------------
    298.15    0.312895E-01    0.543195E+00    0.892330E-01    0.453962E+00
   ------------------------------------------------------------------------

         :::::::::::::::::::::::::::::::::::::::::::::::::::::
         ::                  THERMODYNAMIC                  ::
         :::::::::::::::::::::::::::::::::::::::::::::::::::::
         :: total free energy         -98.508149034317 Eh   ::
         ::.................................................::
         :: total energy              -98.962111377002 Eh   ::
         :: zero point energy           0.511905843106 Eh   ::
         :: G(RRHO) w/o ZPVE           -0.057943500420 Eh   ::
         :: G(RRHO) contrib.            0.453962342686 Eh   ::
         :::::::::::::::::::::::::::::::::::::::::::::::::::::

           -------------------------------------------------
          | TOTAL ENERGY              -98.962111377002 Eh   |
          | TOTAL ENTHALPY            -98.418916022156 Eh   |
          | TOTAL FREE ENERGY         -98.508149034317 Eh   |
          | GRADIENT NORM               0.000027987472 Eh/α |
          | HOMO-LUMO GAP               2.350710696169 eV   |
           -------------------------------------------------

 * finished run on 2025/08/29 at 14:31:28.013
