   * xtb version 6.7.1 (edcfbbe) compiled by 'albert@albert-system' on 2024-07-22

   ID    Z sym.   atoms
    1    8 O      1, 5, 12, 24
    2    6 C      2-4, 6-11, 13-16, 18-23, 25-32
    3    7 N      17
    4    1 H      33-51

          program call               : xtb data2507/toluene/BZC-PXZ/BZC-PXZ_toluene_S0_crest.xyz --gfn 2 --gbsa toluene --ohess vtight --parallel 40 --molden --ceasefiles --namespace data2507/toluene/BZC-PXZ/BZC-PXZ_toluene_S0_finalOpt
      * Solvation model:               GBSA
        Solvent                        toluene
        Solvent mass                       9.2140E+01 g/mol
          :  Hamiltonian                  GFN2-xTB          :
 * total energy  :   -86.7350923 Eh     change       -0.6802594E-09 Eh
 * total energy  :   -86.7352162 Eh     change       -0.1239543E-03 Eh
 * total energy  :   -86.7352753 Eh     change       -0.5904413E-04 Eh
 * total energy  :   -86.7352964 Eh     change       -0.2110303E-04 Eh
 * total energy  :   -86.7353211 Eh     change       -0.2470251E-04 Eh
 * total energy  :   -86.7353549 Eh     change       -0.3381310E-04 Eh
 * total energy  :   -86.7353774 Eh     change       -0.2253205E-04 Eh
 * total energy  :   -86.7354219 Eh     change       -0.4448951E-04 Eh
 * total energy  :   -86.7354643 Eh     change       -0.4232998E-04 Eh
 * total energy  :   -86.7354970 Eh     change       -0.3272063E-04 Eh
 * total energy  :   -86.7358673 Eh     change       -0.4980192E-06 Eh
 * total energy  :   -86.7358675 Eh     change       -0.1441134E-06 Eh
 * total energy  :   -86.7358677 Eh     change       -0.2043999E-06 Eh
 * total energy  :   -86.7358678 Eh     change       -0.1661408E-06 Eh
 * total energy  :   -86.7358678 Eh     change        0.6677794E-08 Eh
 * total energy  :   -86.7358680 Eh     change       -0.1269499E-06 Eh
 * total energy  :   -86.7358679 Eh     change        0.1016573E-07 Eh
 * total energy  :   -86.7358681 Eh     change       -0.1074172E-06 Eh
 * total energy  :   -86.7358681 Eh     change       -0.8968085E-07 Eh
   *** GEOMETRY OPTIMIZATION CONVERGED AFTER 53 ITERATIONS ***

 final structure:
================
51
 xtb: 6.7.1 (edcfbbe)
O            3.51676874424157        3.28932693034749        0.40700953841915
C            3.20964647570138        2.29745078481365       -0.22468206832951
C            4.25842902808948        1.47994067204287       -0.96657170004459
C            4.03910538559529       -0.01728033237417       -0.91187132846237
O            4.05573275400130       -0.67173800352838       -1.95410336727519
C            3.77814614863694       -0.63001663362557        0.38669403112308
C            3.97148130794935        0.05988935597818        1.59306836722436
C            3.65595852735166       -0.51643900740551        2.80082910695632
C            3.12494149855878       -1.80317833822927        2.83835124549246
C            2.93850906992814       -2.51215714381181        1.67385401287258
C            3.27743038700287       -1.95287039146739        0.43872273747813
O            3.08619169775027       -2.69688534717933       -0.65765992777965
C            1.82404903818991        1.80100378027373       -0.29623516976477
C            1.34185605448437        1.04706792027791       -1.36862067690452
C            0.05232373472801        0.56030817210214       -1.35246890266438
C           -0.78578229304101        0.80787073093753       -0.26392458316755
N           -2.08646987282020        0.27884851201447       -0.24020657233241
C           -3.20269396521101        1.11999116831277       -0.15151794611471
C           -3.09304193491938        2.50572551659582       -0.14638386260466
C           -4.22011900023915        3.30907772408438       -0.06375712489525
C           -5.47829803845859        2.74398570137906        0.00012556212041
C           -5.60833399387944        1.36414929827511       -0.04442179449823
C           -4.48650986056324        0.55889658015574       -0.12810900524835
O           -4.70315927917586       -0.79578656442062       -0.20760601974025
C           -3.59920015250047       -1.60845351797398       -0.30631050456056
C           -3.83255149835275       -2.97028936668846       -0.37685161361310
C           -2.77118616562134       -3.86065633853618       -0.43874381563819
C           -1.47788139789613       -3.37812950632077       -0.40592764417722
C           -1.24028512024679       -2.01405322687861       -0.33707640620198
C           -2.29172099949914       -1.10520116511762       -0.31465104485155
C           -0.31764757114037        1.58548908970686        0.79612731214241
C            0.96654477574998        2.08267400594360        0.77080375235134
H            5.24074843039613        1.72673865389397       -0.55543601468510
H            4.25716717525539        1.78222592029308       -2.01832554174549
H            4.38968604899928        1.05311542409580        1.57853617519554
H            3.81904769379852        0.02877963607911        3.71721180021746
H            2.86630955459999       -2.25220676196194        3.78516793833518
H            2.53971945559806       -3.51445741503125        1.68049448854444
H            3.40538968365698       -2.18521379107362       -1.43790588823283
H            1.95742166677829        0.86579924514241       -2.23533097475444
H           -0.32128216168390       -0.01106823495091       -2.18913320785690
H           -2.11996189088183        2.96494535636868       -0.21755364247784
H           -4.10193630792984        4.38164816982057       -0.05542610872714
H           -6.35838376665915        3.36358135750096        0.06935593116662
H           -6.57618424274465        0.88837143829899       -0.02189285514915
H           -4.85559739820775       -3.31234948431716       -0.37622543291910
H           -2.96330864734130       -4.92027375467421       -0.49805760953896
H           -0.63882852123710       -4.05599753770207       -0.43100808122154
H           -0.22432096513773       -1.65663847197408       -0.29311276868350
H           -0.96199589729456        1.78026828087630        1.64003591992299
H            1.34389625966381        2.67295334894007        1.59231454906625

          :  Hamiltonian                  GFN2-xTB          :
         :: gradient norm              0.000052053718 Eh/a0 ::
         :: HOMO-LUMO gap              1.318299060628 eV    ::
         :: SCC energy               -88.099276340990 Eh    ::
         :: -> dispersion             -0.067549492889 Eh    ::
         :: -> Gsolv                  -0.035442076032 Eh    ::
         :: repulsion energy           1.363408198705 Eh    ::

    * Orbital Energies and Occupations

         #    Occupation            Energy/Eh            Energy/eV
      -------------------------------------------------------------
         1        2.0000           -0.7333780             -19.9562
       ...           ...                  ...                  ...
        66        2.0000           -0.4405169             -11.9871
        67        2.0000           -0.4374795             -11.9044
        68        2.0000           -0.4339566             -11.8086
        69        2.0000           -0.4296874             -11.6924
        70        2.0000           -0.4254804             -11.5779
        71        2.0000           -0.4240210             -11.5382
        72        2.0000           -0.4190912             -11.4041
        73        2.0000           -0.4172493             -11.3539
        74        2.0000           -0.4155464             -11.3076
        75        2.0000           -0.4079032             -11.0996
        76        2.0000           -0.4020869             -10.9413
        77        2.0000           -0.3939464             -10.7198
        78        2.0000           -0.3488994              -9.4940 (HOMO)
        79                         -0.3004526              -8.1757 (LUMO)
        80                         -0.2946525              -8.0179
        81                         -0.2466173              -6.7108
        82                         -0.2419789              -6.5846
        83                         -0.2345184              -6.3816
        84                         -0.2331567              -6.3445
        85                         -0.2262883              -6.1576
        86                         -0.2152315              -5.8567
        87                         -0.2108377              -5.7372
        88                         -0.1980145              -5.3882
        89                         -0.1142121              -3.1079
       ...                                ...                  ...
       147                          0.6686916              18.1960
      -------------------------------------------------------------
                  HL-Gap            0.0484467 Eh            1.3183 eV

     #   Z          covCN         q      C6AA      α(0)
     1   8 O        0.857    -0.399    21.663     6.240
     2   6 C        2.820     0.239    23.016     7.861
     3   6 C        3.804    -0.109    22.570     6.763
     4   6 C        2.821     0.234    23.105     7.876
     5   8 O        0.858    -0.433    22.353     6.339
     6   6 C        2.966    -0.060    29.489     8.907
     7   6 C        2.920    -0.028    28.701     8.785
     8   6 C        2.915    -0.037    28.920     8.819
     9   6 C        2.919    -0.016    28.418     8.742
    10   6 C        2.915    -0.054    29.331     8.881
    11   6 C        2.847     0.166    24.428     8.100
    12   8 O        1.658    -0.393    20.721     6.145
    13   6 C        2.971    -0.021    28.529     8.761
    14   6 C        2.919    -0.027    28.684     8.783
    15   6 C        2.920    -0.039    28.964     8.825
    16   6 C        2.921     0.074    26.355     8.419
    17   7 N        2.750    -0.065    22.493     7.044
    18   6 C        2.920     0.041    27.083     8.534
    19   6 C        2.924    -0.060    29.480     8.904
    20   6 C        2.919    -0.038    28.949     8.823
    21   6 C        2.919    -0.039    28.974     8.827
    22   6 C        2.920    -0.057    29.414     8.894
    23   6 C        2.883     0.124    25.280     8.243
    24   8 O        1.708    -0.267    18.431     5.796
    25   6 C        2.883     0.124    25.282     8.243
    26   6 C        2.920    -0.057    29.414     8.894
    27   6 C        2.919    -0.039    28.968     8.826
    28   6 C        2.919    -0.038    28.935     8.821
    29   6 C        2.924    -0.058    29.448     8.899
    30   6 C        2.921     0.040    27.093     8.536
    31   6 C        2.919    -0.039    28.968     8.826
    32   6 C        2.925    -0.017    28.424     8.743
    33   1 H        0.924     0.091     1.868     2.137
    34   1 H        0.924     0.091     1.867     2.137
    35   1 H        0.926     0.053     2.285     2.364
    36   1 H        0.926     0.054     2.273     2.357
    37   1 H        0.926     0.061     2.191     2.315
    38   1 H        0.926     0.064     2.155     2.296
    39   1 H        0.802     0.344     0.602     1.219
    40   1 H        0.926     0.055     2.262     2.352
    41   1 H        0.926     0.056     2.250     2.346
    42   1 H        0.926     0.042     2.419     2.432
    43   1 H        0.926     0.044     2.402     2.423
    44   1 H        0.926     0.044     2.390     2.418
    45   1 H        0.926     0.050     2.316     2.380
    46   1 H        0.926     0.051     2.312     2.378
    47   1 H        0.926     0.045     2.381     2.413
    48   1 H        0.926     0.046     2.373     2.409
    49   1 H        0.926     0.039     2.456     2.451
    50   1 H        0.926     0.058     2.221     2.331
    51   1 H        0.926     0.060     2.193     2.316

molecular dipole:
                 x           y           z       tot (Debye)
 q only:       -0.521      -0.362       0.792
   full:       -0.335      -0.185       0.651       1.919

 projected vibrational frequencies (cm⁻¹)
eigval :       -0.00    -0.00     0.00     0.00     0.00     0.00
eigval :       10.81    13.30    26.63    30.12    33.39    53.44
eigval :       62.17    78.02   101.36   122.23   136.90   140.29
eigval :      163.38   175.32   210.08   228.90   240.06   249.72
eigval :      271.56   275.82   291.05   347.26   373.53   379.21
eigval :      385.77   394.42   400.93   417.88   431.38   437.86
eigval :      440.82   447.95   472.85   491.93   503.35   510.14
eigval :      523.72   527.83   541.18   544.38   576.14   589.81
eigval :      599.02   608.74   634.98   655.63   660.57   662.80
eigval :      673.89   695.42   714.76   726.23   744.10   759.96
eigval :      778.13   778.54   781.31   804.10   824.55   831.48
eigval :      853.98   863.37   868.42   876.80   880.18   898.73
eigval :      901.03   912.55   914.52   915.87   916.07   917.13
eigval :      919.90   926.08   931.12   935.81   999.82  1018.36
eigval :     1055.04  1084.27  1089.28  1090.61  1097.93  1106.92
eigval :     1118.26  1131.97  1136.77  1168.05  1169.73  1172.80
eigval :     1181.41  1185.36  1187.89  1198.88  1216.33  1230.06
eigval :     1240.82  1251.72  1257.34  1258.91  1262.76  1270.95
eigval :     1276.50  1303.35  1307.59  1316.89  1331.81  1348.51
eigval :     1350.43  1404.17  1414.80  1421.58  1431.20  1439.90
eigval :     1447.03  1470.80  1476.91  1499.93  1547.52  1550.08
eigval :     1567.04  1570.82  1578.14  1588.05  1598.05  1600.16
eigval :     1622.49  1681.54  2958.52  2973.95  3082.29  3089.26
eigval :     3089.76  3089.81  3091.31  3091.81  3097.69  3098.65
eigval :     3099.23  3099.96  3105.91  3107.37  3108.11  3108.99
eigval :     3110.50  3113.14  3118.75

   temp. (K)  partition function   enthalpy   heat capacity  entropy
                                   cal/mol     cal/K/mol   cal/K/mol   J/K/mol
 298.15  VIB  0.215E+12            14538.329     92.849     89.530
         ROT  0.206E+08              888.752      2.981     36.449
         INT  0.443E+19            15427.081     95.830    125.979
         TR   0.837E+28             1481.254      4.968     43.986
         TOT                       16908.3353   100.7982   169.9647   711.1325

       T/K    H(0)-H(T)+PV         H(T)/Eh          T*S/Eh         G(T)/Eh
   ------------------------------------------------------------------------
    298.15    0.269451E-01    0.407356E+00    0.807557E-01    0.326601E+00
   ------------------------------------------------------------------------

         :::::::::::::::::::::::::::::::::::::::::::::::::::::
         ::                  THERMODYNAMIC                  ::
         :::::::::::::::::::::::::::::::::::::::::::::::::::::
         :: total free energy         -86.409267577119 Eh   ::
         ::.................................................::
         :: total energy              -86.735868146739 Eh   ::
         :: zero point energy           0.380411155323 Eh   ::
         :: G(RRHO) w/o ZPVE           -0.053810585703 Eh   ::
         :: G(RRHO) contrib.            0.326600569620 Eh   ::
         :::::::::::::::::::::::::::::::::::::::::::::::::::::

           -------------------------------------------------
          | TOTAL ENERGY              -86.735868146739 Eh   |
          | TOTAL ENTHALPY            -86.328511844021 Eh   |
          | TOTAL FREE ENERGY         -86.409267577119 Eh   |
          | GRADIENT NORM               0.000052068838 Eh/α |
          | HOMO-LUMO GAP               1.318302875129 eV   |
           -------------------------------------------------

 * finished run on 2025/08/22 at 09:39:28.891
