   * xtb version 6.7.1 (edcfbbe) compiled by 'albert@albert-system' on 2024-07-22

   ID    Z sym.   atoms
    1    8 O      1, 5, 12, 24
    2    6 C      2-4, 6-11, 13-16, 18-23, 25-32
    3    7 N      17
    4    1 H      33-51

          program call               : xtb data2507/toluene/BZC-PXZ/BZC-PXZ_toluene_S0_finalOpt.xtbopt.xyz --gfn 2 --uhf 2 --gbsa toluene --ohess vtight --parallel 40 --molden --ceasefiles --namespace data2507/toluene/BZC-PXZ/BZC-PXZ_toluene_T1_preOpt
      * Solvation model:               GBSA
        Solvent                        toluene
        Solvent mass                       9.2140E+01 g/mol
          :  Hamiltonian                  GFN2-xTB          :
 * total energy  :   -86.6534073 Eh     change       -0.4446932E-08 Eh
 * total energy  :   -86.6575538 Eh     change       -0.4146555E-02 Eh
 * total energy  :   -86.6588057 Eh     change       -0.1251813E-02 Eh
 * total energy  :   -86.6589825 Eh     change       -0.1768242E-03 Eh
 * total energy  :   -86.6592185 Eh     change       -0.2360102E-03 Eh
 * total energy  :   -86.6593796 Eh     change       -0.1610812E-03 Eh
 * total energy  :   -86.6595748 Eh     change       -0.1951951E-03 Eh
 * total energy  :   -86.6597599 Eh     change       -0.1850969E-03 Eh
 * total energy  :   -86.6599705 Eh     change       -0.2106562E-03 Eh
 * total energy  :   -86.6602434 Eh     change       -0.2729093E-03 Eh
 * total energy  :   -86.6662979 Eh     change       -0.5808794E-06 Eh
 * total energy  :   -86.6662985 Eh     change       -0.6182529E-06 Eh
 * total energy  :   -86.6662992 Eh     change       -0.6778034E-06 Eh
 * total energy  :   -86.6662999 Eh     change       -0.7553810E-06 Eh
 * total energy  :   -86.6663008 Eh     change       -0.8365195E-06 Eh
 * total energy  :   -86.6663017 Eh     change       -0.9015756E-06 Eh
 * total energy  :   -86.6663026 Eh     change       -0.8980277E-06 Eh
 * total energy  :   -86.6663035 Eh     change       -0.9041229E-06 Eh
 * total energy  :   -86.6663035 Eh     change       -0.3345789E-08 Eh
   *** GEOMETRY OPTIMIZATION CONVERGED AFTER 122 ITERATIONS ***

 final structure:
================
51
 xtb: 6.7.1 (edcfbbe)
O            3.31545578833093        2.22941380690699        1.15209577095808
C            2.92038274610446        1.67114704457604        0.10595838912254
C            3.94266118842250        1.12097115869438       -0.87732422108413
C            3.79932845584204       -0.32440359647101       -0.46508091071932
O            3.06297739404267       -1.07335764367298       -1.16641695717261
C            4.40918152100447       -0.79022609126149        0.76415082720541
C            5.27813215063151       -0.00784981552210        1.54090610938464
C            5.82693593729770       -0.49212198809581        2.70923175867096
C            5.53528790635725       -1.77959288799098        3.14229336014781
C            4.68797861577964       -2.57885847032020        2.39977854799799
C            4.12233347118695       -2.10660600419560        1.21924400342372
O            3.29717244146336       -2.92442419916452        0.53798008470047
C            1.52195974647799        1.39303380735657       -0.13358464960173
C            1.00638546336178        0.86153868407865       -1.33343827514839
C           -0.32626175024545        0.54692948555736       -1.44551697085030
C           -1.20050022272540        0.77628886465352       -0.38026252545288
N           -2.56201879425883        0.40049907029235       -0.48669138846585
C           -3.55475454669509        1.35882688160351       -0.47959176014732
C           -3.27127512886838        2.72786651790807       -0.43173438183696
C           -4.29548693796172        3.65113888128285       -0.41776271671394
C           -5.62414261766777        3.23857147881751       -0.45903070411481
C           -5.92836014900990        1.89285983924505       -0.53346758001360
C           -4.90606378175333        0.95266284771191       -0.55139639634250
O           -5.25416727652406       -0.35444999340319       -0.65041036692201
C           -4.27052502366191       -1.28840074032797       -0.66841616170277
C           -4.65075925137337       -2.62115044542608       -0.76234604904653
C           -3.68921938487906       -3.61309069896857       -0.75524837051460
C           -2.34338696620655       -3.27711962321810       -0.63982722051167
C           -1.95244001341261       -1.95781904049608       -0.54720676641900
C           -2.90565450396371       -0.93428998692845       -0.57665505448038
C           -0.72074616779188        1.36304287398855        0.79796957850299
C            0.60973614267071        1.66592767973549        0.91082174560298
H            4.92569865732242        1.54352199476423       -0.68883851857976
H            3.66205333758116        1.25415733211611       -1.91960419170593
H            5.50990117863202        0.99906552330097        1.23662055252943
H            6.48509478440606        0.13742749215689        3.28929647927432
H            5.96751219650950       -2.15810900388229        4.05625980267230
H            4.44333942730840       -3.58327673066025        2.71069680960994
H            3.02451496380637       -2.41131379386278       -0.27789138881146
H            1.65090448786468        0.68096262325100       -2.17641403827180
H           -0.70805646349238        0.12901348676075       -2.36556253974025
H           -2.24336296830383        3.05145396457843       -0.41115121387937
H           -4.05830859921530        4.70244601578220       -0.37878150052781
H           -6.41870316643490        3.96707188753381       -0.44410342646977
H           -6.94683576920579        1.54327115772785       -0.58383289252738
H           -5.70175387624539       -2.84995525172799       -0.83377256473103
H           -3.98480431492809       -4.64726179469033       -0.82879834690032
H           -1.59218625005617       -4.05057318943543       -0.61655641489655
H           -0.90867671225417       -1.70824293710059       -0.44592128443503
H           -1.39625838015227        1.54035922114247        1.62162904870428
H            1.00961539887225        2.09182154866091        1.81930310339122

          :  Hamiltonian                  GFN2-xTB          :
         :: gradient norm              0.000055618673 Eh/a0 ::
         :: HOMO-LUMO gap              0.428318936166 eV    ::
         :: SCC energy               -88.011322306463 Eh    ::
         :: -> dispersion             -0.065149249661 Eh    ::
         :: -> Gsolv                  -0.055773050496 Eh    ::
         :: repulsion energy           1.345018823349 Eh    ::

    * Orbital Energies and Occupations

         #    Occupation            Energy/Eh            Energy/eV
      -------------------------------------------------------------
         1        2.0000           -0.7758820             -21.1128
       ...           ...                  ...                  ...
        67        2.0000           -0.4456380             -12.1264
        68        2.0000           -0.4417126             -12.0196
        69        2.0000           -0.4332879             -11.7904
        70        2.0000           -0.4262559             -11.5990
        71        2.0000           -0.4231372             -11.5141
        72        2.0000           -0.4185683             -11.3898
        73        2.0000           -0.4130858             -11.2406
        74        2.0000           -0.4041210             -10.9967
        75        1.9999           -0.3857303             -10.4963
        76        1.9905           -0.3816320             -10.3847
        77        1.8512           -0.3788725             -10.3096
        78        1.1584           -0.3756282             -10.2214
        79        0.9997           -0.2917529              -7.9390 (HOMO)
        80        0.0003           -0.2760118              -7.5107 (LUMO)
        81                         -0.2644393              -7.1958
        82                         -0.2601613              -7.0794
        83                         -0.2459059              -6.6914
        84                         -0.2328510              -6.3362
        85                         -0.2294383              -6.2433
        86                         -0.2128740              -5.7926
        87                         -0.1993137              -5.4236
        88                         -0.1751031              -4.7648
        89                         -0.1361746              -3.7055
        90                         -0.1088409              -2.9617
       ...                                ...                  ...
       147                          0.6633993              18.0520
      -------------------------------------------------------------
                  HL-Gap            0.0157410 Eh            0.4283 eV

     #   Z          covCN         q      C6AA      α(0)
     1   8 O        0.857    -0.497    23.708     6.528
     2   6 C        2.908     0.190    23.946     8.024
     3   6 C        3.806    -0.082    22.067     6.687
     4   6 C        2.907     0.191    23.926     8.021
     5   8 O        0.859    -0.521    24.246     6.602
     6   6 C        2.963    -0.059    29.455     8.902
     7   6 C        2.919    -0.033    28.830     8.805
     8   6 C        2.915    -0.041    29.008     8.832
     9   6 C        2.917    -0.033    28.820     8.803
    10   6 C        2.915    -0.061    29.517     8.909
    11   6 C        2.848     0.151    24.714     8.148
    12   8 O        1.654    -0.428    21.401     6.245
    13   6 C        2.966    -0.020    28.504     8.757
    14   6 C        2.918    -0.030    28.752     8.793
    15   6 C        2.915    -0.037    28.925     8.819
    16   6 C        2.926     0.033    27.261     8.562
    17   7 N        2.752     0.019    20.918     6.793
    18   6 C        2.927     0.047    26.936     8.511
    19   6 C        2.918    -0.042    29.039     8.837
    20   6 C        2.917    -0.021    28.531     8.759
    21   6 C        2.919    -0.018    28.470     8.750
    22   6 C        2.915    -0.045    29.128     8.850
    23   6 C        2.888     0.139    24.975     8.193
    24   8 O        1.710    -0.189    17.156     5.592
    25   6 C        2.888     0.139    24.978     8.194
    26   6 C        2.915    -0.046    29.132     8.851
    27   6 C        2.918    -0.018    28.458     8.748
    28   6 C        2.917    -0.020    28.514     8.756
    29   6 C        2.918    -0.041    29.013     8.833
    30   6 C        2.927     0.048    26.929     8.510
    31   6 C        2.913    -0.040    28.989     8.829
    32   6 C        2.926    -0.027    28.686     8.783
    33   1 H        0.925     0.048     2.344     2.394
    34   1 H        0.925     0.052     2.299     2.371
    35   1 H        0.926     0.042     2.418     2.432
    36   1 H        0.926     0.037     2.486     2.466
    37   1 H        0.926     0.043     2.415     2.430
    38   1 H        0.926     0.046     2.371     2.408
    39   1 H        0.801     0.342     0.607     1.224
    40   1 H        0.926     0.051     2.311     2.377
    41   1 H        0.926     0.049     2.338     2.391
    42   1 H        0.926     0.068     2.102     2.267
    43   1 H        0.926     0.071     2.078     2.254
    44   1 H        0.926     0.074     2.037     2.232
    45   1 H        0.926     0.081     1.973     2.196
    46   1 H        0.926     0.081     1.964     2.191
    47   1 H        0.926     0.075     2.034     2.230
    48   1 H        0.926     0.070     2.089     2.260
    49   1 H        0.926     0.067     2.122     2.278
    50   1 H        0.926     0.049     2.331     2.388
    51   1 H        0.926     0.046     2.368     2.407

molecular dipole:
                 x           y           z       tot (Debye)
 q only:       -7.385       0.053      -1.045
   full:       -7.125       0.238      -1.178      18.365

 projected vibrational frequencies (cm⁻¹)
eigval :       -0.00    -0.00    -0.00     0.00     0.00     0.00
eigval :        3.23    14.24    26.26    32.90    43.18    50.45
eigval :       69.50    75.85   108.82   119.16   136.56   141.79
eigval :      165.08   173.04   210.68   238.07   240.67   256.96
eigval :      281.20   295.06   307.16   369.24   381.12   386.17
eigval :      388.87   395.07   408.51   417.17   423.58   434.92
eigval :      451.00   468.59   476.31   486.92   487.76   493.73
eigval :      529.65   535.73   538.20   545.32   563.19   582.75
eigval :      591.76   605.49   614.73   623.99   666.72   670.85
eigval :      676.21   684.12   692.55   727.96   747.20   761.21
eigval :      775.89   779.64   790.68   804.30   822.44   830.52
eigval :      839.20   845.09   858.17   872.75   873.50   889.86
eigval :      892.84   902.19   908.28   909.26   909.87   911.95
eigval :      913.90   924.41   925.73   933.60   988.90  1004.10
eigval :     1027.71  1070.43  1077.18  1078.50  1086.84  1117.48
eigval :     1121.44  1125.37  1136.63  1143.58  1162.79  1166.55
eigval :     1175.20  1176.56  1191.73  1193.37  1212.38  1213.05
eigval :     1233.76  1235.77  1242.83  1248.89  1259.41  1262.76
eigval :     1281.42  1289.90  1303.54  1322.61  1332.98  1340.63
eigval :     1344.57  1401.25  1405.35  1412.00  1414.59  1431.58
eigval :     1435.21  1439.92  1449.79  1454.97  1459.61  1480.04
eigval :     1526.20  1537.17  1537.60  1550.58  1553.39  1557.22
eigval :     1571.71  1574.25  2754.14  3010.96  3025.55  3078.25
eigval :     3080.06  3081.43  3086.29  3091.60  3096.60  3103.05
eigval :     3103.24  3110.14  3110.27  3116.99  3118.36  3119.04
eigval :     3121.31  3121.72  3123.45

   temp. (K)  partition function   enthalpy   heat capacity  entropy
                                   cal/mol     cal/K/mol   cal/K/mol   J/K/mol
 298.15  VIB  0.409E+12            14506.062     93.595     90.182
         ROT  0.243E+08              888.752      2.981     36.775
         INT  0.993E+19            15394.814     96.576    126.957
         TR   0.837E+28             1481.254      4.968     43.986
         TOT                       16876.0681   101.5444   170.9432   715.2262

       T/K    H(0)-H(T)+PV         H(T)/Eh          T*S/Eh         G(T)/Eh
   ------------------------------------------------------------------------
    298.15    0.268937E-01    0.404487E+00    0.812206E-01    0.323266E+00
   ------------------------------------------------------------------------

         :::::::::::::::::::::::::::::::::::::::::::::::::::::
         ::                  THERMODYNAMIC                  ::
         :::::::::::::::::::::::::::::::::::::::::::::::::::::
         :: total free energy         -86.343037164472 Eh   ::
         ::.................................................::
         :: total energy              -86.666303488502 Eh   ::
         :: zero point energy           0.377593207623 Eh   ::
         :: G(RRHO) w/o ZPVE           -0.054326883594 Eh   ::
         :: G(RRHO) contrib.            0.323266324029 Eh   ::
         :::::::::::::::::::::::::::::::::::::::::::::::::::::

           -------------------------------------------------
          | TOTAL ENERGY              -86.666303488502 Eh   |
          | TOTAL ENTHALPY            -86.261816554431 Eh   |
          | TOTAL FREE ENERGY         -86.343037164472 Eh   |
          | GRADIENT NORM               0.000055702964 Eh/α |
          | HOMO-LUMO GAP               0.428335157152 eV   |
           -------------------------------------------------

 * finished run on 2025/08/22 at 09:39:35.834
