   * xtb version 6.7.1 (edcfbbe) compiled by 'albert@albert-system' on 2024-07-22

   ID    Z sym.   atoms
    1    8 O      1, 5, 12, 24
    2    6 C      2-4, 6-11, 13-16, 18-23, 25-32
    3    7 N      17
    4    1 H      33-51

          program call               : xtb data2507/toluene/BZC-PXZ/BZC-PXZ_toluene_T1_crest.xyz --gfn 2 --uhf 2 --gbsa toluene --ohess vtight --parallel 40 --molden --ceasefiles --namespace data2507/toluene/BZC-PXZ/BZC-PXZ_toluene_T1_finalOpt
      * Solvation model:               GBSA
        Solvent                        toluene
        Solvent mass                       9.2140E+01 g/mol
          :  Hamiltonian                  GFN2-xTB          :
 * total energy  :   -86.6657205 Eh     change       -0.3030675E-07 Eh
 * total energy  :   -86.6660856 Eh     change       -0.3651084E-03 Eh
 * total energy  :   -86.6662357 Eh     change       -0.1501573E-03 Eh
 * total energy  :   -86.6662726 Eh     change       -0.3690574E-04 Eh
 * total energy  :   -86.6663157 Eh     change       -0.4310846E-04 Eh
 * total energy  :   -86.6663400 Eh     change       -0.2421872E-04 Eh
 * total energy  :   -86.6663664 Eh     change       -0.2643392E-04 Eh
 * total energy  :   -86.6663926 Eh     change       -0.2619028E-04 Eh
 * total energy  :   -86.6664145 Eh     change       -0.2189524E-04 Eh
 * total energy  :   -86.6664287 Eh     change       -0.1418529E-04 Eh
 * total energy  :   -86.6664592 Eh     change       -0.2873964E-06 Eh
 * total energy  :   -86.6664594 Eh     change       -0.2435039E-06 Eh
 * total energy  :   -86.6664597 Eh     change       -0.2270113E-06 Eh
 * total energy  :   -86.6664599 Eh     change       -0.2148752E-06 Eh
 * total energy  :   -86.6664602 Eh     change       -0.3272834E-06 Eh
 * total energy  :   -86.6664606 Eh     change       -0.3426998E-06 Eh
 * total energy  :   -86.6664608 Eh     change       -0.2592887E-06 Eh
 * total energy  :   -86.6664610 Eh     change       -0.1529299E-06 Eh
 * total energy  :   -86.6664610 Eh     change       -0.1698479E-07 Eh
   *** GEOMETRY OPTIMIZATION CONVERGED AFTER 41 ITERATIONS ***

 final structure:
================
51
 xtb: 6.7.1 (edcfbbe)
O            3.07768683234639        2.55896537403938        0.64871450412086
C            2.58653207499318        1.94353640917279       -0.32288713353897
C            3.46228747399580        1.65126184069682       -1.53397665909146
C            3.81885115749277        0.22827300826076       -1.18354544879606
O            3.15321112955402       -0.70243584188783       -1.71581052759665
C            4.85163858690288       -0.03759824176509       -0.20196012699725
C            5.61646345000677        0.96989454782200        0.40724828133250
C            6.59783840939747        0.66723394075217        1.32708549493169
C            6.86309880731354       -0.65455921446187        1.66360579963737
C            6.13046700631282       -1.67121250452301        1.08309288324465
C            5.12881805274154       -1.38494321162345        0.15961562251101
O            4.43975597936399       -2.41386183165950       -0.36804946930236
C            1.23897610902849        1.42625518963944       -0.29816885435503
C            0.62348853673046        0.73287140851208       -1.36103792118779
C           -0.66384088480864        0.26818407720878       -1.24505252370210
C           -1.39957372863232        0.49906083465410       -0.07933138941991
N           -2.72637072158131        0.01386940569699        0.02794724385460
C           -3.78695913186981        0.89520217087758        0.08297672541311
C           -3.61222423662919        2.28091268299281        0.00526287277014
C           -4.70110405554125        3.12483387160818        0.06795475734661
C           -5.98905236776777        2.61410073568668        0.19995267259853
C           -6.18874246021907        1.24809669436705        0.25486211151509
C           -5.10075911102086        0.38690274866292        0.19134172207294
O           -5.35037203897548       -0.94602822304840        0.22487263220386
C           -4.30158590097135       -1.80415422538317        0.16077476046372
C           -4.57919192845203       -3.16451521932411        0.19997965427380
C           -3.54440856927223       -4.07917433816591        0.16143512426724
C           -2.22612682273758       -3.63699244144748        0.09914652939993
C           -1.93683878498562       -2.28920217593775        0.05809923788084
C           -2.96849610017163       -1.34458700003913        0.07115825239886
C           -0.81794543567561        1.20915081247642        0.97884400367286
C            0.47029135987503        1.65841454531149        0.86670924607081
H            4.31636510978180        2.32287195843600       -1.55864957949230
H            2.91685621561394        1.69149200575733       -2.47426807043412
H            5.42021962466669        2.00402672927718        0.17900102943361
H            7.16112853746142        1.46554829420679        1.78679926203717
H            7.63688046927166       -0.89016321968162        2.37858668922572
H            6.31166454524706       -2.70721235409466        1.32635233733900
H            3.78945635447433       -2.00298327163792       -1.00856434539390
H            1.16262691059781        0.53361770965975       -2.27124372435980
H           -1.12193911891430       -0.26508668153801       -2.06522759502001
H           -2.61760687249635        2.68024706256868       -0.10909283901864
H           -4.54714829544530        4.19052816791701        0.00851386032787
H           -6.83417986275085        3.28156161783417        0.24981112635659
H           -7.17500171458683        0.82179430357607        0.34128388557702
H           -5.60933440011128       -3.47540490223913        0.26426299949032
H           -3.76081187524756       -5.13492725820427        0.19021788975197
H           -1.41687168521152       -4.34973205002987        0.08607897655665
H           -0.91308323908252       -1.95356671869426        0.01989567335665
H           -1.38100263351787        1.37439111187449        1.88552513360277
H            0.94753226821538        2.19126851264089        1.67600476546604

          :  Hamiltonian                  GFN2-xTB          :
         :: gradient norm              0.000053774941 Eh/a0 ::
         :: HOMO-LUMO gap              0.404566565327 eV    ::
         :: SCC energy               -88.011421659475 Eh    ::
         :: -> dispersion             -0.064469124682 Eh    ::
         :: -> Gsolv                  -0.056177880344 Eh    ::
         :: repulsion energy           1.344960614024 Eh    ::

    * Orbital Energies and Occupations

         #    Occupation            Energy/Eh            Energy/eV
      -------------------------------------------------------------
         1        2.0000           -0.7758643             -21.1123
       ...           ...                  ...                  ...
        67        2.0000           -0.4457639             -12.1299
        68        2.0000           -0.4419366             -12.0257
        69        2.0000           -0.4327447             -11.7756
        70        2.0000           -0.4261216             -11.5954
        71        2.0000           -0.4228402             -11.5061
        72        2.0000           -0.4185320             -11.3888
        73        2.0000           -0.4126774             -11.2295
        74        2.0000           -0.4046216             -11.0103
        75        1.9998           -0.3855728             -10.4920
        76        1.9933           -0.3819856             -10.3944
        77        1.8483           -0.3788687             -10.3095
        78        1.1585           -0.3756470             -10.2219
        79        0.9996           -0.2909440              -7.9170 (HOMO)
        80        0.0004           -0.2760779              -7.5125 (LUMO)
        81                         -0.2658060              -7.2329
        82                         -0.2602936              -7.0830
        83                         -0.2461035              -6.6968
        84                         -0.2325207              -6.3272
        85                         -0.2295486              -6.2463
        86                         -0.2131190              -5.7993
        87                         -0.1988914              -5.4121
        88                         -0.1760127              -4.7895
        89                         -0.1362787              -3.7083
        90                         -0.1087994              -2.9606
       ...                                ...                  ...
       147                          0.6632246              18.0473
      -------------------------------------------------------------
                  HL-Gap            0.0148661 Eh            0.4045 eV

     #   Z          covCN         q      C6AA      α(0)
     1   8 O        0.857    -0.497    23.713     6.529
     2   6 C        2.888     0.190    23.956     8.024
     3   6 C        3.806    -0.083    22.076     6.689
     4   6 C        2.887     0.193    23.889     8.013
     5   8 O        0.859    -0.520    24.238     6.601
     6   6 C        2.963    -0.058    29.445     8.901
     7   6 C        2.919    -0.034    28.839     8.806
     8   6 C        2.915    -0.040    29.002     8.831
     9   6 C        2.917    -0.032    28.805     8.801
    10   6 C        2.915    -0.061    29.506     8.907
    11   6 C        2.848     0.152    24.692     8.144
    12   8 O        1.654    -0.426    21.364     6.240
    13   6 C        2.966    -0.021    28.524     8.760
    14   6 C        2.917    -0.033    28.832     8.805
    15   6 C        2.915    -0.038    28.938     8.821
    16   6 C        2.926     0.032    27.287     8.567
    17   7 N        2.752     0.019    20.924     6.794
    18   6 C        2.927     0.048    26.934     8.511
    19   6 C        2.918    -0.042    29.041     8.837
    20   6 C        2.917    -0.021    28.532     8.759
    21   6 C        2.918    -0.019    28.472     8.750
    22   6 C        2.915    -0.045    29.129     8.850
    23   6 C        2.888     0.139    24.977     8.194
    24   8 O        1.710    -0.189    17.166     5.594
    25   6 C        2.888     0.138    24.980     8.194
    26   6 C        2.915    -0.046    29.132     8.851
    27   6 C        2.918    -0.018    28.464     8.749
    28   6 C        2.917    -0.021    28.521     8.758
    29   6 C        2.918    -0.041    29.020     8.834
    30   6 C        2.927     0.048    26.930     8.510
    31   6 C        2.913    -0.040    28.988     8.829
    32   6 C        2.926    -0.028    28.697     8.785
    33   1 H        0.925     0.049     2.335     2.389
    34   1 H        0.925     0.052     2.296     2.369
    35   1 H        0.926     0.046     2.377     2.411
    36   1 H        0.926     0.038     2.476     2.461
    37   1 H        0.926     0.043     2.408     2.426
    38   1 H        0.926     0.046     2.368     2.406
    39   1 H        0.801     0.343     0.607     1.224
    40   1 H        0.926     0.052     2.291     2.367
    41   1 H        0.926     0.047     2.355     2.400
    42   1 H        0.926     0.068     2.105     2.269
    43   1 H        0.926     0.070     2.082     2.256
    44   1 H        0.926     0.074     2.040     2.233
    45   1 H        0.926     0.080     1.975     2.198
    46   1 H        0.926     0.081     1.969     2.194
    47   1 H        0.926     0.074     2.038     2.233
    48   1 H        0.926     0.069     2.093     2.263
    49   1 H        0.926     0.066     2.126     2.280
    50   1 H        0.926     0.049     2.337     2.390
    51   1 H        0.926     0.046     2.368     2.406

molecular dipole:
                 x           y           z       tot (Debye)
 q only:       -7.611      -0.816       0.287
   full:       -7.468      -0.608       0.133      19.048

 projected vibrational frequencies (cm⁻¹)
eigval :       -0.00    -0.00    -0.00     0.00     0.00     0.00
eigval :       10.14    15.91    27.13    33.47    45.68    51.96
eigval :       69.88    78.27   107.14   118.66   132.70   138.38
eigval :      159.60   175.45   208.44   237.16   239.13   258.27
eigval :      281.97   295.43   306.81   367.57   383.02   386.28
eigval :      390.09   394.74   410.29   416.88   423.99   434.87
eigval :      448.79   471.20   477.89   485.67   488.33   492.91
eigval :      527.59   535.65   537.89   545.80   563.25   583.63
eigval :      590.30   606.30   613.55   626.94   666.21   671.10
eigval :      676.44   685.20   693.63   728.29   748.30   761.51
eigval :      776.39   780.34   790.34   804.01   823.15   830.15
eigval :      835.45   848.58   858.01   871.70   872.67   892.27
eigval :      894.34   902.52   907.04   908.46   910.60   911.37
eigval :      913.10   923.04   925.30   935.99   988.28  1006.53
eigval :     1028.47  1073.74  1076.76  1078.43  1088.86  1117.35
eigval :     1121.41  1126.00  1135.47  1144.46  1163.01  1168.54
eigval :     1176.69  1180.10  1192.90  1195.62  1212.12  1213.34
eigval :     1233.39  1236.00  1243.84  1249.81  1260.84  1264.80
eigval :     1282.88  1291.33  1303.60  1322.57  1331.86  1340.82
eigval :     1344.66  1402.31  1405.91  1412.27  1414.30  1432.02
eigval :     1435.53  1440.06  1448.32  1455.14  1460.06  1477.26
eigval :     1525.88  1536.54  1537.22  1550.51  1553.40  1557.44
eigval :     1571.88  1574.08  2767.68  3008.97  3022.51  3077.56
eigval :     3078.32  3082.17  3086.06  3090.40  3096.78  3103.44
eigval :     3103.76  3110.28  3110.47  3117.57  3118.80  3118.85
eigval :     3120.77  3121.49  3123.43

   temp. (K)  partition function   enthalpy   heat capacity  entropy
                                   cal/mol     cal/K/mol   cal/K/mol   J/K/mol
 298.15  VIB  0.109E+12            14495.626     93.692     89.041
         ROT  0.259E+08              888.752      2.981     36.902
         INT  0.283E+19            15384.379     96.673    125.943
         TR   0.837E+28             1481.254      4.968     43.986
         TOT                       16865.6326   101.6408   169.9286   710.9813

       T/K    H(0)-H(T)+PV         H(T)/Eh          T*S/Eh         G(T)/Eh
   ------------------------------------------------------------------------
    298.15    0.268771E-01    0.404562E+00    0.807386E-01    0.323823E+00
   ------------------------------------------------------------------------

         :::::::::::::::::::::::::::::::::::::::::::::::::::::
         ::                  THERMODYNAMIC                  ::
         :::::::::::::::::::::::::::::::::::::::::::::::::::::
         :: total free energy         -86.342637604403 Eh   ::
         ::.................................................::
         :: total energy              -86.666461045936 Eh   ::
         :: zero point energy           0.377684908059 Eh   ::
         :: G(RRHO) w/o ZPVE           -0.053861466526 Eh   ::
         :: G(RRHO) contrib.            0.323823441533 Eh   ::
         :::::::::::::::::::::::::::::::::::::::::::::::::::::

           -------------------------------------------------
          | TOTAL ENERGY              -86.666461045936 Eh   |
          | TOTAL ENTHALPY            -86.261899041526 Eh   |
          | TOTAL FREE ENERGY         -86.342637604403 Eh   |
          | GRADIENT NORM               0.000043914067 Eh/α |
          | HOMO-LUMO GAP               0.404527334181 eV   |
           -------------------------------------------------

 * finished run on 2025/08/22 at 09:43:10.373
