   * xtb version 6.7.1 (edcfbbe) compiled by 'albert@albert-system' on 2024-07-22

   ID    Z sym.   atoms
    1    8 O      1, 5, 12, 24
    2    6 C      2-4, 6-11, 13-16, 18-23, 25-32
    3    7 N      17
    4    1 H      33-51

          program call               : xtb data2507/toluene/BZC-PXZ/BZC-PXZ.xyz --gfn 2 --gbsa toluene --ohess vtight --parallel 40 --molden --ceasefiles --namespace data2507/toluene/BZC-PXZ/BZC-PXZ_toluene_S0_preOpt
      * Solvation model:               GBSA
        Solvent                        toluene
        Solvent mass                       9.2140E+01 g/mol
          :  Hamiltonian                  GFN2-xTB          :
 * total energy  :   -86.7209828 Eh     change       -0.5548912E-09 Eh
 * total energy  :   -86.7285882 Eh     change       -0.7605384E-02 Eh
 * total energy  :   -86.7309962 Eh     change       -0.2408026E-02 Eh
 * total energy  :   -86.7316046 Eh     change       -0.6083558E-03 Eh
 * total energy  :   -86.7320541 Eh     change       -0.4494890E-03 Eh
 * total energy  :   -86.7322210 Eh     change       -0.1669953E-03 Eh
 * total energy  :   -86.7322926 Eh     change       -0.7160057E-04 Eh
 * total energy  :   -86.7323418 Eh     change       -0.4910733E-04 Eh
 * total energy  :   -86.7323809 Eh     change       -0.3911714E-04 Eh
 * total energy  :   -86.7324966 Eh     change       -0.1156865E-03 Eh
 * total energy  :   -86.7346305 Eh     change       -0.4675281E-06 Eh
 * total energy  :   -86.7346311 Eh     change       -0.6156697E-06 Eh
 * total energy  :   -86.7346317 Eh     change       -0.6405645E-06 Eh
 * total energy  :   -86.7346323 Eh     change       -0.5456950E-06 Eh
 * total energy  :   -86.7346326 Eh     change       -0.3364726E-06 Eh
 * total energy  :   -86.7346328 Eh     change       -0.2297590E-06 Eh
 * total energy  :   -86.7346330 Eh     change       -0.2074323E-06 Eh
 * total energy  :   -86.7346333 Eh     change       -0.2631310E-06 Eh
 * total energy  :   -86.7346333 Eh     change       -0.1791591E-08 Eh
   *** GEOMETRY OPTIMIZATION CONVERGED AFTER 94 ITERATIONS ***

 final structure:
================
51
 xtb: 6.7.1 (edcfbbe)
O            3.05342866914267       -0.04477320057673        1.57690160058336
C            2.49225973951188       -0.53345313000356        0.61509691954012
C            3.24912853669179       -1.33578178642269       -0.44028836487578
C            4.70269150394016       -1.52739050995330       -0.06906880588207
O            5.07709660057577       -2.64374067162052        0.29525040032389
C            5.60715078802103       -0.38626652481610       -0.14326083054239
C            5.18168972645629        0.88454993878257       -0.56112835715207
C            6.04924602422608        1.95005796272984       -0.60209604180253
C            7.37970217024392        1.77861343926729       -0.22876516869607
C            7.83063746158923        0.54566650279141        0.18261115317557
C            6.96206683332068       -0.54830540420371        0.23547152854081
O            7.46222982005537       -1.71981382810802        0.64734257259652
C            1.03699306172327       -0.40083122452193        0.41161163342050
C            0.36319733657274       -0.86530195540472       -0.72169097522169
C           -1.00203157608355       -0.71163010690876       -0.83477172414088
C           -1.73442228784629       -0.08796273193087        0.17739675253857
N           -3.12575188533814        0.05801287041279        0.05624069148626
C           -3.71874381704078        1.32714128717186        0.08038346555454
C           -2.97223068606100        2.49761829963502        0.15396493282687
C           -3.59121540832302        3.73818078966717        0.16416731614666
C           -4.96649165416724        3.83410900130353        0.08665565885990
C           -5.72434604826956        2.67835510474869       -0.02545808332197
C           -5.11048720423898        1.43857000983847       -0.03834916652707
O           -5.92922984983495        0.34621389453167       -0.19510768236681
C           -5.33389668144407       -0.89169601240131       -0.22272363281014
C           -6.17280733657886       -1.98217710510691       -0.36866882827904
C           -5.65625539792291       -3.26893902330885       -0.36443536805258
C           -4.29924589442590       -3.45407805219134       -0.18899251107983
C           -3.45472690833755       -2.36383638702876       -0.04602186880036
C           -3.94994398675381       -1.06551621741329       -0.08947814464906
C           -1.06691005985329        0.38573434079817        1.30812981162185
C            0.29633649192491        0.22861047504955        1.41874440585756
H            3.16046075744129       -0.83778892145468       -1.40596140888526
H            2.79230652187832       -2.32657448994522       -0.50577486147435
H            4.15405881887371        1.03824937438986       -0.84733015964467
H            5.69908947006632        2.91887581479060       -0.92284153395935
H            8.06198442927703        2.61458821047095       -0.26137273875848
H            8.85612146128613        0.38758510898615        0.47827594406256
H            6.72941312514776       -2.38214308523816        0.63988947779900
H            0.89895815250065       -1.33806073468528       -1.52870899522048
H           -1.51499569962463       -1.06292049632160       -1.71766550199746
H           -1.89607724292084        2.44346034037752        0.19470315969232
H           -2.98458609563470        4.62834952461811        0.22813408827156
H           -5.45412202765580        4.79608101321456        0.09902908805793
H           -6.79896034672176        2.71493754514939       -0.11199152893749
H           -7.23042736921502       -1.79990724117122       -0.47722583466526
H           -6.31759385530077       -4.11266711105103       -0.48267066975195
H           -3.88354635711430       -4.44942176031808       -0.15675304012727
H           -2.40090074288882       -2.52864259449176        0.11192737573915
H           -1.62706427801934        0.85866780027947        2.10054426149026
H            0.82076219714833        0.57738965758479        2.29612758942101

          :  Hamiltonian                  GFN2-xTB          :
         :: gradient norm              0.000034270731 Eh/a0 ::
         :: HOMO-LUMO gap              1.418253250095 eV    ::
         :: SCC energy               -88.096465673973 Eh    ::
         :: -> dispersion             -0.063040853055 Eh    ::
         :: -> Gsolv                  -0.040126754486 Eh    ::
         :: repulsion energy           1.361832373142 Eh    ::

    * Orbital Energies and Occupations

         #    Occupation            Energy/Eh            Energy/eV
      -------------------------------------------------------------
         1        2.0000           -0.7347144             -19.9926
       ...           ...                  ...                  ...
        66        2.0000           -0.4417844             -12.0216
        67        2.0000           -0.4384887             -11.9319
        68        2.0000           -0.4343278             -11.8187
        69        2.0000           -0.4267851             -11.6134
        70        2.0000           -0.4261474             -11.5961
        71        2.0000           -0.4232955             -11.5185
        72        2.0000           -0.4204118             -11.4400
        73        2.0000           -0.4177678             -11.3680
        74        2.0000           -0.4153132             -11.3012
        75        2.0000           -0.4030363             -10.9672
        76        2.0000           -0.3971130             -10.8060
        77        2.0000           -0.3952148             -10.7543
        78        2.0000           -0.3501980              -9.5294 (HOMO)
        79                         -0.2980781              -8.1111 (LUMO)
        80                         -0.2952762              -8.0349
        81                         -0.2468262              -6.7165
        82                         -0.2433136              -6.6209
        83                         -0.2344598              -6.3800
        84                         -0.2294460              -6.2435
        85                         -0.2247176              -6.1149
        86                         -0.2125876              -5.7848
        87                         -0.2057693              -5.5993
        88                         -0.1984679              -5.4006
        89                         -0.1095239              -2.9803
       ...                                ...                  ...
       147                          0.6674874              18.1633
      -------------------------------------------------------------
                  HL-Gap            0.0521198 Eh            1.4183 eV

     #   Z          covCN         q      C6AA      α(0)
     1   8 O        0.857    -0.409    21.855     6.268
     2   6 C        2.821     0.239    23.010     7.860
     3   6 C        3.805    -0.111    22.617     6.770
     4   6 C        2.822     0.239    23.003     7.859
     5   8 O        0.858    -0.441    22.508     6.361
     6   6 C        2.965    -0.052    29.296     8.878
     7   6 C        2.920    -0.022    28.558     8.763
     8   6 C        2.915    -0.038    28.952     8.823
     9   6 C        2.919    -0.017    28.423     8.743
    10   6 C        2.915    -0.054    29.337     8.882
    11   6 C        2.847     0.167    24.408     8.097
    12   8 O        1.658    -0.398    20.805     6.157
    13   6 C        2.969    -0.020    28.508     8.758
    14   6 C        2.919    -0.027    28.681     8.782
    15   6 C        2.920    -0.039    28.970     8.826
    16   6 C        2.920     0.075    26.335     8.416
    17   7 N        2.750    -0.063    22.459     7.039
    18   6 C        2.920     0.041    27.090     8.535
    19   6 C        2.924    -0.059    29.473     8.903
    20   6 C        2.919    -0.038    28.946     8.823
    21   6 C        2.919    -0.039    28.966     8.826
    22   6 C        2.920    -0.057    29.409     8.893
    23   6 C        2.883     0.124    25.277     8.242
    24   8 O        1.709    -0.267    18.429     5.796
    25   6 C        2.883     0.124    25.275     8.242
    26   6 C        2.920    -0.057    29.409     8.893
    27   6 C        2.919    -0.039    28.966     8.826
    28   6 C        2.919    -0.038    28.948     8.823
    29   6 C        2.924    -0.059    29.479     8.904
    30   6 C        2.921     0.041    27.091     8.535
    31   6 C        2.918    -0.038    28.949     8.823
    32   6 C        2.925    -0.014    28.373     8.735
    33   1 H        0.925     0.095     1.835     2.118
    34   1 H        0.924     0.089     1.889     2.149
    35   1 H        0.926     0.050     2.314     2.379
    36   1 H        0.926     0.052     2.290     2.367
    37   1 H        0.926     0.058     2.220     2.330
    38   1 H        0.926     0.060     2.199     2.319
    39   1 H        0.802     0.344     0.603     1.220
    40   1 H        0.926     0.062     2.180     2.309
    41   1 H        0.926     0.058     2.222     2.331
    42   1 H        0.926     0.043     2.406     2.426
    43   1 H        0.926     0.044     2.397     2.421
    44   1 H        0.926     0.044     2.390     2.418
    45   1 H        0.926     0.050     2.318     2.381
    46   1 H        0.926     0.050     2.318     2.381
    47   1 H        0.926     0.044     2.391     2.418
    48   1 H        0.926     0.044     2.400     2.423
    49   1 H        0.926     0.043     2.409     2.427
    50   1 H        0.926     0.056     2.251     2.346
    51   1 H        0.926     0.061     2.190     2.314

molecular dipole:
                 x           y           z       tot (Debye)
 q only:       -1.269       1.005      -1.417
   full:       -1.492       0.936      -1.505       5.888

 projected vibrational frequencies (cm⁻¹)
eigval :       -0.00    -0.00    -0.00    -0.00     0.00     0.00
eigval :        0.60    17.32    24.41    34.01    35.34    53.25
eigval :       63.04    75.73    99.40   112.81   126.68   130.17
eigval :      131.86   180.43   208.01   235.57   250.18   259.72
eigval :      261.64   279.90   293.48   326.33   374.79   377.11
eigval :      387.48   396.40   402.87   417.12   432.19   436.17
eigval :      447.42   451.84   469.20   485.68   489.20   509.56
eigval :      524.72   534.42   541.14   569.07   576.40   590.34
eigval :      603.26   608.64   623.38   655.75   659.69   666.02
eigval :      687.82   692.39   712.44   734.72   744.51   776.85
eigval :      777.38   780.06   797.40   820.01   826.74   835.33
eigval :      854.28   862.82   867.10   875.06   880.50   898.11
eigval :      901.02   913.09   914.38   915.55   916.59   917.32
eigval :      924.12   930.53   933.05   937.56   986.30  1022.57
eigval :     1030.74  1082.30  1090.20  1091.81  1097.58  1106.61
eigval :     1118.14  1134.12  1138.99  1167.76  1170.73  1173.17
eigval :     1181.72  1185.58  1188.71  1199.88  1205.78  1223.45
eigval :     1241.31  1242.90  1259.41  1259.86  1263.64  1272.46
eigval :     1284.21  1303.19  1306.99  1318.54  1333.27  1349.84
eigval :     1350.74  1405.36  1413.78  1421.46  1430.53  1439.78
eigval :     1450.14  1469.89  1476.58  1499.49  1547.28  1550.35
eigval :     1566.77  1569.66  1578.01  1587.80  1599.28  1599.88
eigval :     1622.13  1673.71  2976.45  2985.82  3047.31  3087.09
eigval :     3088.58  3089.60  3089.69  3091.77  3096.01  3097.85
eigval :     3098.49  3098.74  3106.37  3106.59  3106.90  3110.85
eigval :     3111.51  3111.70  3112.03

   temp. (K)  partition function   enthalpy   heat capacity  entropy
                                   cal/mol     cal/K/mol   cal/K/mol   J/K/mol
 298.15  VIB  0.104E+11            13993.934     91.820     84.919
         ROT  0.309E+08              888.752      2.981     37.252
         INT  0.322E+18            14882.686     94.801    122.171
         TR   0.837E+28             1481.254      4.968     43.986
         TOT                       16363.9404    99.7687   166.1570   695.2010

       T/K    H(0)-H(T)+PV         H(T)/Eh          T*S/Eh         G(T)/Eh
   ------------------------------------------------------------------------
    298.15    0.260776E-01    0.406426E+00    0.789466E-01    0.327479E+00
   ------------------------------------------------------------------------

         :::::::::::::::::::::::::::::::::::::::::::::::::::::
         ::                  THERMODYNAMIC                  ::
         :::::::::::::::::::::::::::::::::::::::::::::::::::::
         :: total free energy         -86.407153953280 Eh   ::
         ::.................................................::
         :: total energy              -86.734633304389 Eh   ::
         :: zero point energy           0.380348321429 Eh   ::
         :: G(RRHO) w/o ZPVE           -0.052868970321 Eh   ::
         :: G(RRHO) contrib.            0.327479351108 Eh   ::
         :::::::::::::::::::::::::::::::::::::::::::::::::::::

           -------------------------------------------------
          | TOTAL ENERGY              -86.734633304389 Eh   |
          | TOTAL ENTHALPY            -86.328207384079 Eh   |
          | TOTAL FREE ENERGY         -86.407153953280 Eh   |
          | GRADIENT NORM               0.000034271330 Eh/α |
          | HOMO-LUMO GAP               1.418252624454 eV   |
           -------------------------------------------------

 * finished run on 2025/08/22 at 09:37:02.416
