   * xtb version 6.7.1 (edcfbbe) compiled by 'albert@albert-system' on 2024-07-22

   ID    Z sym.   atoms
    1    6 C      1-4, 6-15, 17-29, 33-35
    2    7 N      5, 16, 30, 32
    3   16 S      31
    4    1 H      36-57

          program call               : xtb data2507/toluene/BTZ–DPA/BTZ–DPA.xyz --gfn 2 --gbsa toluene --ohess vtight --parallel 40 --molden --ceasefiles --namespace data2507/toluene/BTZ–DPA/BTZ–DPA_toluene_S0_preOpt
      * Solvation model:               GBSA
        Solvent                        toluene
        Solvent mass                       9.2140E+01 g/mol
          :  Hamiltonian                  GFN2-xTB          :
 * total energy  :   -90.4140973 Eh     change       -0.3109307E-08 Eh
 * total energy  :   -90.4305424 Eh     change       -0.1644517E-01 Eh
 * total energy  :   -90.4386154 Eh     change       -0.8072936E-02 Eh
 * total energy  :   -90.4418879 Eh     change       -0.3272580E-02 Eh
 * total energy  :   -90.4432467 Eh     change       -0.1358800E-02 Eh
 * total energy  :   -90.4436552 Eh     change       -0.4084940E-03 Eh
 * total energy  :   -90.4438865 Eh     change       -0.2312427E-03 Eh
 * total energy  :   -90.4440948 Eh     change       -0.2083087E-03 Eh
 * total energy  :   -90.4443066 Eh     change       -0.2118311E-03 Eh
 * total energy  :   -90.4444689 Eh     change       -0.1622795E-03 Eh
 * total energy  :   -90.4448830 Eh     change       -0.4345205E-06 Eh
 * total energy  :   -90.4448833 Eh     change       -0.2759092E-06 Eh
 * total energy  :   -90.4448835 Eh     change       -0.1835341E-06 Eh
 * total energy  :   -90.4448836 Eh     change       -0.1304271E-06 Eh
 * total energy  :   -90.4448837 Eh     change       -0.1011290E-06 Eh
 * total energy  :   -90.4448838 Eh     change       -0.1312037E-06 Eh
 * total energy  :   -90.4448840 Eh     change       -0.2031312E-06 Eh
 * total energy  :   -90.4448842 Eh     change       -0.1853517E-06 Eh
 * total energy  :   -90.4448842 Eh     change       -0.8891021E-09 Eh
   *** GEOMETRY OPTIMIZATION CONVERGED AFTER 44 ITERATIONS ***

 final structure:
================
57
 xtb: 6.7.1 (edcfbbe)
C            4.87635811849347        3.58103284644172       -0.00907463753282
C            5.33768706030865        2.51506577311077       -0.76445541452344
C            4.66740996611838        1.30706713242786       -0.75213658381113
C            3.52379867527717        1.14996773538546        0.02737919861456
N            2.83598143116259       -0.07306698087910        0.04728300692756
C            3.54643098130781       -1.27876567782663        0.06814283354056
C            3.07125794981548       -2.39881104504957       -0.61451207355826
C            3.78118060326972       -3.58369832837596       -0.58889471944673
C            4.97603391910268       -3.67209248054434        0.10739316986086
C            5.45540948400831       -2.56133508107859        0.78292621244589
C            4.74846416554388       -1.37426899975368        0.76999914760415
C            1.44483520088723       -0.06775448917585        0.05153723257369
C            0.69884953279918       -0.99081232809198        0.75911924097650
C           -0.69892310695077       -0.99070450604714        0.75920007976450
C           -1.44484951947778       -0.06750632832308        0.05174447125431
N           -2.83599732703926       -0.07264784515221        0.04768148568534
C           -3.52376250928860        1.15041212998301        0.02766455001383
C           -4.66733334363720        1.30748770505596       -0.75192100259990
C           -5.33759484332110        2.51549268309454       -0.76436146330377
C           -4.87631236227940        3.58149247901206       -0.00899906001443
C           -3.73985088176232        3.42881501067039        0.76824463710688
C           -3.06926581018026        2.22122286528169        0.79453852555361
C           -3.54648874445033       -1.27832494248026        0.06820164635260
C           -3.07124853624001       -2.39821932724811       -0.61465150478389
C           -3.78115243945685       -3.58311813354903       -0.58934477195368
C           -4.97606742891752       -3.67166663423729        0.10681498638555
C           -5.45551714048873       -2.56105318230206        0.78253223170518
C           -4.74857952864957       -1.37397889154455        0.76993241720509
C           -0.72068881893432        0.89252005952918       -0.69941329427550
N           -1.21700306052119        1.83841674242031       -1.49543838467160
S            0.00006731563272        2.64666925309319       -2.17104535876746
N            1.21709258786723        1.83822927128781       -1.49558264348937
C            0.72072541888880        0.89236384916544       -0.69955103877030
C            3.06927585738709        2.22073345206480        0.79429849672726
C            3.73985421011227        3.42832620391964        0.76809970816387
H            5.39975743818292        4.52520283525045       -0.02505617018691
H            6.22125929540925        2.62719840324962       -1.37568821051470
H            5.02000156960296        0.47952180653785       -1.35029212346088
H            2.14647995672183       -2.33044721694900       -1.16914196857544
H            3.40212874328629       -4.44165300421560       -1.12492055557682
H            5.52902797989083       -4.59903982180901        0.12244533491638
H            6.38373978970176       -2.62054799974400        1.33197165448744
H            5.12034118302844       -0.51250046000372        1.30458323909633
H            1.21426663161859       -1.73874894929145        1.34317650760285
H           -1.21439044182258       -1.73856012159031        1.34332636195132
H           -5.01991206116890        0.47990976820861       -1.35004015181106
H           -6.22115586839178        2.62757899413378       -1.37562301432046
H           -5.39969588624357        4.52567272398483       -0.02508217203488
H           -3.37764378688744        4.25268426513012        1.36613810136546
H           -2.18949769791703        2.09832388168535        1.41100511158366
H           -2.14643233976615       -2.32971812405584       -1.16920013485697
H           -3.40203683931852       -4.44094592010697       -1.12552594551821
H           -5.52904280451740       -4.59862737908673        0.12163236212973
H           -6.38388421960775       -2.62040402907257        1.33149849619900
H           -5.12050345291871       -0.51232865310878        1.30467530942120
H            2.18949354020115        2.09778564961580        1.41073337506696
H            3.37762119452925        4.25215136096380        1.36603426607530

          :  Hamiltonian                  GFN2-xTB          :
         :: gradient norm              0.000032046546 Eh/a0 ::
         :: HOMO-LUMO gap              1.107013215243 eV    ::
         :: SCC energy               -92.028463342922 Eh    ::
         :: -> dispersion             -0.082209277559 Eh    ::
         :: -> Gsolv                  -0.037652348585 Eh    ::
         :: repulsion energy           1.583579112412 Eh    ::

    * Orbital Energies and Occupations

         #    Occupation            Energy/Eh            Energy/eV
      -------------------------------------------------------------
         1        2.0000           -0.7613688             -20.7179
       ...           ...                  ...                  ...
        72        2.0000           -0.4232137             -11.5162
        73        2.0000           -0.4212809             -11.4636
        74        2.0000           -0.4144613             -11.2781
        75        2.0000           -0.4134363             -11.2502
        76        2.0000           -0.4100799             -11.1588
        77        2.0000           -0.4093050             -11.1378
        78        2.0000           -0.4083785             -11.1125
        79        2.0000           -0.4070348             -11.0760
        80        2.0000           -0.4056646             -11.0387
        81        2.0000           -0.4054927             -11.0340
        82        2.0000           -0.4009678             -10.9109
        83        2.0000           -0.3679322             -10.0119
        84        2.0000           -0.3440085              -9.3609 (HOMO)
        85                         -0.3033265              -8.2539 (LUMO)
        86                         -0.2328100              -6.3351
        87                         -0.2324049              -6.3241
        88                         -0.2300018              -6.2587
        89                         -0.2288932              -6.2285
        90                         -0.2278024              -6.1988
        91                         -0.2238771              -6.0920
        92                         -0.2235546              -6.0832
        93                         -0.2210200              -6.0143
        94                         -0.2173783              -5.9152
        95                         -0.2074633              -5.6454
       ...                                ...                  ...
       167                          0.7193049              19.5733
      -------------------------------------------------------------
                  HL-Gap            0.0406820 Eh            1.1070 eV

     #   Z          covCN         q      C6AA      α(0)
     1   6 C        2.919    -0.037    28.917     8.818
     2   6 C        2.920    -0.029    28.721     8.788
     3   6 C        2.922    -0.044    29.086     8.844
     4   6 C        2.927     0.072    26.390     8.425
     5   7 N        2.751    -0.072    22.631     7.065
     6   6 C        2.922     0.064    26.555     8.451
     7   6 C        2.922    -0.048    29.188     8.860
     8   6 C        2.919    -0.030    28.745     8.792
     9   6 C        2.919    -0.039    28.960     8.825
    10   6 C        2.919    -0.029    28.731     8.790
    11   6 C        2.922    -0.048    29.191     8.860
    12   6 C        2.913     0.043    27.029     8.525
    13   6 C        2.921    -0.061    29.525     8.911
    14   6 C        2.921    -0.061    29.525     8.911
    15   6 C        2.913     0.043    27.029     8.525
    16   7 N        2.751    -0.072    22.631     7.065
    17   6 C        2.927     0.072    26.390     8.425
    18   6 C        2.922    -0.044    29.086     8.844
    19   6 C        2.920    -0.029    28.721     8.788
    20   6 C        2.919    -0.037    28.917     8.818
    21   6 C        2.919    -0.030    28.738     8.791
    22   6 C        2.923    -0.042    29.042     8.838
    23   6 C        2.922     0.064    26.555     8.451
    24   6 C        2.922    -0.048    29.188     8.860
    25   6 C        2.919    -0.030    28.745     8.792
    26   6 C        2.919    -0.039    28.960     8.825
    27   6 C        2.919    -0.029    28.731     8.790
    28   6 C        2.922    -0.048    29.191     8.860
    29   6 C        3.341     0.072    23.955     7.737
    30   7 N        1.853    -0.281    28.146     7.863
    31  16 S        2.664     0.319   128.732    19.096
    32   7 N        1.853    -0.281    28.146     7.863
    33   6 C        3.341     0.072    23.955     7.737
    34   6 C        2.923    -0.042    29.042     8.838
    35   6 C        2.919    -0.030    28.738     8.791
    36   1 H        0.926     0.037     2.488     2.467
    37   1 H        0.926     0.039     2.468     2.457
    38   1 H        0.926     0.034     2.524     2.484
    39   1 H        0.926     0.026     2.637     2.540
    40   1 H        0.926     0.036     2.502     2.474
    41   1 H        0.926     0.036     2.501     2.473
    42   1 H        0.926     0.038     2.480     2.463
    43   1 H        0.926     0.034     2.535     2.490
    44   1 H        0.926     0.041     2.432     2.439
    45   1 H        0.926     0.041     2.432     2.439
    46   1 H        0.926     0.034     2.524     2.484
    47   1 H        0.926     0.039     2.468     2.457
    48   1 H        0.926     0.037     2.488     2.467
    49   1 H        0.926     0.035     2.518     2.481
    50   1 H        0.925     0.022     2.707     2.573
    51   1 H        0.926     0.026     2.637     2.540
    52   1 H        0.926     0.036     2.502     2.474
    53   1 H        0.926     0.036     2.501     2.473
    54   1 H        0.926     0.038     2.480     2.463
    55   1 H        0.926     0.034     2.535     2.490
    56   1 H        0.925     0.022     2.707     2.573
    57   1 H        0.926     0.035     2.518     2.481

molecular dipole:
                 x           y           z       tot (Debye)
 q only:        0.000      -0.059       0.096
   full:        0.000      -0.290       0.266       1.000

 projected vibrational frequencies (cm⁻¹)
eigval :       -0.00     0.00     0.00     0.00     0.00     0.00
eigval :       16.42    19.51    31.65    38.33    41.45    55.25
eigval :       60.20    60.38    66.34    74.43    85.42    85.70
eigval :      157.14   158.02   169.07   182.74   189.63   210.07
eigval :      228.17   237.97   241.04   265.58   303.83   313.86
eigval :      337.31   365.01   377.95   378.00   383.44   383.50
eigval :      389.91   408.42   465.07   468.63   476.79   485.03
eigval :      488.86   505.93   525.14   543.81   564.80   567.78
eigval :      585.46   587.22   589.85   591.00   610.72   629.77
eigval :      630.47   658.45   660.61   661.71   666.81   680.51
eigval :      719.62   727.86   755.83   755.91   756.92   759.75
eigval :      831.34   843.32   849.84   869.81   871.75   872.50
eigval :      873.39   873.76   890.28   890.56   891.99   892.35
eigval :      897.08   901.17   907.20   910.57   926.05   926.11
eigval :      926.95   927.15   927.24   927.54   928.27   928.31
eigval :      978.68   981.21  1003.24  1004.86  1072.95  1081.53
eigval :     1082.10  1082.81  1083.21  1112.54  1120.38  1121.73
eigval :     1123.58  1124.04  1178.61  1178.67  1179.32  1179.57
eigval :     1182.19  1190.16  1194.01  1194.40  1205.95  1216.57
eigval :     1268.79  1272.53  1276.83  1277.57  1282.80  1289.03
eigval :     1302.39  1310.68  1315.86  1318.93  1319.11  1325.52
eigval :     1325.87  1351.05  1351.28  1382.02  1433.30  1434.32
eigval :     1441.05  1441.73  1467.26  1470.94  1472.06  1473.13
eigval :     1482.71  1545.96  1552.38  1575.77  1576.29  1581.79
eigval :     1581.81  1590.97  1591.18  1596.29  1597.46  3064.72
eigval :     3064.78  3072.48  3072.57  3073.64  3073.67  3075.85
eigval :     3075.86  3077.55  3077.57  3082.01  3082.07  3084.37
eigval :     3084.43  3085.62  3087.35  3087.39  3093.70  3093.75
eigval :     3095.90  3096.06  3096.85

   temp. (K)  partition function   enthalpy   heat capacity  entropy
                                   cal/mol     cal/K/mol   cal/K/mol   J/K/mol
 298.15  VIB  0.177E+13            16108.036    102.292    100.231
         ROT  0.306E+08              888.752      2.981     37.237
         INT  0.543E+20            16996.789    105.273    137.468
         TR   0.988E+28             1481.254      4.968     44.315
         TOT                       18478.0427   110.2408   181.7821   760.5764

       T/K    H(0)-H(T)+PV         H(T)/Eh          T*S/Eh         G(T)/Eh
   ------------------------------------------------------------------------
    298.15    0.294466E-01    0.461086E+00    0.863706E-01    0.374715E+00
   ------------------------------------------------------------------------

         :::::::::::::::::::::::::::::::::::::::::::::::::::::
         ::                  THERMODYNAMIC                  ::
         :::::::::::::::::::::::::::::::::::::::::::::::::::::
         :: total free energy         -90.070168940971 Eh   ::
         ::.................................................::
         :: total energy              -90.444884230476 Eh   ::
         :: zero point energy           0.431639204347 Eh   ::
         :: G(RRHO) w/o ZPVE           -0.056923914842 Eh   ::
         :: G(RRHO) contrib.            0.374715289505 Eh   ::
         :::::::::::::::::::::::::::::::::::::::::::::::::::::

           -------------------------------------------------
          | TOTAL ENERGY              -90.444884230476 Eh   |
          | TOTAL ENTHALPY            -89.983798390739 Eh   |
          | TOTAL FREE ENERGY         -90.070168940971 Eh   |
          | GRADIENT NORM               0.000033088457 Eh/α |
          | HOMO-LUMO GAP               1.107013479136 eV   |
           -------------------------------------------------

 * finished run on 2025/09/04 at 05:37:01.007
