   * xtb version 6.7.1 (edcfbbe) compiled by 'albert@albert-system' on 2024-07-22

   ID    Z sym.   atoms
    1    6 C      1-4, 6-15, 17-29, 33-35
    2    7 N      5, 16, 30, 32
    3   16 S      31
    4    1 H      36-57

          program call               : xtb data2507/toluene/BTZ–DPA/BTZ–DPA_toluene_T1_crest.xyz --gfn 2 --uhf 2 --gbsa toluene --ohess vtight --parallel 40 --molden --ceasefiles --namespace data2507/toluene/BTZ–DPA/BTZ–DPA_toluene_T1_finalOpt
      * Solvation model:               GBSA
        Solvent                        toluene
        Solvent mass                       9.2140E+01 g/mol
          :  Hamiltonian                  GFN2-xTB          :
 * total energy  :   -90.3924423 Eh     change       -0.7932272E-08 Eh
 * total energy  :   -90.3925268 Eh     change       -0.8450032E-04 Eh
 * total energy  :   -90.3925777 Eh     change       -0.5084815E-04 Eh
 * total energy  :   -90.3925946 Eh     change       -0.1696097E-04 Eh
 * total energy  :   -90.3926105 Eh     change       -0.1584200E-04 Eh
 * total energy  :   -90.3926214 Eh     change       -0.1091312E-04 Eh
 * total energy  :   -90.3926278 Eh     change       -0.6459009E-05 Eh
 * total energy  :   -90.3926311 Eh     change       -0.3244319E-05 Eh
 * total energy  :   -90.3926342 Eh     change       -0.3101819E-05 Eh
 * total energy  :   -90.3926385 Eh     change       -0.4291353E-05 Eh
 * total energy  :   -90.3926524 Eh     change       -0.1046056E-05 Eh
 * total energy  :   -90.3926528 Eh     change       -0.4962934E-06 Eh
 * total energy  :   -90.3926534 Eh     change       -0.5043464E-06 Eh
 * total energy  :   -90.3926539 Eh     change       -0.5678664E-06 Eh
 * total energy  :   -90.3926545 Eh     change       -0.5521803E-06 Eh
 * total energy  :   -90.3926549 Eh     change       -0.3931308E-06 Eh
 * total energy  :   -90.3926551 Eh     change       -0.2726050E-06 Eh
 * total energy  :   -90.3926554 Eh     change       -0.2144474E-06 Eh
 * total energy  :   -90.3926554 Eh     change       -0.8222756E-08 Eh
   *** GEOMETRY OPTIMIZATION CONVERGED AFTER 22 ITERATIONS ***

 final structure:
================
57
 xtb: 6.7.1 (edcfbbe)
C            4.98123664543704       -3.23874805214553        0.47948289939592
C            3.83963085110591       -3.05279908571245        1.24347939392040
C            3.12207402873928       -1.87730449321084        1.15023118438491
C            3.54032495878315       -0.87110890511519        0.27983561327282
N            2.81258314050892        0.32276343009306        0.18694279008471
C            3.49159969108735        1.53858038918793        0.08125316406798
C            4.68719020427421        1.74104696853008        0.77563112588240
C            5.35529914862533        2.94459015927414        0.66935774776768
C            4.84583723653251        3.96387617114418       -0.12151664558692
C            3.66012149598568        3.76817804048107       -0.81296031550123
C            2.98549251360513        2.56697421208627       -0.71800326276526
C            1.43269531456505        0.28582810210408        0.17676615636706
C            0.68121466387879        1.33408900800046        0.77436330297223
C           -0.68233333458058        1.33325031945626        0.77398825522441
C           -1.43226270522586        0.28413097101572        0.17591653614921
N           -2.81217664504989        0.31934983441401        0.18579692755129
C           -3.49263995736076        1.53446113834979        0.08097504798686
C           -2.98812709265602        2.56376682820912       -0.71809617737137
C           -3.66421751116524        3.76421671245396       -0.81220763270478
C           -4.84982926048930        3.95821639065263       -0.12010022730987
C           -5.35768667243716        2.93801511317743        0.67063108898764
C           -4.68808550903093        1.73522898256631        0.77608162988984
C           -3.53873585023686       -0.87531057548282        0.27777944214722
C           -3.11974186203720       -1.88177444099430        1.14750266971004
C           -3.83641377001030       -3.05788103033723        1.23991367584038
C           -4.97783319239171       -3.24420507365441        0.47572810957244
C           -5.40049628337361       -2.24335638198255       -0.38504222178657
C           -4.68841965877708       -1.06450372922911       -0.48756784221448
C           -0.71897214717645       -0.78342035261504       -0.41089302929680
N           -1.24306257820383       -1.81892122307115       -1.06195019915359
S            0.00257279294644       -2.74747222930212       -1.64549987597021
N            1.24673265305894       -1.81769686544765       -1.06071291207190
C            0.72098656344600       -0.78269036697152       -0.41022403582681
C            4.69021605681188       -1.05989828879216       -0.48528877905890
C            5.40319261342264       -2.23813614353831       -0.38191044221166
H            5.53823026793176       -4.16040981774269        0.55417458077535
H            3.50907482958987       -3.82692452020771        1.92041311404950
H            2.23927320955910       -1.72278911264388        1.75415119348038
H            5.07612968413186        0.95192571373694        1.40185833189261
H            6.27625077647672        3.09110281472750        1.21361517086670
H            5.37096458378036        4.90333218719877       -0.20082961365504
H            3.26225706523780        4.55307780706731       -1.43888176543405
H            2.07424941234240        2.40345995838169       -1.27464853853843
H            1.21905419461265        2.12551235237538        1.27410683062308
H           -1.22138654643221        2.12398086555825        1.27351442451426
H           -2.07698343303641        2.40152182559260       -1.27527473495840
H           -3.26770153167086        4.54978306153874       -1.43814051091335
H           -5.37612256807382        4.89706587118255       -0.19878492219332
H           -6.27843573344081        3.08329181250441        1.21555221026860
H           -5.07569489260748        0.94541547699350        1.40226111603922
H           -2.23711201232935       -1.72700128689764        1.75160133770692
H           -3.50530016458027       -3.83221509287905        1.91633396563267
H           -5.53415146955033       -4.16632339331161        0.54982078098620
H           -6.28524595133914       -2.38574217441016       -0.98766950832238
H           -5.00503083627832       -0.29055017739991       -1.17141144938230
H            5.00624647883950       -0.28617945618897       -1.16966850336222
H            6.28806232912584       -2.38028223957024       -0.98441725132065

          :  Hamiltonian                  GFN2-xTB          :
         :: gradient norm              0.000057781114 Eh/a0 ::
         :: HOMO-LUMO gap              1.223768581016 eV    ::
         :: SCC energy               -91.964744646409 Eh    ::
         :: -> dispersion             -0.082411620581 Eh    ::
         :: -> Gsolv                  -0.041360823755 Eh    ::
         :: repulsion energy           1.572089285666 Eh    ::

    * Orbital Energies and Occupations

         #    Occupation            Energy/Eh            Energy/eV
      -------------------------------------------------------------
         1        2.0000           -0.7147805             -19.4502
       ...           ...                  ...                  ...
        73        2.0000           -0.4178931             -11.3714
        74        2.0000           -0.4177878             -11.3686
        75        2.0000           -0.4158565             -11.3160
        76        2.0000           -0.4148418             -11.2884
        77        2.0000           -0.4112174             -11.1898
        78        2.0000           -0.4109314             -11.1820
        79        2.0000           -0.3936830             -10.7127
        80        2.0000           -0.3935762             -10.7098
        81        2.0000           -0.3878634             -10.5543
        82        2.0000           -0.3772272             -10.2649
        83        2.0000           -0.3727757             -10.1437
        84        1.0000           -0.3430348              -9.3345
        85        1.0000           -0.2847621              -7.7488 (HOMO)
        86                         -0.2397894              -6.5250 (LUMO)
        87                         -0.2394180              -6.5149
        88                         -0.2354479              -6.4069
        89                         -0.2351291              -6.3982
        90                         -0.2290223              -6.2320
        91                         -0.2283178              -6.2128
        92                         -0.2258809              -6.1465
        93                         -0.2173929              -5.9156
        94                         -0.2028932              -5.5210
        95                         -0.1948187              -5.3013
        96                         -0.1873819              -5.0989
       ...                                ...                  ...
       167                          0.7016915              19.0940
      -------------------------------------------------------------
                  HL-Gap            0.0449727 Eh            1.2238 eV

     #   Z          covCN         q      C6AA      α(0)
     1   6 C        2.919    -0.031    28.766     8.795
     2   6 C        2.919    -0.026    28.640     8.776
     3   6 C        2.922    -0.031    28.775     8.797
     4   6 C        2.930     0.073    26.364     8.421
     5   7 N        2.752    -0.032    21.863     6.944
     6   6 C        2.927     0.064    26.574     8.454
     7   6 C        2.921    -0.043    29.064     8.841
     8   6 C        2.918    -0.026    28.663     8.779
     9   6 C        2.919    -0.032    28.807     8.801
    10   6 C        2.918    -0.027    28.678     8.782
    11   6 C        2.921    -0.041    29.009     8.832
    12   6 C        2.918     0.028    27.381     8.581
    13   6 C        2.912    -0.061    29.519     8.909
    14   6 C        2.912    -0.061    29.519     8.909
    15   6 C        2.918     0.028    27.381     8.581
    16   7 N        2.752    -0.032    21.863     6.944
    17   6 C        2.927     0.064    26.574     8.454
    18   6 C        2.921    -0.041    29.009     8.832
    19   6 C        2.918    -0.027    28.678     8.782
    20   6 C        2.919    -0.032    28.807     8.801
    21   6 C        2.918    -0.026    28.663     8.779
    22   6 C        2.921    -0.043    29.064     8.841
    23   6 C        2.930     0.073    26.364     8.421
    24   6 C        2.922    -0.031    28.775     8.797
    25   6 C        2.919    -0.026    28.640     8.776
    26   6 C        2.919    -0.031    28.767     8.795
    27   6 C        2.919    -0.027    28.671     8.781
    28   6 C        2.922    -0.039    28.961     8.825
    29   6 C        3.279     0.082    24.825     8.018
    30   7 N        1.847    -0.323    29.224     8.012
    31  16 S        2.564     0.093   137.305    19.722
    32   7 N        1.847    -0.323    29.224     8.012
    33   6 C        3.279     0.082    24.825     8.018
    34   6 C        2.922    -0.039    28.960     8.825
    35   6 C        2.919    -0.027    28.671     8.781
    36   1 H        0.926     0.044     2.400     2.423
    37   1 H        0.926     0.041     2.437     2.441
    38   1 H        0.926     0.028     2.611     2.527
    39   1 H        0.926     0.041     2.441     2.443
    40   1 H        0.926     0.046     2.372     2.409
    41   1 H        0.926     0.045     2.387     2.416
    42   1 H        0.926     0.044     2.399     2.422
    43   1 H        0.926     0.034     2.524     2.484
    44   1 H        0.926     0.038     2.475     2.460
    45   1 H        0.926     0.038     2.475     2.460
    46   1 H        0.926     0.034     2.524     2.484
    47   1 H        0.926     0.044     2.398     2.422
    48   1 H        0.926     0.045     2.387     2.416
    49   1 H        0.926     0.046     2.372     2.409
    50   1 H        0.926     0.041     2.441     2.443
    51   1 H        0.926     0.028     2.611     2.527
    52   1 H        0.926     0.041     2.437     2.441
    53   1 H        0.926     0.044     2.400     2.423
    54   1 H        0.926     0.045     2.384     2.414
    55   1 H        0.926     0.040     2.449     2.447
    56   1 H        0.926     0.040     2.449     2.447
    57   1 H        0.926     0.045     2.384     2.414

molecular dipole:
                 x           y           z       tot (Debye)
 q only:       -0.001       1.707       1.009
   full:       -0.002       2.016       1.184       5.943

 projected vibrational frequencies (cm⁻¹)
eigval :       -0.00    -0.00    -0.00     0.00     0.00     0.00
eigval :       19.38    19.40    33.08    39.70    44.69    57.82
eigval :       60.73    64.49    66.99    70.73    86.16    86.68
eigval :      153.36   161.09   166.96   170.48   190.39   209.94
eigval :      229.71   239.43   246.05   267.48   302.98   314.20
eigval :      320.03   363.85   377.67   378.18   381.36   384.01
eigval :      384.32   409.39   413.61   457.75   469.89   485.24
eigval :      494.45   509.66   518.78   542.77   544.12   562.39
eigval :      582.54   585.67   587.48   590.19   599.00   619.59
eigval :      620.72   655.75   658.27   658.94   663.77   676.02
eigval :      687.68   714.67   753.47   754.69   755.12   756.62
eigval :      767.20   799.02   811.72   847.60   855.32   866.97
eigval :      868.22   869.27   870.11   884.96   892.83   893.09
eigval :      896.01   896.54   905.47   908.42   924.28   924.50
eigval :      925.73   926.00   926.05   926.15   927.28   927.66
eigval :      976.66   979.52  1000.78  1001.81  1060.04  1078.58
eigval :     1078.60  1080.22  1080.27  1117.79  1119.11  1119.42
eigval :     1122.74  1127.06  1175.98  1176.28  1177.01  1177.21
eigval :     1181.91  1182.58  1189.04  1190.05  1206.86  1208.12
eigval :     1253.18  1271.68  1272.91  1276.49  1278.82  1288.37
eigval :     1299.03  1299.97  1316.18  1320.16  1321.16  1326.88
eigval :     1326.98  1343.76  1353.91  1408.65  1430.60  1431.50
eigval :     1434.78  1438.37  1445.77  1455.91  1455.98  1457.60
eigval :     1462.71  1472.53  1547.37  1564.43  1564.65  1572.90
eigval :     1572.91  1578.73  1578.91  1586.85  1587.85  3071.30
eigval :     3071.34  3077.89  3077.94  3077.96  3078.14  3081.51
eigval :     3081.54  3082.23  3082.33  3083.55  3087.20  3087.24
eigval :     3087.69  3087.76  3091.91  3091.94  3095.84  3096.77
eigval :     3097.17  3100.45  3100.79

   temp. (K)  partition function   enthalpy   heat capacity  entropy
                                   cal/mol     cal/K/mol   cal/K/mol   J/K/mol
 298.15  VIB  0.142E+13            16235.714    103.478    100.823
         ROT  0.305E+08              888.752      2.981     37.229
         INT  0.434E+20            17124.466    106.459    138.051
         TR   0.988E+28             1481.254      4.968     44.315
         TOT                       18605.7200   111.4273   182.3658   763.0185

       T/K    H(0)-H(T)+PV         H(T)/Eh          T*S/Eh         G(T)/Eh
   ------------------------------------------------------------------------
    298.15    0.296501E-01    0.459669E+00    0.866479E-01    0.373021E+00
   ------------------------------------------------------------------------

         :::::::::::::::::::::::::::::::::::::::::::::::::::::
         ::                  THERMODYNAMIC                  ::
         :::::::::::::::::::::::::::::::::::::::::::::::::::::
         :: total free energy         -90.019634068211 Eh   ::
         ::.................................................::
         :: total energy              -90.392655358479 Eh   ::
         :: zero point energy           0.430019065557 Eh   ::
         :: G(RRHO) w/o ZPVE           -0.056997775289 Eh   ::
         :: G(RRHO) contrib.            0.373021290268 Eh   ::
         :::::::::::::::::::::::::::::::::::::::::::::::::::::

           -------------------------------------------------
          | TOTAL ENERGY              -90.392655358479 Eh   |
          | TOTAL ENTHALPY            -89.932986190836 Eh   |
          | TOTAL FREE ENERGY         -90.019634068211 Eh   |
          | GRADIENT NORM               0.000057643313 Eh/α |
          | HOMO-LUMO GAP               1.223768718526 eV   |
           -------------------------------------------------

 * finished run on 2025/09/04 at 05:43:20.669
