   * xtb version 6.7.1 (edcfbbe) compiled by 'albert@albert-system' on 2024-07-22

   ID    Z sym.   atoms
    1    6 C      1-4, 6-15, 17-29, 33-35
    2    7 N      5, 16, 30, 32
    3   16 S      31
    4    1 H      36-57

          program call               : xtb data2507/toluene/BTZ–DPA/BTZ–DPA_toluene_S0_finalOpt.xtbopt.xyz --gfn 2 --uhf 2 --gbsa toluene --ohess vtight --parallel 40 --molden --ceasefiles --namespace data2507/toluene/BTZ–DPA/BTZ–DPA_toluene_T1_preOpt
      * Solvation model:               GBSA
        Solvent                        toluene
        Solvent mass                       9.2140E+01 g/mol
          :  Hamiltonian                  GFN2-xTB          :
 * total energy  :   -90.3862719 Eh     change       -0.4996053E-08 Eh
 * total energy  :   -90.3906517 Eh     change       -0.4379809E-02 Eh
 * total energy  :   -90.3922497 Eh     change       -0.1597972E-02 Eh
 * total energy  :   -90.3924414 Eh     change       -0.1916646E-03 Eh
 * total energy  :   -90.3925131 Eh     change       -0.7175961E-04 Eh
 * total energy  :   -90.3925331 Eh     change       -0.1995295E-04 Eh
 * total energy  :   -90.3925513 Eh     change       -0.1821433E-04 Eh
 * total energy  :   -90.3925621 Eh     change       -0.1085813E-04 Eh
 * total energy  :   -90.3925817 Eh     change       -0.1958190E-04 Eh
 * total energy  :   -90.3925919 Eh     change       -0.1013745E-04 Eh
 * total energy  :   -90.3926502 Eh     change       -0.4747689E-06 Eh
 * total energy  :   -90.3926507 Eh     change       -0.4418383E-06 Eh
 * total energy  :   -90.3926510 Eh     change       -0.3686893E-06 Eh
 * total energy  :   -90.3926514 Eh     change       -0.3041381E-06 Eh
 * total energy  :   -90.3926516 Eh     change       -0.2676923E-06 Eh
 * total energy  :   -90.3926519 Eh     change       -0.2613552E-06 Eh
 * total energy  :   -90.3926522 Eh     change       -0.2686080E-06 Eh
 * total energy  :   -90.3926524 Eh     change       -0.2827127E-06 Eh
 * total energy  :   -90.3926524 Eh     change       -0.2621420E-08 Eh
   *** GEOMETRY OPTIMIZATION CONVERGED AFTER 44 ITERATIONS ***

 final structure:
================
57
 xtb: 6.7.1 (edcfbbe)
C            4.95692345954579       -3.27004335219602        0.50426105446424
C            3.81127620297937       -3.07736411789166        1.26047363949921
C            3.10184686440696       -1.89729708515191        1.16303294053684
C            3.53230083982338       -0.89329024220895        0.29609859238720
N            2.81258581826738        0.30526028695970        0.19904446034070
C            3.50028138783903        1.51678018710686        0.10211273177931
C            4.69215036722834        1.70879136960791        0.80587129655503
C            5.36986543347944        2.90759887164848        0.70765957361736
C            4.87370874367487        3.93257555232803       -0.08432313874552
C            3.69148839352025        3.74744327663649       -0.78461174316076
C            3.00728651485322        2.55102690459942       -0.69774407694984
C            1.43263000627844        0.27567588199971        0.17990680636348
C            0.68211674095802        1.32565417650743        0.77568765677014
C           -0.68152371094929        1.32600474205549        0.77543609668701
C           -1.43236190156476        0.27640518136420        0.17939585784351
N           -2.81230875006340        0.30672012439131        0.19800697045826
C           -3.49932007448517        1.51861585196664        0.10086166924589
C           -3.00551656353839        2.55259623494861       -0.69883968713555
C           -3.68902146938131        3.74939875608663       -0.78588564759324
C           -4.87133370819380        3.93518553491681       -0.08592530930127
C           -5.36829787180579        2.91047216210600        0.70589147085220
C           -4.69129117865399        1.71127746524311        0.80426857109500
C           -3.53269925860806       -0.89144397439317        0.29478957783902
C           -3.10306391449552       -1.89571282614117        1.16182835063527
C           -3.81314942515155       -3.07540765010788        1.25898995085374
C           -4.95864466186123       -3.26745141075793        0.50238513661052
C           -5.39201926905438       -2.26871127824603       -0.35549070948474
C           -4.68648300983061       -1.08633906149427       -0.46283133507935
C           -0.71993747790223       -0.78939535316907       -0.41165434495396
N           -1.24509902352217       -1.82315338472022       -1.06465342558521
S           -0.00030613215584       -2.75115499025804       -1.65096767903573
N            1.24474738556276       -1.82374614397970       -1.06426669044234
C            0.71987338469737       -0.78974983177061       -0.41141461280131
C            4.68623008805478       -1.08882888943743       -0.46113410442993
C            5.39110951338684       -2.27156721373518       -0.35351167938178
H            5.50761785859389       -4.19520264245606        0.58232483940459
H            3.47116150791770       -3.84971905472087        1.93466912619159
H            2.21598705494441       -1.73753267586094        1.76110528272759
H            5.07059425626584        0.91527147513149        1.43297693031331
H            6.28781452692987        3.04592395802313        1.25908754885586
H            5.40641640607465        4.86825513283107       -0.15752926600681
H            3.30404002241218        4.53688398587955       -1.41135795288212
H            2.09881340511109        2.39576810352018       -1.26124043658427
H            1.22052809499008        2.11660771981578        1.27554876116723
H           -1.21971193016499        2.11723441396700        1.27510053469810
H           -2.09696726909221        2.39683829037784       -1.26207538192390
H           -3.30094070453530        4.53864070767952       -1.41249074180091
H           -5.40349417312170        4.87116562640258       -0.15926582611379
H           -6.28634232969302        3.04929594789565        1.25703514650855
H           -5.07037061396511        0.91795366356721        1.43123823439953
H           -2.21731150953032       -1.73644125651448        1.76019072945968
H           -3.47363743233176       -3.84799144913013        1.93322827068522
H           -5.50983523832388       -4.19233610539399        0.58020160851509
H           -6.28009569684351       -2.41546628925122       -0.95213382377422
H           -5.01149320480205       -0.31401492857298       -1.14455032898206
H            5.01185795579742       -0.31671701409885       -1.14279721722836
H            6.27929715497058       -2.41881726378382       -0.94986713693521

          :  Hamiltonian                  GFN2-xTB          :
         :: gradient norm              0.000045114317 Eh/a0 ::
         :: HOMO-LUMO gap              1.223414402581 eV    ::
         :: SCC energy               -91.964767962777 Eh    ::
         :: -> dispersion             -0.082417082748 Eh    ::
         :: -> Gsolv                  -0.041367312268 Eh    ::
         :: repulsion energy           1.572115526457 Eh    ::

    * Orbital Energies and Occupations

         #    Occupation            Energy/Eh            Energy/eV
      -------------------------------------------------------------
         1        2.0000           -0.7147535             -19.4494
       ...           ...                  ...                  ...
        73        2.0000           -0.4178808             -11.3711
        74        2.0000           -0.4177797             -11.3684
        75        2.0000           -0.4158601             -11.3161
        76        2.0000           -0.4148449             -11.2885
        77        2.0000           -0.4112536             -11.1908
        78        2.0000           -0.4109592             -11.1828
        79        2.0000           -0.3936859             -10.7127
        80        2.0000           -0.3935187             -10.7082
        81        2.0000           -0.3878456             -10.5538
        82        2.0000           -0.3772405             -10.2652
        83        2.0000           -0.3727902             -10.1441
        84        1.0000           -0.3430552              -9.3350
        85        1.0000           -0.2847330              -7.7480 (HOMO)
        86                         -0.2397734              -6.5246 (LUMO)
        87                         -0.2394163              -6.5148
        88                         -0.2354239              -6.4062
        89                         -0.2351183              -6.3979
        90                         -0.2290522              -6.2328
        91                         -0.2283545              -6.2138
        92                         -0.2259452              -6.1483
        93                         -0.2174183              -5.9163
        94                         -0.2029034              -5.5213
        95                         -0.1948167              -5.3012
        96                         -0.1873700              -5.0986
       ...                                ...                  ...
       167                          0.7016007              19.0915
      -------------------------------------------------------------
                  HL-Gap            0.0449597 Eh            1.2234 eV

     #   Z          covCN         q      C6AA      α(0)
     1   6 C        2.919    -0.031    28.766     8.795
     2   6 C        2.919    -0.026    28.640     8.776
     3   6 C        2.922    -0.031    28.776     8.797
     4   6 C        2.930     0.073    26.363     8.420
     5   7 N        2.752    -0.032    21.862     6.944
     6   6 C        2.927     0.064    26.574     8.454
     7   6 C        2.921    -0.043    29.065     8.841
     8   6 C        2.918    -0.026    28.663     8.779
     9   6 C        2.919    -0.032    28.807     8.802
    10   6 C        2.918    -0.027    28.678     8.782
    11   6 C        2.921    -0.041    29.010     8.833
    12   6 C        2.918     0.028    27.381     8.581
    13   6 C        2.912    -0.061    29.520     8.909
    14   6 C        2.912    -0.061    29.520     8.909
    15   6 C        2.918     0.028    27.381     8.581
    16   7 N        2.752    -0.032    21.862     6.944
    17   6 C        2.927     0.064    26.574     8.454
    18   6 C        2.921    -0.041    29.010     8.833
    19   6 C        2.918    -0.027    28.678     8.782
    20   6 C        2.919    -0.032    28.807     8.802
    21   6 C        2.918    -0.026    28.663     8.779
    22   6 C        2.921    -0.043    29.065     8.841
    23   6 C        2.930     0.073    26.363     8.420
    24   6 C        2.922    -0.031    28.776     8.797
    25   6 C        2.919    -0.026    28.640     8.776
    26   6 C        2.919    -0.031    28.766     8.795
    27   6 C        2.919    -0.027    28.670     8.781
    28   6 C        2.922    -0.039    28.959     8.825
    29   6 C        3.280     0.082    24.824     8.018
    30   7 N        1.847    -0.323    29.226     8.012
    31  16 S        2.564     0.093   137.307    19.722
    32   7 N        1.847    -0.323    29.226     8.012
    33   6 C        3.280     0.082    24.824     8.018
    34   6 C        2.922    -0.039    28.959     8.825
    35   6 C        2.919    -0.027    28.670     8.781
    36   1 H        0.926     0.044     2.400     2.423
    37   1 H        0.926     0.041     2.437     2.441
    38   1 H        0.926     0.028     2.613     2.528
    39   1 H        0.926     0.041     2.441     2.443
    40   1 H        0.926     0.046     2.373     2.409
    41   1 H        0.926     0.045     2.388     2.416
    42   1 H        0.926     0.044     2.399     2.422
    43   1 H        0.926     0.035     2.522     2.484
    44   1 H        0.926     0.038     2.475     2.460
    45   1 H        0.926     0.038     2.475     2.460
    46   1 H        0.926     0.035     2.522     2.484
    47   1 H        0.926     0.044     2.399     2.422
    48   1 H        0.926     0.045     2.388     2.416
    49   1 H        0.926     0.046     2.373     2.409
    50   1 H        0.926     0.041     2.441     2.443
    51   1 H        0.926     0.028     2.613     2.528
    52   1 H        0.926     0.041     2.437     2.441
    53   1 H        0.926     0.044     2.400     2.423
    54   1 H        0.926     0.045     2.383     2.414
    55   1 H        0.926     0.040     2.448     2.447
    56   1 H        0.926     0.040     2.448     2.447
    57   1 H        0.926     0.045     2.383     2.414

molecular dipole:
                 x           y           z       tot (Debye)
 q only:        0.000       1.691       1.030
   full:        0.000       2.002       1.205       5.939

 projected vibrational frequencies (cm⁻¹)
eigval :       -0.00    -0.00    -0.00     0.00     0.00     0.00
eigval :       19.56    19.84    33.59    41.19    44.84    58.04
eigval :       61.24    64.60    67.14    70.32    86.26    86.65
eigval :      153.79   161.31   167.59   170.29   190.05   211.92
eigval :      229.65   239.58   246.08   267.43   303.22   314.35
eigval :      319.71   363.98   377.57   378.04   381.27   383.96
eigval :      384.48   409.34   413.75   457.56   469.80   485.29
eigval :      494.47   509.54   518.98   543.09   544.17   562.43
eigval :      582.63   585.69   587.47   590.27   599.05   619.59
eigval :      620.73   655.48   658.07   658.79   663.67   676.02
eigval :      688.16   714.72   753.98   755.09   755.20   756.86
eigval :      767.21   798.77   811.70   847.62   855.39   867.50
eigval :      868.79   869.66   870.50   884.95   893.19   893.52
eigval :      896.25   896.80   905.47   908.40   924.66   924.80
eigval :      926.19   926.36   926.62   926.83   927.61   928.04
eigval :      976.66   979.51  1000.81  1001.83  1060.20  1078.52
eigval :     1078.54  1080.50  1080.50  1118.12  1119.27  1119.55
eigval :     1123.07  1127.20  1176.23  1176.46  1177.40  1177.60
eigval :     1181.94  1182.64  1189.21  1190.34  1207.09  1208.33
eigval :     1253.20  1271.70  1272.83  1276.95  1279.17  1288.47
eigval :     1299.07  1300.27  1316.61  1320.17  1321.21  1326.90
eigval :     1327.00  1343.79  1353.87  1408.75  1430.68  1431.61
eigval :     1434.83  1438.49  1445.88  1455.96  1456.06  1457.66
eigval :     1462.79  1472.64  1547.15  1564.43  1564.65  1572.99
eigval :     1573.01  1578.77  1578.96  1586.90  1587.90  3071.48
eigval :     3071.50  3077.94  3078.11  3078.12  3078.18  3081.37
eigval :     3081.39  3082.34  3082.44  3083.63  3087.17  3087.20
eigval :     3087.87  3087.93  3091.90  3091.91  3095.91  3096.85
eigval :     3097.25  3100.24  3100.60

   temp. (K)  partition function   enthalpy   heat capacity  entropy
                                   cal/mol     cal/K/mol   cal/K/mol   J/K/mol
 298.15  VIB  0.129E+13            16226.840    103.514    100.750
         ROT  0.305E+08              888.752      2.981     37.229
         INT  0.393E+20            17115.592    106.495    137.980
         TR   0.988E+28             1481.254      4.968     44.315
         TOT                       18596.8460   111.4627   182.2941   762.7185

       T/K    H(0)-H(T)+PV         H(T)/Eh          T*S/Eh         G(T)/Eh
   ------------------------------------------------------------------------
    298.15    0.296360E-01    0.459705E+00    0.866138E-01    0.373091E+00
   ------------------------------------------------------------------------

         :::::::::::::::::::::::::::::::::::::::::::::::::::::
         ::                  THERMODYNAMIC                  ::
         :::::::::::::::::::::::::::::::::::::::::::::::::::::
         :: total free energy         -90.019561205609 Eh   ::
         ::.................................................::
         :: total energy              -90.392652434189 Eh   ::
         :: zero point energy           0.430069076757 Eh   ::
         :: G(RRHO) w/o ZPVE           -0.056977848177 Eh   ::
         :: G(RRHO) contrib.            0.373091228580 Eh   ::
         :::::::::::::::::::::::::::::::::::::::::::::::::::::

           -------------------------------------------------
          | TOTAL ENERGY              -90.392652434189 Eh   |
          | TOTAL ENTHALPY            -89.932947396967 Eh   |
          | TOTAL FREE ENERGY         -90.019561205609 Eh   |
          | GRADIENT NORM               0.000045115997 Eh/α |
          | HOMO-LUMO GAP               1.223414515274 eV   |
           -------------------------------------------------

 * finished run on 2025/09/04 at 05:40:04.332
