   * xtb version 6.7.1 (edcfbbe) compiled by 'albert@albert-system' on 2024-07-22

   ID    Z sym.   atoms
    1    6 C      1-4, 6-15, 17-29, 33-35
    2    7 N      5, 16, 30, 32
    3   16 S      31
    4    1 H      36-57

          program call               : xtb data2507/toluene/BTZ–DPA/BTZ–DPA_toluene_S0_crest.xyz --gfn 2 --gbsa toluene --ohess vtight --parallel 40 --molden --ceasefiles --namespace data2507/toluene/BTZ–DPA/BTZ–DPA_toluene_S0_finalOpt
      * Solvation model:               GBSA
        Solvent                        toluene
        Solvent mass                       9.2140E+01 g/mol
          :  Hamiltonian                  GFN2-xTB          :
 * total energy  :   -90.4447512 Eh     change       -0.7247593E-08 Eh
 * total energy  :   -90.4448094 Eh     change       -0.5816802E-04 Eh
 * total energy  :   -90.4448469 Eh     change       -0.3743772E-04 Eh
 * total energy  :   -90.4448591 Eh     change       -0.1220291E-04 Eh
 * total energy  :   -90.4448669 Eh     change       -0.7853093E-05 Eh
 * total energy  :   -90.4448715 Eh     change       -0.4575181E-05 Eh
 * total energy  :   -90.4448743 Eh     change       -0.2794294E-05 Eh
 * total energy  :   -90.4448756 Eh     change       -0.1325472E-05 Eh
 * total energy  :   -90.4448760 Eh     change       -0.3935445E-06 Eh
 * total energy  :   -90.4448765 Eh     change       -0.5119584E-06 Eh
 * total energy  :   -90.4448772 Eh     change       -0.6992323E-06 Eh
 * total energy  :   -90.4448780 Eh     change       -0.8180584E-06 Eh
 * total energy  :   -90.4448787 Eh     change       -0.6324069E-06 Eh
 * total energy  :   -90.4448787 Eh     change       -0.9013918E-07 Eh
 * total energy  :   -90.4448790 Eh     change       -0.2199925E-06 Eh
 * total energy  :   -90.4448790 Eh     change        0.1242503E-07 Eh
 * total energy  :   -90.4448791 Eh     change       -0.1439006E-06 Eh
 * total energy  :   -90.4448792 Eh     change       -0.1082927E-06 Eh
 * total energy  :   -90.4448792 Eh     change       -0.1466573E-07 Eh
   *** GEOMETRY OPTIMIZATION CONVERGED AFTER 19 ITERATIONS ***

 final structure:
================
57
 xtb: 6.7.1 (edcfbbe)
C            4.87232829294562       -3.31332344406753        0.52134268930561
C            3.73082017654502       -3.08450257569551        1.27208420969085
C            3.06116732707441       -1.88008237322580        1.17478363060817
C            3.52180833558386       -0.89008057767107        0.30921882744298
N            2.83584731074524        0.32937338744708        0.20468287349941
C            3.54844245996104        1.52975002223907        0.10226305748477
C            4.74552318538769        1.69775842587488        0.79880984783937
C            5.45566385250772        2.87790287952269        0.68909518822239
C            4.98416323325594        3.91002351650453       -0.10611285782287
C            3.79395070932661        3.74975142110983       -0.79748368735212
C            3.08044091464715        2.57076884333669       -0.69981217883705
C            1.44471186421768        0.32675769101204        0.20554544995390
C            0.69905454257096        1.31712524729539        0.81565765649114
C           -0.69876064795550        1.31694634681659        0.81592616745452
C           -1.44456949053373        0.32693142252037        0.20539584600916
N           -2.83574748018840        0.33022758093498        0.20414738148137
C           -3.54737889201512        1.53104968946967        0.09982340098229
C           -3.07830134713536        2.57050598356207       -0.70365904692854
C           -3.79082630655003        3.74992387363571       -0.80328329786228
C           -4.98106108836462        3.91222179069828       -0.11241409809473
C           -5.45361735289374        2.88167391732237        0.68421827439015
C           -4.74450273853458        1.70108664061275        0.79582339871716
C           -3.52247362193321       -0.88864945305666        0.30946478814601
C           -3.06194132214524       -1.87872608722219        1.17503090151563
C           -3.73223447181536       -3.08271879944506        1.27301722655007
C           -4.87444753685678       -3.31097649984945        0.52316530768759
C           -5.34104152112045       -2.32513512523543       -0.33128243304651
C           -4.67102424393725       -1.12214985064709       -0.44330493547711
C           -0.72066277844336       -0.70204198528330       -0.44843307463226
N           -1.21726801772763       -1.71991798771966       -1.14984256679538
S           -0.00015957275506       -2.58939602554845       -1.74468364712190
N            1.21703710809928       -1.71994590831381       -1.14986408585232
C            0.72064815300003       -0.70220578449284       -0.44813966498166
C            4.66974545574077       -1.12407502342457       -0.44431746090722
C            5.33902636597635       -2.32755454347468       -0.33312078520827
H            5.39515815877732       -4.25444014733774        0.60221982779460
H            3.36377294607303       -3.84560609255680        1.94547092744423
H            2.17769724960377       -1.69646385481316        1.77057741514329
H            5.11090494693279        0.89734467429164        1.42539329050118
H            6.37994367226669        2.99453566339391        1.23580327864441
H            5.53971780722893        4.83198875937568       -0.18720916415174
H            3.42130887025710        4.54574944355357       -1.42565062481671
H            2.15917343817675        2.44432271701413       -1.25010974168743
H            1.21475086673342        2.11969301376256        1.32177718981506
H           -1.21439322463096        2.11985387299038        1.32155711424919
H           -2.15684493343816        2.44259933069598       -1.25329653026325
H           -3.41739217159026        4.54466829780402       -1.43257850413631
H           -5.53606419163484        4.83435316875666       -0.19540136096202
H           -6.37823631917156        2.99965454995757        1.23002416390476
H           -5.11082182039513        0.90182012098283        1.42330766754101
H           -2.17808103162941       -1.69546151662327        1.77034985376693
H           -3.36544217346854       -3.84371241866846        1.94667919316648
H           -5.39804192628755       -4.25159939389181        0.60490655230849
H           -6.22846651771534       -2.49733838354372       -0.92268429911650
H           -5.02760650790205       -0.35791364592936       -1.11838418945096
H            5.02651413152308       -0.35974691620482       -1.11918367004296
H            6.22595243551118       -2.50018785005119       -0.92513851140380

          :  Hamiltonian                  GFN2-xTB          :
         :: gradient norm              0.000179576083 Eh/a0 ::
         :: HOMO-LUMO gap              1.107226879069 eV    ::
         :: SCC energy               -92.028508959935 Eh    ::
         :: -> dispersion             -0.082195736233 Eh    ::
         :: -> Gsolv                  -0.037661009621 Eh    ::
         :: repulsion energy           1.583629735070 Eh    ::

    * Orbital Energies and Occupations

         #    Occupation            Energy/Eh            Energy/eV
      -------------------------------------------------------------
         1        2.0000           -0.7613990             -20.7187
       ...           ...                  ...                  ...
        72        2.0000           -0.4232187             -11.5164
        73        2.0000           -0.4212926             -11.4640
        74        2.0000           -0.4144355             -11.2774
        75        2.0000           -0.4134742             -11.2512
        76        2.0000           -0.4101564             -11.1609
        77        2.0000           -0.4093892             -11.1400
        78        2.0000           -0.4084537             -11.1146
        79        2.0000           -0.4070537             -11.0765
        80        2.0000           -0.4056562             -11.0385
        81        2.0000           -0.4055042             -11.0343
        82        2.0000           -0.4010219             -10.9124
        83        2.0000           -0.3679079             -10.0113
        84        2.0000           -0.3440640              -9.3625 (HOMO)
        85                         -0.3033742              -8.2552 (LUMO)
        86                         -0.2328653              -6.3366
        87                         -0.2324454              -6.3252
        88                         -0.2299936              -6.2584
        89                         -0.2289425              -6.2298
        90                         -0.2278906              -6.2012
        91                         -0.2238549              -6.0914
        92                         -0.2235296              -6.0826
        93                         -0.2210583              -6.0153
        94                         -0.2174211              -5.9163
        95                         -0.2074755              -5.6457
       ...                                ...                  ...
       167                          0.7191583              19.5693
      -------------------------------------------------------------
                  HL-Gap            0.0406898 Eh            1.1072 eV

     #   Z          covCN         q      C6AA      α(0)
     1   6 C        2.919    -0.037    28.919     8.819
     2   6 C        2.919    -0.030    28.738     8.791
     3   6 C        2.923    -0.042    29.044     8.838
     4   6 C        2.927     0.072    26.391     8.425
     5   7 N        2.751    -0.072    22.631     7.066
     6   6 C        2.923     0.065    26.555     8.451
     7   6 C        2.922    -0.048    29.188     8.860
     8   6 C        2.919    -0.029    28.731     8.790
     9   6 C        2.919    -0.038    28.957     8.824
    10   6 C        2.919    -0.030    28.744     8.792
    11   6 C        2.922    -0.048    29.185     8.859
    12   6 C        2.913     0.043    27.028     8.525
    13   6 C        2.921    -0.061    29.524     8.910
    14   6 C        2.921    -0.061    29.523     8.910
    15   6 C        2.913     0.043    27.029     8.525
    16   7 N        2.751    -0.072    22.632     7.066
    17   6 C        2.923     0.065    26.555     8.451
    18   6 C        2.922    -0.048    29.185     8.859
    19   6 C        2.919    -0.030    28.744     8.792
    20   6 C        2.919    -0.038    28.957     8.824
    21   6 C        2.919    -0.029    28.731     8.790
    22   6 C        2.922    -0.048    29.187     8.860
    23   6 C        2.927     0.072    26.391     8.425
    24   6 C        2.923    -0.042    29.045     8.838
    25   6 C        2.919    -0.030    28.739     8.791
    26   6 C        2.919    -0.037    28.920     8.819
    27   6 C        2.920    -0.029    28.722     8.788
    28   6 C        2.922    -0.044    29.090     8.845
    29   6 C        3.342     0.072    23.948     7.735
    30   7 N        1.853    -0.281    28.146     7.863
    31  16 S        2.664     0.319   128.732    19.096
    32   7 N        1.853    -0.281    28.146     7.863
    33   6 C        3.341     0.072    23.953     7.737
    34   6 C        2.922    -0.044    29.089     8.845
    35   6 C        2.920    -0.029    28.722     8.788
    36   1 H        0.926     0.037     2.489     2.467
    37   1 H        0.926     0.035     2.519     2.482
    38   1 H        0.925     0.022     2.709     2.574
    39   1 H        0.926     0.034     2.534     2.490
    40   1 H        0.926     0.038     2.479     2.462
    41   1 H        0.926     0.036     2.500     2.472
    42   1 H        0.926     0.036     2.501     2.473
    43   1 H        0.926     0.026     2.637     2.540
    44   1 H        0.926     0.041     2.433     2.439
    45   1 H        0.926     0.041     2.433     2.439
    46   1 H        0.926     0.026     2.638     2.540
    47   1 H        0.926     0.036     2.501     2.473
    48   1 H        0.926     0.036     2.500     2.472
    49   1 H        0.926     0.038     2.479     2.462
    50   1 H        0.926     0.034     2.534     2.489
    51   1 H        0.925     0.022     2.710     2.574
    52   1 H        0.926     0.035     2.519     2.482
    53   1 H        0.926     0.037     2.490     2.467
    54   1 H        0.926     0.038     2.469     2.457
    55   1 H        0.926     0.034     2.525     2.485
    56   1 H        0.926     0.034     2.525     2.485
    57   1 H        0.926     0.038     2.469     2.457

molecular dipole:
                 x           y           z       tot (Debye)
 q only:        0.002       0.085       0.090
   full:        0.002       0.330       0.235       1.029

 projected vibrational frequencies (cm⁻¹)
eigval :       -0.00    -0.00    -0.00     0.00     0.00     0.00
eigval :       15.23    19.44    29.59    37.77    39.20    55.40
eigval :       59.37    59.47    67.09    75.35    84.11    84.48
eigval :      156.92   158.56   169.09   189.36   194.79   208.73
eigval :      227.79   237.39   241.60   265.67   304.16   314.34
eigval :      338.54   364.34   378.06   378.26   383.13   383.41
eigval :      389.17   407.93   464.39   467.76   475.71   483.36
eigval :      487.48   505.82   525.01   544.43   564.90   567.89
eigval :      585.15   587.07   589.73   590.74   610.78   629.49
eigval :      630.33   658.08   660.01   660.79   666.38   680.65
eigval :      720.72   727.78   755.45   755.90   757.64   760.15
eigval :      835.80   843.00   849.79   868.31   871.24   872.19
eigval :      874.93   875.19   890.79   891.16   892.08   893.63
eigval :      897.50   904.30   907.28   910.67   925.93   926.00
eigval :      927.59   927.63   928.10   928.37   928.46   928.57
eigval :      978.78   981.38  1003.50  1005.11  1072.87  1081.63
eigval :     1082.33  1082.88  1083.25  1113.74  1120.78  1122.11
eigval :     1123.76  1124.42  1177.57  1177.75  1178.89  1179.10
eigval :     1183.29  1191.29  1194.39  1194.79  1206.25  1216.90
eigval :     1269.23  1273.56  1277.08  1277.91  1283.23  1288.99
eigval :     1302.75  1310.72  1315.81  1318.94  1319.07  1325.55
eigval :     1325.88  1350.68  1351.56  1382.14  1433.21  1434.18
eigval :     1440.80  1441.53  1467.33  1471.16  1472.05  1472.97
eigval :     1482.81  1546.11  1552.44  1575.77  1576.30  1581.65
eigval :     1581.70  1591.16  1591.34  1596.33  1597.52  3064.19
eigval :     3064.24  3073.18  3073.27  3073.55  3073.62  3075.39
eigval :     3075.54  3076.88  3076.95  3082.31  3082.37  3084.20
eigval :     3084.32  3086.38  3087.27  3087.35  3093.70  3093.78
eigval :     3095.86  3095.90  3097.49

   temp. (K)  partition function   enthalpy   heat capacity  entropy
                                   cal/mol     cal/K/mol   cal/K/mol   J/K/mol
 298.15  VIB  0.216E+13            16109.481    102.163    100.268
         ROT  0.306E+08              888.752      2.981     37.236
         INT  0.661E+20            16998.233    105.144    137.504
         TR   0.988E+28             1481.254      4.968     44.315
         TOT                       18479.4869   110.1118   181.8189   760.7303

       T/K    H(0)-H(T)+PV         H(T)/Eh          T*S/Eh         G(T)/Eh
   ------------------------------------------------------------------------
    298.15    0.294489E-01    0.461125E+00    0.863880E-01    0.374737E+00
   ------------------------------------------------------------------------

         :::::::::::::::::::::::::::::::::::::::::::::::::::::
         ::                  THERMODYNAMIC                  ::
         :::::::::::::::::::::::::::::::::::::::::::::::::::::
         :: total free energy         -90.070142591876 Eh   ::
         ::.................................................::
         :: total energy              -90.444879223664 Eh   ::
         :: zero point energy           0.431675728886 Eh   ::
         :: G(RRHO) w/o ZPVE           -0.056939097098 Eh   ::
         :: G(RRHO) contrib.            0.374736631788 Eh   ::
         :::::::::::::::::::::::::::::::::::::::::::::::::::::

           -------------------------------------------------
          | TOTAL ENERGY              -90.444879223664 Eh   |
          | TOTAL ENTHALPY            -89.983754557920 Eh   |
          | TOTAL FREE ENERGY         -90.070142591876 Eh   |
          | GRADIENT NORM               0.000179636075 Eh/α |
          | HOMO-LUMO GAP               1.107226337459 eV   |
           -------------------------------------------------

 * finished run on 2025/09/04 at 05:40:00.313
