   * xtb version 6.7.1 (edcfbbe) compiled by 'albert@albert-system' on 2024-07-22

   ID    Z sym.   atoms
    1    7 N      1, 5, 12, 31
    2    6 C      2-4, 6-11, 13-30, 32-44
    3    1 H      45-72

          program call               : xtb data2507/gas/3-DPM/3-DPM_gas_T1_crest.xyz --gfn 2 --spinpol --tblite --uhf 2 --ohess vtight --parallel 40 --molden --ceasefiles --namespace data2507/gas/3-DPM/3-DPM_gas_T1_finalOpt
 * total energy  :  -111.4723506 Eh     change       -0.1250734E-07 Eh
 * total energy  :  -111.4723751 Eh     change       -0.2453944E-04 Eh
 * total energy  :  -111.4723886 Eh     change       -0.1344000E-04 Eh
 * total energy  :  -111.4723972 Eh     change       -0.8578515E-05 Eh
 * total energy  :  -111.4724115 Eh     change       -0.1432701E-04 Eh
 * total energy  :  -111.4724220 Eh     change       -0.1055549E-04 Eh
 * total energy  :  -111.4724268 Eh     change       -0.4798303E-05 Eh
 * total energy  :  -111.4724332 Eh     change       -0.6344346E-05 Eh
 * total energy  :  -111.4724406 Eh     change       -0.7445107E-05 Eh
 * total energy  :  -111.4724535 Eh     change       -0.1289471E-04 Eh
 * total energy  :  -111.4725348 Eh     change       -0.1016826E-05 Eh
 * total energy  :  -111.4725357 Eh     change       -0.8876387E-06 Eh
 * total energy  :  -111.4725364 Eh     change       -0.7618779E-06 Eh
 * total energy  :  -111.4725372 Eh     change       -0.7480675E-06 Eh
 * total energy  :  -111.4725381 Eh     change       -0.8987856E-06 Eh
 * total energy  :  -111.4725392 Eh     change       -0.1166466E-05 Eh
 * total energy  :  -111.4725407 Eh     change       -0.1416070E-05 Eh
 * total energy  :  -111.4725412 Eh     change       -0.5566654E-06 Eh
 * total energy  :  -111.4725412 Eh     change       -0.2196259E-08 Eh
   *** GEOMETRY OPTIMIZATION CONVERGED AFTER 44 ITERATIONS ***

 final structure:
================
72
 xtb: 6.7.1 (edcfbbe)
N            1.47636122580489        2.68543247319439        1.58534740589936
C            0.81546028230623        2.07202134043391        0.86144883617507
C           -0.00105643591383        1.34447206662618        0.00899150970400
C           -0.81704635898839        2.07862419690230       -0.83822496242451
N           -1.47686208767700        2.69806315165714       -1.55795198804882
C           -0.00066032334181       -0.10532825618061        0.00333320061601
C            1.20659781244102       -0.79787107429074        0.34119930536507
C            1.17140492742975       -2.06977541103001        0.95371518025107
C            2.33696291429133       -2.71882429097753        1.29912035220021
C            3.57116514024843       -2.14220480204538        1.05322817823540
C            3.63272495086088       -0.87948786143024        0.44536856501427
N            4.87434220860609       -0.28990472320636        0.19198190310002
C            5.95378385893664       -1.07631549454157       -0.20733139414529
C            7.25021484090147       -0.76122239607501        0.20655758549772
C            8.31564232652672       -1.54317719629870       -0.19174900455176
C            8.11157525540841       -2.64973002952010       -1.00144365437936
C            6.82754195253289       -2.96819770711764       -1.41408271408025
C            5.75481456407354       -2.19044983140943       -1.02611184812830
C            5.02729724545436        1.09642280687142        0.32239566173261
C            5.82016339299530        1.80410995568011       -0.58228850933496
C            5.97070290993695        3.16988143549639       -0.44754854168172
C            5.33464723746000        3.84709661208812        0.58158001129382
C            4.54551489316873        3.14849020533107        1.48058130656574
C            4.39121999835589        1.78187455878473        1.35765007022321
C            2.46319478653222       -0.22184022193809        0.10025051312270
C           -1.20666999452764       -0.79667009361633       -0.34077142276600
C           -1.16893842366925       -2.06456365134231       -0.96159828040714
C           -2.33306845900884       -2.71222144120548       -1.31419913074546
C           -3.56833863880534       -2.13811716993456       -1.06783600000908
C           -3.63257672177046       -0.87958297864923       -0.45146688214089
N           -4.87540798265571       -0.29292189377486       -0.19778934609957
C           -5.95661583969261       -1.08361460354693        0.18849911725139
C           -5.76177078569911       -2.20412405703239        0.99948776308553
C           -6.83621282309858       -2.98600289083990        1.37424203486218
C           -8.11787297347526       -2.66542349014735        0.95589752968677
C           -8.31785795159259       -1.55250181392647        0.15395568010800
C           -7.25066197355282       -0.76630339823465       -0.23105563353275
C           -5.02933039715657        1.09440161406678       -0.31613269669627
C           -4.38943094789845        1.79039008621864       -1.34193952516216
C           -4.54490772112036        3.15792660119780       -1.45265925674894
C           -5.33916609438929        3.84702235199202       -0.55084352160277
C           -5.97930123271790        3.15928260270228        0.46873620516118
C           -5.82753616223195        1.79250542566386        0.59131768203933
C           -2.46442130959047       -0.22345753567489       -0.09875247922921
H            0.21640829029430       -2.51246447218919        1.19314306904438
H            2.28979832110890       -3.68291730642125        1.78422644682518
H            4.48146590454909       -2.63995093135127        1.35027960345690
H            7.40847125037595        0.09164879686733        0.84981617239678
H            9.31236857193475       -1.29219936330164        0.13921947206168
H            8.94757580685977       -3.25870760894634       -1.30945169729728
H            6.66105879960366       -3.82382839485518       -2.05151042272495
H            4.75712955018325       -2.42926780673285       -1.36358932687651
H            6.30049330474131        1.27790822677272       -1.39463624574336
H            6.57922746887945        3.71011762265549       -1.15774946945585
H            5.45104720060858        4.91571878574871        0.67806929781301
H            4.03740760330179        3.66511944976051        2.27856116602523
H            3.77917076794801        1.24042619622019        2.06213119923093
H            2.52769049901166        0.73533834325964       -0.39607788869758
H           -0.21301933950744       -2.50486283470459       -1.20171327902830
H           -2.28391983267498       -3.67304978359213       -1.80554682782104
H           -4.47737513326914       -2.63445126098526       -1.37103190609960
H           -4.76600805945914       -2.44476590190374        1.34132441938715
H           -6.67299287293814       -3.84667986580283        2.00568847448888
H           -8.95521748420284       -3.27773363794302        1.25347288809985
H           -9.31269019707968       -1.29973786784961       -0.18132033230839
H           -7.40560415603050        0.09169970553265       -0.86827194705862
H           -3.77348023558062        1.25645365069899       -2.04874219576148
H           -4.03365840393469        3.68264941031759       -2.24331514867707
H           -5.45649061400999        4.91636500760419       -0.63778094904887
H           -6.59206509097737        3.69197010400288        1.18099308813594
H           -6.31111788580310        1.25803195614366        1.39630477579284
H           -2.53083873413066        0.73025207127197        0.40394973496159

 projected vibrational frequencies (cm⁻¹)
eigval :       -0.00    -0.00    -0.00    -0.00     0.00     0.00
eigval :       11.65    11.74    16.33    20.53    33.67    35.68
eigval :       40.29    56.15    63.35    66.86    71.33    73.28
eigval :       75.69    79.31    84.70    88.24   109.88   110.40
eigval :      128.17   136.90   173.39   189.53   204.36   223.51
eigval :      225.84   231.88   239.62   241.65   259.32   280.37
eigval :      294.11   299.32   325.12   327.73   334.69   362.96
eigval :      376.71   376.94   380.83   382.11   383.71   386.11
eigval :      391.25   411.58   418.46   432.04   441.73   469.77
eigval :      471.20   471.86   497.21   497.78   518.54   551.12
eigval :      579.20   580.58   580.92   582.13   588.26   588.28
eigval :      594.23   597.70   598.31   609.30   623.08   648.14
eigval :      651.34   657.80   660.03   660.42   663.80   668.52
eigval :      704.91   744.54   755.48   755.55   758.01   764.77
eigval :      773.63   782.43   860.62   863.76   866.34   868.30
eigval :      868.84   871.43   872.07   878.81   882.48   891.77
eigval :      893.52   894.14   897.68   897.91   909.16   909.57
eigval :      917.08   925.77   925.87   926.07   926.89   926.98
eigval :      927.35   927.73   928.36   928.44   969.53   972.94
eigval :      978.45   988.35  1002.35  1002.38  1016.64  1050.95
eigval :     1080.26  1080.31  1082.13  1082.16  1121.30  1121.31
eigval :     1123.44  1123.48  1132.24  1137.49  1163.74  1174.58
eigval :     1177.28  1177.35  1178.89  1178.92  1182.86  1188.28
eigval :     1190.73  1191.21  1193.16  1202.69  1213.63  1250.67
eigval :     1262.93  1271.83  1274.06  1274.20  1274.53  1275.61
eigval :     1288.57  1299.29  1299.70  1306.95  1309.90  1319.98
eigval :     1320.54  1327.25  1327.28  1336.12  1340.47  1348.97
eigval :     1415.32  1418.23  1433.19  1433.84  1435.37  1439.98
eigval :     1442.28  1455.15  1458.01  1459.33  1462.39  1462.86
eigval :     1513.22  1519.21  1533.20  1559.76  1569.10  1569.52
eigval :     1573.23  1573.33  1583.56  1583.69  1591.52  1592.33
eigval :     2218.91  2298.30  3075.69  3075.72  3076.15  3076.83
eigval :     3080.20  3080.29  3081.69  3081.70  3085.60  3085.67
eigval :     3087.78  3088.08  3089.54  3090.01  3090.85  3092.56
eigval :     3093.38  3093.44  3095.23  3095.65  3096.91  3097.87
eigval :     3100.17  3100.27  3100.36  3100.99  3116.00  3116.20

   temp. (K)  partition function   enthalpy   heat capacity  entropy
                                   cal/mol     cal/K/mol   cal/K/mol   J/K/mol
 298.15  VIB  0.287E+18            21747.948    133.940    137.501
         ROT  0.324E+08              888.752      2.981     37.349
         INT  0.930E+25            22636.700    136.921    174.850
         TR   0.130E+29             1481.254      4.968     44.858
         TOT                       24117.9543   141.8895   219.7075   919.2561

       T/K    H(0)-H(T)+PV         H(T)/Eh          T*S/Eh         G(T)/Eh
   ------------------------------------------------------------------------
    298.15    0.384344E-01    0.585815E+00    0.104390E+00    0.481425E+00
   ------------------------------------------------------------------------

         :::::::::::::::::::::::::::::::::::::::::::::::::::::
         ::                  THERMODYNAMIC                  ::
         :::::::::::::::::::::::::::::::::::::::::::::::::::::
         :: total free energy        -110.991116166238 Eh   ::
         ::.................................................::
         :: total energy             -111.472541208699 Eh   ::
         :: zero point energy           0.547380745742 Eh   ::
         :: G(RRHO) w/o ZPVE           -0.065955703280 Eh   ::
         :: G(RRHO) contrib.            0.481425042462 Eh   ::
         :::::::::::::::::::::::::::::::::::::::::::::::::::::

           -------------------------------------------------
          | TOTAL ENERGY             -111.472541208699 Eh   |
          | TOTAL ENTHALPY           -110.886726056385 Eh   |
          | TOTAL FREE ENERGY        -110.991116166238 Eh   |
          | GRADIENT NORM               0.000076404942 Eh/α |
           -------------------------------------------------

 * finished run on 2025/09/14 at 07:34:01.558
