   * xtb version 6.7.1 (edcfbbe) compiled by 'albert@albert-system' on 2024-07-22

   ID    Z sym.   atoms
    1    7 N      1, 5, 12, 31
    2    6 C      2-4, 6-11, 13-30, 32-44
    3    1 H      45-72

          program call               : xtb data2507/gas/3-DPM/3-DPM_gas_S0_finalOpt.xtbopt.xyz --gfn 2 --spinpol --tblite --uhf 2 --ohess vtight --parallel 40 --molden --ceasefiles --namespace data2507/gas/3-DPM/3-DPM_gas_T1_preOpt
 * total energy  :  -111.4587708 Eh     change        0.4975389E-07 Eh
 * total energy  :  -111.4643793 Eh     change       -0.5608503E-02 Eh
 * total energy  :  -111.4659271 Eh     change       -0.1547726E-02 Eh
 * total energy  :  -111.4660249 Eh     change       -0.9779280E-04 Eh
 * total energy  :  -111.4664406 Eh     change       -0.4157670E-03 Eh
 * total energy  :  -111.4666446 Eh     change       -0.2039670E-03 Eh
 * total energy  :  -111.4668543 Eh     change       -0.2097512E-03 Eh
 * total energy  :  -111.4670040 Eh     change       -0.1496832E-03 Eh
 * total energy  :  -111.4671263 Eh     change       -0.1222379E-03 Eh
 * total energy  :  -111.4672478 Eh     change       -0.1215561E-03 Eh
 * total energy  :  -111.4706228 Eh     change       -0.1087710E-06 Eh
 * total energy  :  -111.4706231 Eh     change       -0.2454770E-06 Eh
 * total energy  :  -111.4706235 Eh     change       -0.4552860E-06 Eh
 * total energy  :  -111.4706238 Eh     change       -0.2338482E-06 Eh
 * total energy  :  -111.4706240 Eh     change       -0.2422866E-06 Eh
 * total energy  :  -111.4706242 Eh     change       -0.2024730E-06 Eh
 * total energy  :  -111.4706245 Eh     change       -0.3264594E-06 Eh
 * total energy  :  -111.4706245 Eh     change        0.6563980E-08 Eh
 * total energy  :  -111.4706246 Eh     change       -0.7014462E-07 Eh
   *** GEOMETRY OPTIMIZATION CONVERGED AFTER 95 ITERATIONS ***

 final structure:
================
72
 xtb: 6.7.1 (edcfbbe)
N            2.81447028595149       -3.84571062542459       -0.94850318242010
C            1.78994463087451       -3.55057093945235       -0.50117188669572
C            0.55555460541203       -3.20471577127784        0.02665960857654
C            0.00897233374505       -4.07919317023987        0.95390871971361
N           -0.43546611226360       -4.80789989319893        1.73352306870763
C           -0.12316627299763       -1.98941642885947       -0.38368920110591
C            0.67999333277073       -0.85798250605433       -0.75368387296372
C            0.25054918657452        0.05242343601874       -1.74232029627138
C            1.04261061083128        1.11739218997140       -2.11244798447683
C            2.27752601265336        1.32277157312462       -1.52235483756128
C            2.72709976572612        0.43287615416491       -0.53605479224902
N            3.97004342042235        0.63467636963137        0.06845521955095
C            4.42667373472420        1.92832051822613        0.31894758869105
C            5.78618488762981        2.23016674223043        0.21069657650430
C            6.23495036588559        3.51153542373285        0.45979071195719
C            5.34333069688090        4.51164111943875        0.81545175186851
C            3.99326613876959        4.21824861389005        0.92378512171261
C            3.53345449046759        2.93904515395077        0.68192737311844
C            4.75190713691697       -0.46567746028004        0.44386345917046
C            5.47344203268805       -0.43864854153859        1.63835083106484
C            6.24297196214508       -1.52463490263638        2.00522631328793
C            6.30148388252478       -2.64811024801743        1.19472035785037
C            5.58639761767096       -2.67878805072007        0.00852271626722
C            4.81780378537084       -1.59618315051515       -0.37088020344725
C            1.93447426528059       -0.64269223443362       -0.16535879502590
C           -1.55219192000977       -1.94549922464627       -0.40475323182336
C           -2.33582403149335       -3.11201092867503       -0.54871197697112
C           -3.71179711145735       -3.04249830976017       -0.54726164930287
C           -4.36630698725753       -1.82934713908709       -0.40885118935231
C           -3.61059205732124       -0.66031598859647       -0.25181778737685
N           -4.24626579194253        0.58073350734377       -0.10917100476994
C           -5.39718206213379        0.69764565691526        0.66812957709629
C           -5.58136846997829       -0.11522702012630        1.78858405585731
C           -6.73063614984072       -0.00336931503600        2.54554563535107
C           -7.70814493458880        0.91884572538265        2.20728358048689
C           -7.52846213354806        1.73086251851035        1.09844746043144
C           -6.38649084928771        1.62376606216156        0.33028984679365
C           -3.67777975020648        1.70416332121335       -0.71729754326032
C           -3.64860250017001        2.93446800946626       -0.06039566399065
C           -3.06491274278179        4.02989680470454       -0.66644020451970
C           -2.50097764298973        3.91814560337121       -1.92713172790678
C           -2.53312149978044        2.69952536163676       -2.58641335345225
C           -3.11851747513367        1.60003149676075       -1.99185115485400
C           -2.22846016325237       -0.72513069175143       -0.24189179704707
H           -0.68863953290932       -0.11829944689646       -2.24458005035691
H            0.70363104719295        1.79395856783065       -2.88301280656606
H            2.90708009799083        2.14218589138988       -1.83347878612462
H            6.47935402007385        1.45522941492246       -0.08106029957896
H            7.28754467102464        3.73364012974954        0.36747757521162
H            5.69858983777053        5.51226428497824        1.00801179245631
H            3.29330344343766        4.98966074162226        1.20849787375116
H            2.48341793134382        2.70806574089613        0.78463158083785
H            5.41163167248699        0.42976671619797        2.27829403973647
H            6.79064984654110       -1.49790359154008        2.93566074428718
H            6.89934493781402       -3.49663530412185        1.49012354661770
H            5.61596583011594       -3.54951754964922       -0.62628763028690
H            4.26662876807212       -1.62276469217880       -1.29791958815186
H            2.27862741704237       -1.30233760429765        0.61790375843318
H           -1.85219985654472       -4.06542711552683       -0.69307421424937
H           -4.29072243101718       -3.94525687965818       -0.67225755391084
H           -5.44378692913562       -1.77449605199680       -0.43336438763200
H           -4.81370755345459       -0.82299699024708        2.06392789567092
H           -6.85947986792596       -0.63522798741953        3.41152506759035
H           -8.60361214325483        1.00458724198686        2.80336698436152
H           -8.28842587157772        2.44729553227825        0.82395398671905
H           -6.25612221322757        2.24567113575317       -0.54319891712443
H           -4.07390202653595        3.01854007203136        0.92892444154641
H           -3.04202186699281        4.97584483075166       -0.14598439259381
H           -2.04176896073691        4.77606345748263       -2.39395990418176
H           -2.10817095357598        2.60749012020622       -3.57494314767208
H           -3.16014237078612        0.65344584698256       -2.51041193520287
H           -1.66189403654201        0.17746267314803       -0.06539248723265

 projected vibrational frequencies (cm⁻¹)
eigval :       -0.00    -0.00    -0.00     0.00     0.00     0.00
eigval :       11.32    12.12    15.32    21.54    31.01    33.53
eigval :       39.22    52.92    59.13    63.67    68.60    71.38
eigval :       73.25    80.97    84.01    92.26   104.11   106.80
eigval :      118.27   162.88   173.41   179.81   212.34   223.07
eigval :      223.72   230.82   238.46   242.79   257.76   268.67
eigval :      297.66   300.75   323.31   326.75   330.75   353.87
eigval :      377.00   377.70   381.42   383.24   384.13   386.37
eigval :      388.91   403.58   420.51   435.94   442.73   468.34
eigval :      471.65   472.07   496.06   498.21   523.30   547.22
eigval :      578.45   579.70   580.47   581.72   588.07   589.47
eigval :      594.16   598.13   601.53   609.69   624.13   649.18
eigval :      651.55   657.52   660.20   660.88   664.15   668.20
eigval :      708.04   738.73   756.42   756.95   759.67   762.84
eigval :      773.98   778.47   862.59   864.55   866.32   869.79
eigval :      871.78   872.81   875.21   879.72   886.32   891.41
eigval :      893.78   894.96   898.13   898.95   909.28   909.80
eigval :      919.04   921.48   926.98   927.30   928.40   928.75
eigval :      929.08   929.13   929.64   931.01   971.78   974.69
eigval :      980.03   988.45  1002.20  1003.35  1021.73  1045.40
eigval :     1079.99  1081.54  1082.14  1082.66  1120.97  1121.54
eigval :     1123.72  1124.21  1132.98  1135.48  1164.76  1177.39
eigval :     1178.15  1179.75  1179.81  1180.02  1184.01  1190.03
eigval :     1190.16  1192.45  1194.60  1204.74  1214.30  1253.85
eigval :     1257.86  1269.42  1274.25  1274.90  1276.12  1277.24
eigval :     1293.24  1299.96  1303.69  1308.31  1313.61  1319.77
eigval :     1320.27  1326.89  1327.09  1335.68  1339.63  1340.22
eigval :     1410.24  1417.93  1433.41  1434.56  1436.74  1440.25
eigval :     1444.19  1451.99  1457.80  1462.24  1464.41  1465.72
eigval :     1511.71  1519.23  1536.50  1559.00  1568.92  1571.10
eigval :     1572.85  1575.69  1583.03  1586.28  1591.24  1593.76
eigval :     2212.38  2295.28  3076.92  3078.84  3079.50  3080.25
eigval :     3080.49  3080.99  3083.05  3083.28  3084.62  3085.99
eigval :     3086.17  3086.80  3088.24  3089.74  3090.39  3091.78
eigval :     3094.13  3094.22  3096.50  3096.57  3097.16  3099.80
eigval :     3101.45  3101.85  3102.02  3104.48  3105.14  3116.29

   temp. (K)  partition function   enthalpy   heat capacity  entropy
                                   cal/mol     cal/K/mol   cal/K/mol   J/K/mol
 298.15  VIB  0.435E+18            21784.255    133.617    137.846
         ROT  0.605E+08              888.752      2.981     38.590
         INT  0.263E+26            22673.008    136.598    176.436
         TR   0.130E+29             1481.254      4.968     44.858
         TOT                       24154.2617   141.5662   221.2936   925.8924

       T/K    H(0)-H(T)+PV         H(T)/Eh          T*S/Eh         G(T)/Eh
   ------------------------------------------------------------------------
    298.15    0.384923E-01    0.585939E+00    0.105144E+00    0.480795E+00
   ------------------------------------------------------------------------

         :::::::::::::::::::::::::::::::::::::::::::::::::::::
         ::                  THERMODYNAMIC                  ::
         :::::::::::::::::::::::::::::::::::::::::::::::::::::
         :: total free energy        -110.989829563473 Eh   ::
         ::.................................................::
         :: total energy             -111.470624624297 Eh   ::
         :: zero point energy           0.547446523713 Eh   ::
         :: G(RRHO) w/o ZPVE           -0.066651462889 Eh   ::
         :: G(RRHO) contrib.            0.480795060824 Eh   ::
         :::::::::::::::::::::::::::::::::::::::::::::::::::::

           -------------------------------------------------
          | TOTAL ENERGY             -111.470624624297 Eh   |
          | TOTAL ENTHALPY           -110.884685834434 Eh   |
          | TOTAL FREE ENERGY        -110.989829563473 Eh   |
          | GRADIENT NORM               0.000056558938 Eh/α |
           -------------------------------------------------

 * finished run on 2025/09/14 at 07:26:09.934
