   * xtb version 6.7.1 (edcfbbe) compiled by 'albert@albert-system' on 2024-07-22

   ID    Z sym.   atoms
    1    7 N      1, 5, 12, 31
    2    6 C      2-4, 6-11, 13-30, 32-44
    3    1 H      45-72

          program call               : xtb data2507/gas/3-DPM/3-DPM_gas_S0_crest.xyz --gfn 2 --ohess vtight --parallel 40 --molden --ceasefiles --namespace data2507/gas/3-DPM/3-DPM_gas_S0_finalOpt
          :  Hamiltonian                  GFN2-xTB          :
 * total energy  :  -111.5347589 Eh     change       -0.3794710E-08 Eh
 * total energy  :  -111.5347594 Eh     change       -0.5447765E-06 Eh
 * total energy  :  -111.5347599 Eh     change       -0.5123795E-06 Eh
 * total energy  :  -111.5347614 Eh     change       -0.1492594E-05 Eh
 * total energy  :  -111.5347608 Eh     change        0.6002713E-06 Eh
 * total energy  :  -111.5347634 Eh     change       -0.2611532E-05 Eh
 * total energy  :  -111.5347638 Eh     change       -0.3950719E-06 Eh
 * total energy  :  -111.5347646 Eh     change       -0.7766015E-06 Eh
 * total energy  :  -111.5347656 Eh     change       -0.1001898E-05 Eh
 * total energy  :  -111.5347664 Eh     change       -0.7874510E-06 Eh
 * total energy  :  -111.5347688 Eh     change       -0.5403037E-06 Eh
 * total energy  :  -111.5347691 Eh     change       -0.3127099E-06 Eh
 * total energy  :  -111.5347694 Eh     change       -0.2545369E-06 Eh
 * total energy  :  -111.5347697 Eh     change       -0.3293463E-06 Eh
 * total energy  :  -111.5347702 Eh     change       -0.4430282E-06 Eh
 * total energy  :  -111.5347705 Eh     change       -0.3319242E-06 Eh
 * total energy  :  -111.5347708 Eh     change       -0.2700358E-06 Eh
 * total energy  :  -111.5347710 Eh     change       -0.2244957E-06 Eh
 * total energy  :  -111.5347710 Eh     change       -0.2388148E-08 Eh
   *** GEOMETRY OPTIMIZATION CONVERGED AFTER 22 ITERATIONS ***

 final structure:
================
72
 xtb: 6.7.1 (edcfbbe)
N            2.99647526701210       -4.13391166190947       -0.38842992014831
C            1.87299379988317       -3.92343657091165       -0.29512807204242
C            0.47892796082557       -3.70943191325716       -0.19550743012898
C           -0.23061648297896       -4.78716506194697        0.37974324608172
N           -0.76581663990168       -5.67456250445523        0.87122930892901
C           -0.10789240565719       -2.55737968750929       -0.62163853004009
C            0.69502456436034       -1.43413940829244       -1.12019368266613
C            0.33179558332241       -0.82311280379535       -2.32134798502212
C            1.05244734176795        0.26275074029097       -2.78050001868673
C            2.10679930394436        0.76842769149359       -2.04625381313400
C            2.47058496202048        0.17829711747247       -0.83284662109251
N            3.51483968932362        0.69795184480674       -0.07868023989768
C            3.75279225658036        2.07925506926721       -0.06237137448742
C            5.05862894395057        2.56683188555963       -0.04402240952788
C            5.29212566698262        3.92799015195912       -0.01517238074102
C            4.23334365797649        4.82125378984446       -0.00997634619002
C            2.93432798084520        4.34080769364308       -0.02856047215072
C            2.68920195634914        2.98154486086423       -0.05078544254814
C            4.32627410223166       -0.15515991437988        0.68949067267340
C            4.76578281580001        0.24197587738139        1.95054765578670
C            5.56625761980230       -0.59784164238704        2.70126360106189
C            5.92786640217221       -1.84289983723619        2.21355216902889
C            5.49002852173273       -2.24202863152633        0.96153201562640
C            4.70138171909652       -1.40360064101685        0.19789617643502
C            1.76258190435715       -0.93801091876714       -0.38598652913812
C           -1.55214069391530       -2.33494643501103       -0.61087374836377
C           -2.47570848688393       -3.31457423012228       -0.97267039003621
C           -3.82268515855958       -2.99736288664666       -0.99904822890127
C           -4.26505777416485       -1.72867255582250       -0.67626490406716
C           -3.35231454346250       -0.74032769234835       -0.29463891413085
N           -3.76561170210078        0.54831672363420        0.02495377226599
C           -5.02290606308340        0.78090198966482        0.60267075994170
C           -5.54902799882941       -0.09859851377255        1.54718014694927
C           -6.78904532299278        0.14415130830072        2.10611804518264
C           -7.51521108221835        1.26632998555679        1.74266258978126
C           -6.99124881499443        2.14823483794684        0.81176125334462
C           -5.75621778493314        1.90966018379534        0.24073217112144
C           -2.89516376428276        1.63316050715181       -0.17448762981624
C           -2.79826262839744        2.64107366494926        0.78307601514544
C           -1.92931049190410        3.69881421244843        0.59394197259996
C           -1.14115760002330        3.76425086726673       -0.54309429508766
C           -1.23811061567820        2.76824738048518       -1.50090429575590
C           -2.11292581565106        1.71391331721667       -1.32605481888700
C           -1.99934722549677       -1.06398183799017       -0.26142319547191
H           -0.49315570772723       -1.21898004004546       -2.89450782528335
H            0.79051725586225        0.71966048651521       -3.72325019562121
H            2.66121150180870        1.62177291347652       -2.40667671923399
H            5.88413678069644        1.87046793735160       -0.05368239095168
H            6.30826789217200        4.29352731506548       -0.00393468110924
H            4.41932969052435        5.88429145099757        0.01035136355557
H            2.10352002609133        5.03080104563268       -0.01381007008316
H            1.67325670435820        2.61234023609417       -0.05354147544968
H            4.47386371635323        1.20802457143565        2.33658699661784
H            5.90026093337158       -0.28025230366792        3.67822531773945
H            6.54689492271527       -2.49834323133803        2.80707493282383
H            5.76103211957698       -3.21041637010426        0.57124790414291
H            4.36850700615418       -1.71839821642469       -0.77965379406380
H            2.02425343621902       -1.38828007065742        0.56056049519158
H           -2.14294811007920       -4.29866083132467       -1.26322609509126
H           -4.53934923802590       -3.74862430751369       -1.29451073584296
H           -5.31720546683059       -1.49264377595077       -0.72718630788645
H           -4.97874730247648       -0.96697734032710        1.84332373753436
H           -7.18603487029357       -0.54382271465291        2.83777561479647
H           -8.48228688907086        1.45342955164982        2.18373033546849
H           -7.55127673366536        3.02490479024619        0.52176798695547
H           -5.35013834298963        2.59402186927563       -0.48981310601017
H           -3.40378163182980        2.58518753590903        1.67582727701511
H           -1.86009016539819        4.47096072823514        1.34581712817193
H           -0.45874015974496        4.58809618944470       -0.68563398914907
H           -0.63221305319896        2.81505650432006       -2.39335977085054
H           -2.19315975527503        0.94462991182340       -2.07965374754093
H           -1.28274335002002       -0.32092030326159        0.05572170446257

          :  Hamiltonian                  GFN2-xTB          :
         :: gradient norm              0.000056319602 Eh/a0 ::
         :: HOMO-LUMO gap              1.326056466017 eV    ::
         :: SCC energy              -113.709522927645 Eh    ::
         :: -> dispersion             -0.105705530048 Eh    ::
         :: repulsion energy           2.174751940917 Eh    ::

    * Orbital Energies and Occupations

         #    Occupation            Energy/Eh            Energy/eV
      -------------------------------------------------------------
         1        2.0000           -0.6776561             -18.4400
       ...           ...                  ...                  ...
        92        2.0000           -0.4217406             -11.4761
        93        2.0000           -0.4208129             -11.4509
        94        2.0000           -0.4195348             -11.4161
        95        2.0000           -0.4177987             -11.3689
        96        2.0000           -0.4161342             -11.3236
        97        2.0000           -0.4151926             -11.2980
        98        2.0000           -0.4133495             -11.2478
        99        2.0000           -0.4115242             -11.1981
       100        2.0000           -0.4085355             -11.1168
       101        2.0000           -0.4038434             -10.9891
       102        2.0000           -0.4031031             -10.9690
       103        2.0000           -0.3618840              -9.8474
       104        2.0000           -0.3560000              -9.6873 (HOMO)
       105                         -0.3072683              -8.3612 (LUMO)
       106                         -0.2457859              -6.6882
       107                         -0.2440441              -6.6408
       108                         -0.2405162              -6.5448
       109                         -0.2391178              -6.5067
       110                         -0.2347188              -6.3870
       111                         -0.2323407              -6.3223
       112                         -0.2309086              -6.2833
       113                         -0.2295303              -6.2458
       114                         -0.2281827              -6.2092
       115                         -0.2218067              -6.0357
       ...                                ...                  ...
       204                          1.1696430              31.8276
      -------------------------------------------------------------
                  HL-Gap            0.0487317 Eh            1.3261 eV

     #   Z          covCN         q      C6AA      α(0)
     1   7 N        0.911    -0.237    26.200     7.403
     2   6 C        1.926     0.121    28.121     8.564
     3   6 C        2.953     0.006    27.894     8.663
     4   6 C        1.923     0.121    28.121     8.564
     5   7 N        0.911    -0.235    26.156     7.397
     6   6 C        2.983     0.037    27.154     8.548
     7   6 C        2.981     0.011    27.772     8.644
     8   6 C        2.924    -0.039    28.971     8.827
     9   6 C        2.917    -0.026    28.661     8.779
    10   6 C        2.923    -0.046    29.146     8.853
    11   6 C        2.923     0.071    26.418     8.429
    12   7 N        2.753    -0.075    22.689     7.075
    13   6 C        2.925     0.065    26.545     8.449
    14   6 C        2.922    -0.046    29.138     8.852
    15   6 C        2.920    -0.029    28.713     8.787
    16   6 C        2.919    -0.038    28.933     8.821
    17   6 C        2.920    -0.029    28.715     8.788
    18   6 C        2.922    -0.047    29.172     8.857
    19   6 C        2.925     0.061    26.626     8.462
    20   6 C        2.922    -0.048    29.180     8.858
    21   6 C        2.920    -0.030    28.737     8.791
    22   6 C        2.919    -0.036    28.894     8.815
    23   6 C        2.920    -0.025    28.633     8.775
    24   6 C        2.922    -0.044    29.087     8.844
    25   6 C        2.926    -0.048    29.192     8.860
    26   6 C        2.979     0.011    27.759     8.642
    27   6 C        2.919    -0.037    28.921     8.819
    28   6 C        2.918    -0.026    28.648     8.777
    29   6 C        2.922    -0.045    29.123     8.850
    30   6 C        2.920     0.069    26.450     8.434
    31   7 N        2.752    -0.075    22.695     7.075
    32   6 C        2.924     0.064    26.564     8.452
    33   6 C        2.922    -0.047    29.162     8.856
    34   6 C        2.920    -0.028    28.709     8.787
    35   6 C        2.919    -0.036    28.905     8.816
    36   6 C        2.920    -0.028    28.709     8.787
    37   6 C        2.923    -0.046    29.147     8.854
    38   6 C        2.925     0.064    26.557     8.451
    39   6 C        2.922    -0.046    29.138     8.852
    40   6 C        2.920    -0.028    28.711     8.787
    41   6 C        2.919    -0.036    28.898     8.815
    42   6 C        2.919    -0.029    28.728     8.789
    43   6 C        2.922    -0.046    29.152     8.854
    44   6 C        2.934    -0.050    29.246     8.869
    45   1 H        0.926     0.030     2.580     2.512
    46   1 H        0.926     0.037     2.488     2.467
    47   1 H        0.926     0.039     2.464     2.455
    48   1 H        0.926     0.035     2.515     2.480
    49   1 H        0.926     0.034     2.531     2.488
    50   1 H        0.926     0.032     2.559     2.501
    51   1 H        0.926     0.031     2.576     2.510
    52   1 H        0.926     0.029     2.596     2.520
    53   1 H        0.926     0.029     2.594     2.519
    54   1 H        0.926     0.032     2.562     2.503
    55   1 H        0.926     0.033     2.538     2.491
    56   1 H        0.926     0.049     2.337     2.390
    57   1 H        0.926     0.039     2.465     2.455
    58   1 H        0.926     0.036     2.504     2.475
    59   1 H        0.926     0.041     2.441     2.443
    60   1 H        0.926     0.043     2.412     2.428
    61   1 H        0.926     0.041     2.442     2.444
    62   1 H        0.926     0.034     2.535     2.490
    63   1 H        0.926     0.035     2.514     2.480
    64   1 H        0.926     0.034     2.536     2.490
    65   1 H        0.926     0.034     2.527     2.486
    66   1 H        0.926     0.033     2.550     2.497
    67   1 H        0.926     0.034     2.532     2.488
    68   1 H        0.926     0.035     2.519     2.482
    69   1 H        0.926     0.033     2.544     2.494
    70   1 H        0.926     0.033     2.540     2.492
    71   1 H        0.926     0.032     2.561     2.502
    72   1 H        0.926     0.034     2.526     2.485

molecular dipole:
                 x           y           z       tot (Debye)
 q only:       -0.723       2.016      -0.373
   full:       -0.964       2.401      -0.510       6.703

 projected vibrational frequencies (cm⁻¹)
eigval :       -0.00    -0.00     0.00     0.00     0.00     0.00
eigval :        9.89    14.11    22.69    26.71    33.79    33.86
eigval :       47.76    54.78    59.50    60.50    64.17    69.45
eigval :       71.20    78.42    82.19    86.18    97.58   105.89
eigval :      122.31   161.53   175.28   194.38   214.77   218.57
eigval :      220.41   225.41   236.04   239.77   250.47   260.73
eigval :      293.68   300.05   319.94   325.95   328.72   355.61
eigval :      377.86   379.06   379.27   383.13   384.39   391.56
eigval :      398.29   422.76   434.77   442.34   444.40   476.85
eigval :      477.81   487.03   491.75   499.28   557.08   576.25
eigval :      579.57   582.28   582.78   587.08   589.82   594.42
eigval :      597.77   598.28   611.73   619.56   647.06   653.46
eigval :      660.26   662.45   665.57   666.56   671.71   680.47
eigval :      712.25   741.49   757.62   757.93   760.54   765.11
eigval :      791.74   794.24   872.11   873.53   875.64   876.46
eigval :      877.09   878.11   880.21   886.37   891.98   892.53
eigval :      895.54   895.89   898.18   899.90   909.50   910.10
eigval :      926.02   926.81   928.01   928.38   929.24   929.52
eigval :      930.17   930.36   930.74   932.38   974.88   977.30
eigval :      989.41  1001.48  1004.79  1004.99  1025.06  1051.35
eigval :     1082.55  1083.07  1083.87  1084.60  1120.89  1122.30
eigval :     1122.96  1124.17  1133.06  1136.76  1172.09  1178.76
eigval :     1179.43  1180.34  1180.56  1184.01  1189.09  1190.62
eigval :     1194.35  1195.00  1196.73  1203.19  1213.66  1225.84
eigval :     1262.28  1267.90  1277.35  1277.47  1279.80  1281.59
eigval :     1291.32  1312.51  1313.78  1317.32  1317.64  1325.63
eigval :     1326.14  1330.51  1331.83  1333.30  1340.45  1418.02
eigval :     1427.72  1436.81  1438.11  1442.37  1443.80  1464.96
eigval :     1468.45  1472.55  1474.29  1475.19  1477.06  1557.61
eigval :     1561.89  1569.60  1577.75  1578.29  1580.84  1582.71
eigval :     1583.36  1586.87  1594.35  1594.87  1599.21  1599.47
eigval :     2345.60  2373.19  3072.88  3074.81  3078.26  3078.82
eigval :     3079.03  3079.34  3079.77  3081.98  3083.63  3084.45
eigval :     3086.97  3087.11  3087.71  3088.89  3090.15  3090.57
eigval :     3090.69  3091.27  3091.93  3093.50  3094.14  3097.91
eigval :     3098.18  3098.41  3099.83  3100.86  3106.51  3107.70

   temp. (K)  partition function   enthalpy   heat capacity  entropy
                                   cal/mol     cal/K/mol   cal/K/mol   J/K/mol
 298.15  VIB  0.214E+18            21657.230    132.833    137.148
         ROT  0.546E+08              888.752      2.981     38.384
         INT  0.117E+26            22545.983    135.814    175.532
         TR   0.130E+29             1481.254      4.968     44.858
         TOT                       24027.2368   140.7820   220.3901   922.1122

       T/K    H(0)-H(T)+PV         H(T)/Eh          T*S/Eh         G(T)/Eh
   ------------------------------------------------------------------------
    298.15    0.382898E-01    0.588506E+00    0.104714E+00    0.483791E+00
   ------------------------------------------------------------------------

         :::::::::::::::::::::::::::::::::::::::::::::::::::::
         ::                  THERMODYNAMIC                  ::
         :::::::::::::::::::::::::::::::::::::::::::::::::::::
         :: total free energy        -111.050979530173 Eh   ::
         ::.................................................::
         :: total energy             -111.534770986725 Eh   ::
         :: zero point energy           0.550216062546 Eh   ::
         :: G(RRHO) w/o ZPVE           -0.066424605994 Eh   ::
         :: G(RRHO) contrib.            0.483791456552 Eh   ::
         :::::::::::::::::::::::::::::::::::::::::::::::::::::

           -------------------------------------------------
          | TOTAL ENERGY             -111.534770986725 Eh   |
          | TOTAL ENTHALPY           -110.946265085155 Eh   |
          | TOTAL FREE ENERGY        -111.050979530173 Eh   |
          | GRADIENT NORM               0.000056355119 Eh/α |
          | HOMO-LUMO GAP               1.326058124184 eV   |
           -------------------------------------------------

 * finished run on 2025/09/14 at 07:25:55.052
