   * xtb version 6.7.1 (edcfbbe) compiled by 'albert@albert-system' on 2024-07-22

   ID    Z sym.   atoms
    1    7 N      1, 5, 12, 31
    2    6 C      2-4, 6-11, 13-30, 32-44
    3    1 H      45-72

          program call               : xtb data2507/gas/3-DPM/3-DPM.xyz --gfn 2 --ohess vtight --parallel 40 --molden --ceasefiles --namespace data2507/gas/3-DPM/3-DPM_gas_S0_preOpt
          :  Hamiltonian                  GFN2-xTB          :
 * total energy  :  -111.5039777 Eh     change       -0.5231854E-08 Eh
 * total energy  :  -111.5184429 Eh     change       -0.1446519E-01 Eh
 * total energy  :  -111.5244607 Eh     change       -0.6017836E-02 Eh
 * total energy  :  -111.5257952 Eh     change       -0.1334525E-02 Eh
 * total energy  :  -111.5256281 Eh     change        0.1671585E-03 Eh
 * total energy  :  -111.5268191 Eh     change       -0.1191066E-02 Eh
 * total energy  :  -111.5272243 Eh     change       -0.4052110E-03 Eh
 * total energy  :  -111.5277630 Eh     change       -0.5386531E-03 Eh
 * total energy  :  -111.5283645 Eh     change       -0.6014969E-03 Eh
 * total energy  :  -111.5287801 Eh     change       -0.4156215E-03 Eh
 * total energy  :  -111.5347722 Eh     change       -0.4363044E-06 Eh
 * total energy  :  -111.5347726 Eh     change       -0.4217335E-06 Eh
 * total energy  :  -111.5347730 Eh     change       -0.3603102E-06 Eh
 * total energy  :  -111.5347734 Eh     change       -0.3503635E-06 Eh
 * total energy  :  -111.5347737 Eh     change       -0.3764174E-06 Eh
 * total energy  :  -111.5347741 Eh     change       -0.3570515E-06 Eh
 * total energy  :  -111.5347743 Eh     change       -0.2556936E-06 Eh
 * total energy  :  -111.5347745 Eh     change       -0.1264127E-06 Eh
 * total energy  :  -111.5347745 Eh     change       -0.5393019E-09 Eh
   *** GEOMETRY OPTIMIZATION CONVERGED AFTER 122 ITERATIONS ***

 final structure:
================
72
 xtb: 6.7.1 (edcfbbe)
N            2.63129649824242       -4.73352591716614        0.11099968461341
C            1.52896156575237       -4.41931404145703        0.14809655226757
C            0.15760179085646       -4.07652680207217        0.18300401227928
C           -0.65764355331454       -5.02755714918713        0.83611895651304
N           -1.27971447884832       -5.81381341112241        1.39323634901096
C           -0.31197496975090       -2.92412726478417       -0.36912804182477
C            0.60398110195205       -1.93114892658980       -0.94428062192805
C            0.33514571748780       -1.41487532701287       -2.21268081436555
C            1.16401344837571       -0.44604351086158       -2.74534092785621
C            2.23482185340497        0.03917706967274       -2.02115118859534
C            2.50594456126481       -0.45594689217132       -0.74283835218694
N            3.56744124069945        0.04603683279310       -0.00043253431102
C            3.91842910699145        1.39932126208908       -0.10131946610508
C            5.25880040841591        1.78147479454305       -0.07552925125262
C            5.60280346405915        3.11653871983166       -0.16132813349284
C            4.62177726294528        4.08745776530891       -0.27930814351646
C            3.28883202240187        3.71180468982656       -0.30622760969113
C            2.93321734129207        2.38013984734300       -0.21483264561703
C            4.27750787226390       -0.79310665468751        0.87561768231256
C            4.71330574718330       -0.31343481283301        2.10900762070014
C            5.41375352867869       -1.14096489346398        2.96586714764774
C            5.67754396126244       -2.45421204581128        2.61293796542776
C            5.24282862986305       -2.93522046072529        1.38891560442759
C            4.55462120427140       -2.11132044966201        0.51967594418820
C            1.68790719217110       -1.45769180489108       -0.21924883906520
C           -1.72887489386132       -2.57202174635085       -0.42394823635509
C           -2.73376281984776       -3.49725680225427       -0.70347620638060
C           -4.04528366089706       -3.06480670159428       -0.79560445725559
C           -4.37374374857663       -1.73417787648407       -0.61910154608244
C           -3.37903932772137       -0.79683697510101       -0.32368920261684
N           -3.67546557742536        0.55114645861666       -0.15351178224536
C           -4.91018672414913        0.95819755217702        0.37356900848741
C           -5.52328179215724        0.23630248278164        1.39605591269417
C           -6.73954415325156        0.65001979552931        1.90447615610676
C           -7.35528777688630        1.78890947190088        1.41204422102258
C           -6.74444877933883        2.51458029503373        0.40250974179347
C           -5.53259125342571        2.10427672069109       -0.11837829142046
C           -2.70699765224458        1.52353126560339       -0.45498208391589
C           -2.52237133587165        2.61713857332348        0.38883708992022
C           -1.55783783217176        3.56359803613106        0.09957132485208
C           -0.76107012168696        3.43172083358692       -1.02563533191068
C           -0.94473959285375        2.34980050559309       -1.87091727821763
C           -1.91403920697465        1.40524510678755       -1.59590977355101
C           -2.06232449663536       -1.23546216410239       -0.22326061172245
H           -0.50342765716442       -1.79378844384689       -2.77744433681858
H            0.97431694486732       -0.06547984212424       -3.73794703959688
H            2.87360191617666        0.80253694274918       -2.43913741803608
H            6.02386464856442        1.02409255465672        0.01119537059899
H            6.64475525041222        3.39988765153081       -0.14291872465189
H            4.89415891124051        5.12964738089198       -0.34788455614304
H            2.51756175566966        4.46357958742047       -0.38688145392913
H            1.89080838619877        2.09418573320977       -0.22513375942269
H            4.49692290079610        0.70707118007767        2.39046969544507
H            5.74583082232323       -0.75877758912446        3.92009020551011
H            6.21818716832002       -3.09883900164404        3.28912878028575
H            5.43792138515652       -3.95688642147216        1.10305684725721
H            4.22393625971980       -2.49104683645520       -0.43528900752004
H            1.87843037398783       -1.83208566998437        0.77610627890304
H           -2.48928830064010       -4.53281809352503       -0.88052120548265
H           -4.82370476519008       -3.77602334648686       -1.02695308878734
H           -5.39896672607624       -1.41116635071033       -0.71869460374633
H           -5.03860624165307       -0.64417880538397        1.79210477459362
H           -7.20440330687538        0.08336741703179        2.69760255313195
H           -8.30403432819997        2.10998586517490        1.81400257702678
H           -7.21829107350458        3.40288346529361        0.01177408680231
H           -5.05907952038977        2.66661700500949       -0.90989906111185
H           -3.13556555133458        2.71521732373814        1.27266814569913
H           -1.42131328986440        4.40378874753560        0.76423762289534
H           -0.00457236221896        4.16897404784441       -1.24678591291176
H           -0.33267562247210        2.24350120435987       -2.75392477755082
H           -2.06111645890230        0.56821987791571       -2.26219382138237
H           -1.28556529078958       -0.52949503242004        0.03069322623428

          :  Hamiltonian                  GFN2-xTB          :
         :: gradient norm              0.000096814725 Eh/a0 ::
         :: HOMO-LUMO gap              1.320323626001 eV    ::
         :: SCC energy              -113.709505345523 Eh    ::
         :: -> dispersion             -0.105729332074 Eh    ::
         :: repulsion energy           2.174730871798 Eh    ::

    * Orbital Energies and Occupations

         #    Occupation            Energy/Eh            Energy/eV
      -------------------------------------------------------------
         1        2.0000           -0.6777544             -18.4426
       ...           ...                  ...                  ...
        92        2.0000           -0.4218267             -11.4785
        93        2.0000           -0.4209083             -11.4535
        94        2.0000           -0.4195941             -11.4177
        95        2.0000           -0.4178269             -11.3696
        96        2.0000           -0.4161439             -11.3239
        97        2.0000           -0.4152270             -11.2989
        98        2.0000           -0.4133474             -11.2478
        99        2.0000           -0.4114782             -11.1969
       100        2.0000           -0.4085026             -11.1159
       101        2.0000           -0.4038825             -10.9902
       102        2.0000           -0.4030881             -10.9686
       103        2.0000           -0.3619405              -9.8489
       104        2.0000           -0.3559436              -9.6857 (HOMO)
       105                         -0.3074227              -8.3654 (LUMO)
       106                         -0.2458206              -6.6891
       107                         -0.2441339              -6.6432
       108                         -0.2405639              -6.5461
       109                         -0.2391527              -6.5077
       110                         -0.2347672              -6.3883
       111                         -0.2323017              -6.3213
       112                         -0.2309009              -6.2831
       113                         -0.2295149              -6.2454
       114                         -0.2282402              -6.2107
       115                         -0.2218554              -6.0370
       ...                                ...                  ...
       204                          1.1695252              31.8244
      -------------------------------------------------------------
                  HL-Gap            0.0485209 Eh            1.3203 eV

     #   Z          covCN         q      C6AA      α(0)
     1   7 N        0.911    -0.237    26.197     7.403
     2   6 C        1.926     0.121    28.120     8.564
     3   6 C        2.953     0.006    27.893     8.662
     4   6 C        1.923     0.121    28.121     8.564
     5   7 N        0.911    -0.235    26.156     7.397
     6   6 C        2.983     0.037    27.154     8.548
     7   6 C        2.982     0.011    27.772     8.644
     8   6 C        2.924    -0.039    28.970     8.827
     9   6 C        2.917    -0.026    28.660     8.779
    10   6 C        2.923    -0.046    29.144     8.853
    11   6 C        2.923     0.071    26.418     8.429
    12   7 N        2.753    -0.075    22.690     7.075
    13   6 C        2.925     0.065    26.545     8.449
    14   6 C        2.922    -0.046    29.138     8.852
    15   6 C        2.920    -0.029    28.713     8.787
    16   6 C        2.919    -0.038    28.934     8.821
    17   6 C        2.920    -0.029    28.716     8.788
    18   6 C        2.922    -0.047    29.170     8.857
    19   6 C        2.924     0.061    26.626     8.462
    20   6 C        2.922    -0.048    29.182     8.859
    21   6 C        2.920    -0.030    28.738     8.791
    22   6 C        2.919    -0.036    28.895     8.815
    23   6 C        2.920    -0.025    28.635     8.775
    24   6 C        2.922    -0.044    29.090     8.845
    25   6 C        2.926    -0.048    29.190     8.860
    26   6 C        2.979     0.011    27.759     8.642
    27   6 C        2.919    -0.037    28.921     8.819
    28   6 C        2.918    -0.026    28.647     8.777
    29   6 C        2.922    -0.045    29.119     8.849
    30   6 C        2.920     0.069    26.450     8.434
    31   7 N        2.752    -0.075    22.697     7.076
    32   6 C        2.924     0.064    26.564     8.452
    33   6 C        2.922    -0.047    29.164     8.856
    34   6 C        2.920    -0.028    28.709     8.787
    35   6 C        2.919    -0.036    28.906     8.817
    36   6 C        2.920    -0.028    28.709     8.787
    37   6 C        2.923    -0.046    29.149     8.854
    38   6 C        2.925     0.064    26.558     8.451
    39   6 C        2.922    -0.046    29.138     8.852
    40   6 C        2.920    -0.028    28.711     8.787
    41   6 C        2.919    -0.036    28.898     8.815
    42   6 C        2.919    -0.029    28.727     8.789
    43   6 C        2.922    -0.046    29.151     8.854
    44   6 C        2.934    -0.050    29.242     8.869
    45   1 H        0.926     0.030     2.579     2.511
    46   1 H        0.926     0.037     2.487     2.466
    47   1 H        0.926     0.039     2.463     2.454
    48   1 H        0.926     0.035     2.514     2.480
    49   1 H        0.926     0.034     2.531     2.488
    50   1 H        0.926     0.032     2.559     2.501
    51   1 H        0.926     0.031     2.575     2.509
    52   1 H        0.926     0.029     2.601     2.522
    53   1 H        0.926     0.029     2.595     2.519
    54   1 H        0.926     0.032     2.563     2.503
    55   1 H        0.926     0.033     2.539     2.492
    56   1 H        0.926     0.048     2.339     2.392
    57   1 H        0.926     0.039     2.464     2.455
    58   1 H        0.926     0.036     2.505     2.475
    59   1 H        0.926     0.041     2.437     2.441
    60   1 H        0.926     0.043     2.410     2.428
    61   1 H        0.926     0.041     2.440     2.443
    62   1 H        0.926     0.033     2.537     2.491
    63   1 H        0.926     0.035     2.515     2.480
    64   1 H        0.926     0.034     2.536     2.490
    65   1 H        0.926     0.034     2.527     2.486
    66   1 H        0.926     0.033     2.551     2.498
    67   1 H        0.926     0.034     2.532     2.488
    68   1 H        0.926     0.035     2.519     2.482
    69   1 H        0.926     0.033     2.543     2.494
    70   1 H        0.926     0.033     2.539     2.492
    71   1 H        0.926     0.032     2.562     2.503
    72   1 H        0.926     0.034     2.525     2.485

molecular dipole:
                 x           y           z       tot (Debye)
 q only:       -0.535       2.026      -0.589
   full:       -0.740       2.415      -0.768       6.711

 projected vibrational frequencies (cm⁻¹)
eigval :       -0.00    -0.00     0.00     0.00     0.00     0.00
eigval :        9.49    14.17    22.89    26.80    33.31    33.84
eigval :       47.69    54.81    59.61    60.81    64.13    69.40
eigval :       71.07    78.33    82.36    86.33    97.58   106.14
eigval :      122.57   161.70   175.28   194.36   214.69   218.54
eigval :      220.41   225.43   235.92   239.66   250.38   261.05
eigval :      293.58   300.04   319.85   326.01   328.63   355.12
eigval :      377.87   379.00   379.20   383.17   384.35   391.56
eigval :      398.44   422.91   434.88   442.36   444.35   476.80
eigval :      477.70   487.07   491.69   499.23   556.82   576.27
eigval :      579.48   582.27   582.78   587.15   589.84   594.45
eigval :      597.77   598.34   611.92   619.54   647.15   653.44
eigval :      660.19   662.40   665.53   666.46   671.65   680.45
eigval :      712.34   741.43   757.63   757.84   760.51   765.10
eigval :      791.74   794.20   872.12   873.60   875.55   876.49
eigval :      877.03   877.92   880.23   886.35   891.96   892.56
eigval :      895.44   895.83   898.13   899.70   909.54   910.11
eigval :      925.69   926.84   927.99   928.29   929.21   929.58
eigval :      930.22   930.45   930.82   932.25   974.88   977.33
eigval :      989.41  1001.53  1004.76  1005.01  1025.13  1051.24
eigval :     1082.62  1083.11  1083.87  1084.52  1120.89  1122.33
eigval :     1122.99  1124.26  1132.91  1136.37  1172.16  1178.93
eigval :     1179.43  1180.21  1180.57  1183.91  1188.87  1190.53
eigval :     1194.36  1195.07  1196.67  1203.15  1213.54  1225.80
eigval :     1262.23  1267.91  1277.37  1277.46  1279.78  1281.58
eigval :     1291.42  1312.70  1313.98  1317.39  1317.69  1325.68
eigval :     1326.17  1330.41  1331.81  1333.15  1340.44  1417.84
eigval :     1427.60  1436.82  1438.05  1442.36  1443.79  1465.01
eigval :     1468.44  1472.54  1474.32  1475.24  1477.03  1557.28
eigval :     1562.07  1569.40  1577.74  1578.27  1580.80  1582.70
eigval :     1583.33  1586.83  1594.36  1594.91  1599.24  1599.50
eigval :     2345.33  2373.06  3072.82  3074.81  3078.23  3078.75
eigval :     3079.03  3079.29  3079.96  3082.25  3083.65  3084.47
eigval :     3086.95  3086.97  3087.75  3088.82  3090.24  3090.57
eigval :     3090.65  3091.24  3092.03  3093.54  3094.13  3097.98
eigval :     3098.25  3098.43  3099.82  3101.01  3106.97  3107.56

   temp. (K)  partition function   enthalpy   heat capacity  entropy
                                   cal/mol     cal/K/mol   cal/K/mol   J/K/mol
 298.15  VIB  0.221E+18            21657.535    132.835    137.170
         ROT  0.544E+08              888.752      2.981     38.379
         INT  0.120E+26            22546.287    135.816    175.549
         TR   0.130E+29             1481.254      4.968     44.858
         TOT                       24027.5411   140.7839   220.4070   922.1830

       T/K    H(0)-H(T)+PV         H(T)/Eh          T*S/Eh         G(T)/Eh
   ------------------------------------------------------------------------
    298.15    0.382903E-01    0.588502E+00    0.104722E+00    0.483779E+00
   ------------------------------------------------------------------------

         :::::::::::::::::::::::::::::::::::::::::::::::::::::
         ::                  THERMODYNAMIC                  ::
         :::::::::::::::::::::::::::::::::::::::::::::::::::::
         :: total free energy        -111.050995403504 Eh   ::
         ::.................................................::
         :: total energy             -111.534774473724 Eh   ::
         :: zero point energy           0.550211235027 Eh   ::
         :: G(RRHO) w/o ZPVE           -0.066432164807 Eh   ::
         :: G(RRHO) contrib.            0.483779070220 Eh   ::
         :::::::::::::::::::::::::::::::::::::::::::::::::::::

           -------------------------------------------------
          | TOTAL ENERGY             -111.534774473724 Eh   |
          | TOTAL ENTHALPY           -110.946272914704 Eh   |
          | TOTAL FREE ENERGY        -111.050995403504 Eh   |
          | GRADIENT NORM               0.000096921001 Eh/α |
          | HOMO-LUMO GAP               1.320322113567 eV   |
           -------------------------------------------------

 * finished run on 2025/09/14 at 07:20:10.168
