   * xtb version 6.7.1 (edcfbbe) compiled by 'albert@albert-system' on 2024-07-22

   ID    Z sym.   atoms
    1    6 C      1-20, 22-33, 35-57, 61-63
    2    7 N      21, 34, 58, 60
    3   16 S      59
    4    1 H      64-121

          program call               : xtb data2507/gas/CBTD2/CBTD2_gas_S0_crest.xyz --gfn 2 --ohess vtight --parallel 40 --molden --ceasefiles --namespace data2507/gas/CBTD2/CBTD2_gas_S0_finalOpt
          :  Hamiltonian                  GFN2-xTB          :
 * total energy  :  -168.8746184 Eh     change       -0.3095323E-08 Eh
 * total energy  :  -168.8746200 Eh     change       -0.1551153E-05 Eh
 * total energy  :  -168.8746227 Eh     change       -0.2747448E-05 Eh
 * total energy  :  -168.8746298 Eh     change       -0.7100822E-05 Eh
 * total energy  :  -168.8746358 Eh     change       -0.6018443E-05 Eh
 * total energy  :  -168.8746390 Eh     change       -0.3191404E-05 Eh
 * total energy  :  -168.8746421 Eh     change       -0.3101117E-05 Eh
 * total energy  :  -168.8746468 Eh     change       -0.4679611E-05 Eh
 * total energy  :  -168.8746533 Eh     change       -0.6506958E-05 Eh
 * total energy  :  -168.8746601 Eh     change       -0.6738360E-05 Eh
 * total energy  :  -168.8748010 Eh     change       -0.4066210E-06 Eh
 * total energy  :  -168.8748013 Eh     change       -0.3148844E-06 Eh
 * total energy  :  -168.8748016 Eh     change       -0.2747279E-06 Eh
 * total energy  :  -168.8748019 Eh     change       -0.2590003E-06 Eh
 * total energy  :  -168.8748022 Eh     change       -0.2741791E-06 Eh
 * total energy  :  -168.8748025 Eh     change       -0.3251615E-06 Eh
 * total energy  :  -168.8748028 Eh     change       -0.3609670E-06 Eh
 * total energy  :  -168.8748033 Eh     change       -0.4282618E-06 Eh
 * total energy  :  -168.8748033 Eh     change       -0.4995741E-08 Eh
   *** GEOMETRY OPTIMIZATION CONVERGED AFTER 94 ITERATIONS ***

 final structure:
================
121
 xtb: 6.7.1 (edcfbbe)
C          -10.96025699514587        4.14573362736521       -2.57711685159646
C          -11.10311512185259        3.67520162340477       -1.12274342601987
C          -10.93774338461844        4.86856155770933       -0.17116012494342
C          -12.51747810576693        3.11725105629201       -0.94131663726287
C          -10.02481806251572        2.64398201431324       -0.82264883269809
C           -8.67954830820729        3.01870083846773       -0.94114110580402
C           -7.63419485239379        2.15527892858325       -0.68457098364928
C           -7.94050176247429        0.86395683982984       -0.28410419601136
C           -9.28586598332422        0.45283870064548       -0.18352430799451
C          -10.31816082386590        1.34344427052195       -0.44772075356895
C           -9.26143940714235       -0.93411114963563        0.19149799059799
C          -10.26151935190342       -1.86054652614395        0.45586179091793
C           -9.92276627860144       -3.15100537876972        0.82753962145820
C          -10.96423974438824       -4.21993746593044        1.12580837661923
C          -12.39741226334086       -3.70923881557237        0.95317858478429
C          -10.80009041937165       -4.69419659366306        2.57671488407161
C          -10.76216758465217       -5.40124747820200        0.16626494868243
C           -8.56518985666198       -3.47906961532444        0.94291020504454
C           -7.55113400199873       -2.57883884727165        0.68701488103122
C           -7.90220810311170       -1.29798818292120        0.28972740698132
N           -7.10977835205398       -0.20289651131349        0.00267678077848
C           -5.71305729653058       -0.17758777929221        0.00190709422856
C           -5.02433956760063        0.83769534260468        0.66237060357255
C           -3.64607999835359        0.86520061208786        0.65322485112228
C           -2.91351305949138       -0.12480083049521       -0.00260265448270
C           -1.45154102038847       -0.10815698410552       -0.00101311675276
C           -0.70196180358335       -1.26638294969798       -0.00260962193042
C            0.69786181363444       -1.26974691823666       -0.00621725287959
C            1.45302356534849       -0.11518656179020       -0.01770295974633
C            2.91488159946033       -0.13940009264757       -0.01954210223801
C            3.60992944679652       -1.15232752776747        0.64397476666485
C            4.98796424237194       -1.18762185330267        0.64154221070495
C            5.71397284425856       -0.21113344403267       -0.03746967070616
N            7.11036969417542       -0.24875757465361       -0.04759667216558
C            7.88981659228683       -1.35400999139044       -0.33137546874178
C            7.52301245601955       -2.63386534809661       -0.71750455008037
C            8.52606056974833       -3.54622722594239       -0.97367107086447
C            9.88763625410015       -3.23157149480949       -0.86857571665179
C           10.91601192349248       -4.31313647756573       -1.16670078980869
C           10.70224069192200       -5.49093423968955       -0.20536669857188
C           12.35533293623668       -3.81898150151200       -0.99716240294716
C           10.74329960504196       -4.78710807151398       -2.61670389352552
C           10.24205229418719       -1.94200692238725       -0.50855284314004
C            9.25326357253422       -1.00328713077191       -0.24495336353132
C            9.29415536424944        0.38646672280596        0.11808956232013
C           10.33722281919523        1.26894578265062        0.36673285438908
C           10.05971307427457        2.57591486607884        0.73120251874556
C           11.15053964828454        3.59915449930367        1.01282089304161
C           11.02311182951681        4.08663772860168        2.46302306731797
C           10.99034810279837        4.78394602070395        0.04970138651618
C           12.55785502916639        3.02494387483718        0.82729274613187
C            8.71915806030436        2.96527024474846        0.85578822980537
C            7.66333216634854        2.11006663751920        0.61493908676960
C            7.95369364447145        0.81207288257882        0.22427536269681
C            5.02889909048852        0.80432967728224       -0.70137250764335
C            3.65088183560222        0.84119403099785       -0.68558578517223
C            0.72482005771261        1.10023607354765       -0.02527783329838
N            1.22212490866107        2.33765196798708       -0.03064959062001
S            0.00920429932971        3.39058577832364       -0.02255819775405
N           -1.20879332190531        2.34360857872852       -0.00648048174557
C           -0.71748209844347        1.10379692958570       -0.00232110976457
C           -3.61213553450764       -1.13862256327628       -0.66098525146312
C           -4.99041144365398       -1.16470878326515       -0.66512865526906
H          -11.05447725939712        3.30043138679369       -3.25577302110245
H          -11.73749305247570        4.86895539925005       -2.81577880465179
H           -9.99546469337730        4.61426306742899       -2.75001286167950
H           -9.97209264258886        5.34909361584739       -0.30071393301852
H          -11.01773238673690        4.53795870689131        0.86243596485834
H          -11.71354495579918        5.60829009305711       -0.35831524772975
H          -12.67855344567147        2.78541515609551        0.08180701434417
H          -12.70059746831137        2.28702032749731       -1.61950038459888
H          -13.24540931373229        3.89603768724533       -1.16054656091592
H           -8.43574964287266        4.02365887403332       -1.25058009580168
H           -6.61157393124523        2.47901599755106       -0.80739041289682
H          -11.33380316729463        0.99550136370771       -0.35919457011271
H          -11.28878565825505       -1.54799855983629        0.36963547180263
H          -13.09762486354947       -4.51343409826637        1.17095987783151
H          -12.60550592873690       -2.88935291708821        1.63671856787101
H          -12.57404699232326       -3.37750358998170       -0.06738390913820
H          -11.55252597026571       -5.44361179098279        2.81402034310452
H          -10.91879240756162       -3.85645356575083        3.26086176389474
H           -9.82003508015990       -5.13244621854308        2.74310366449453
H          -11.51007194429710       -6.16918506274499        0.35335285792839
H          -10.85986700473998       -5.06775994241491       -0.86487972087459
H           -9.77924000119364       -5.84781473040442        0.28753963645662
H           -8.28612862816475       -4.47588521193104        1.24910875390069
H           -6.51759130167674       -2.86713305717926        0.80779108103797
H           -5.57887278167300        1.59353376165749        1.19788655781671
H           -3.12363321759785        1.65347844423353        1.17077245920605
H           -1.21047558587954       -2.21879059871142        0.01932968336047
H            1.20176653817814       -2.22473827426721       -0.02076437399615
H            3.06486598535170       -1.90120828355955        1.19932766682918
H            5.51357252402489       -1.95876888238260        1.18476857951757
H            6.48580327052733       -2.91220183262779       -0.82990927778461
H            8.23480662842386       -4.54197449278714       -1.27187058145715
H           10.80225941333202       -5.15670864322977        0.82530938303496
H            9.71548981230185       -5.92894426869243       -0.32664507663600
H           11.44320503652309       -6.26599206021568       -0.39066310495452
H           13.04569782049246       -4.63226022657059       -1.21262211916979
H           12.57281973871237       -3.00416042415261       -1.68381643479711
H           12.53658259105095       -3.48567328069289        0.02208805818843
H            9.75668433443626       -5.21125921870509       -2.78098559550386
H           11.48456159338160       -5.54758482075072       -2.85397899530130
H           10.87304025528253       -3.95209390781040       -3.30218866135029
H           11.27302829586460       -1.63950548358934       -0.43119574777615
H           11.34864173101593        0.90986779432501        0.27440455728888
H           11.80871215747636        4.80523638197804        2.68789490254053
H           11.11487264664236        3.24789666582092        3.15009927556125
H           10.06399621927765        4.56585381531820        2.63814609747062
H           10.03008387341812        5.27492081005164        0.18017039158842
H           11.77425553049035        5.51821414454962        0.22414961211229
H           11.06067544228278        4.44171153987919       -0.98080599834298
H           13.29515888716298        3.79861350181574        1.03289042424051
H           12.73753136721569        2.20018313527378        1.51304134839761
H           12.70816562063536        2.68057975307968       -0.19332218026045
H            8.48769455733820        3.97556836452506        1.15722896717237
H            6.64494735225283        2.44535491417956        0.74188801391234
H            5.58576904405615        1.55238003479482       -1.24532714287264
H            3.13116965923955        1.62913615308299       -1.20639656409516
H           -3.06941222892862       -1.89545261831365       -1.20779105176716
H           -5.51851155278294       -1.93654155671988       -1.20494989933741

          :  Hamiltonian                  GFN2-xTB          :
         :: gradient norm              0.000042997458 Eh/a0 ::
         :: HOMO-LUMO gap              1.237670774295 eV    ::
         :: SCC energy              -171.780208349220 Eh    ::
         :: -> dispersion             -0.156095982299 Eh    ::
         :: repulsion energy           2.905405078593 Eh    ::

    * Orbital Energies and Occupations

         #    Occupation            Energy/Eh            Energy/eV
      -------------------------------------------------------------
         1        2.0000           -0.7599569             -20.6795
       ...           ...                  ...                  ...
       146        2.0000           -0.4060437             -11.0490
       147        2.0000           -0.4045964             -11.0096
       148        2.0000           -0.4043515             -11.0030
       149        2.0000           -0.4028909             -10.9632
       150        2.0000           -0.4020741             -10.9410
       151        2.0000           -0.4020546             -10.9405
       152        2.0000           -0.3918570             -10.6630
       153        2.0000           -0.3918351             -10.6624
       154        2.0000           -0.3795904             -10.3292
       155        2.0000           -0.3684194             -10.0252
       156        2.0000           -0.3684071             -10.0249
       157        2.0000           -0.3532073              -9.6113
       158        2.0000           -0.3504431              -9.5360 (HOMO)
       159                         -0.3049596              -8.2984 (LUMO)
       160                         -0.2529442              -6.8830
       161                         -0.2384637              -6.4889
       162                         -0.2351825              -6.3996
       163                         -0.2299790              -6.2580
       164                         -0.2274634              -6.1896
       165                         -0.2273374              -6.1862
       166                         -0.2168556              -5.9009
       167                         -0.2135554              -5.8111
       168                         -0.2126396              -5.7862
       169                         -0.2126242              -5.7858
       ...                                ...                  ...
       315                          0.7480516              20.3555
      -------------------------------------------------------------
                  HL-Gap            0.0454836 Eh            1.2377 eV

     #   Z          covCN         q      C6AA      α(0)
     1   6 C        3.761    -0.105    22.551     6.769
     2   6 C        3.903     0.026    20.088     6.371
     3   6 C        3.762    -0.105    22.552     6.770
     4   6 C        3.761    -0.107    22.583     6.774
     5   6 C        2.973    -0.002    28.077     8.692
     6   6 C        2.931    -0.039    28.980     8.829
     7   6 C        2.908    -0.053    29.328     8.880
     8   6 C        3.080     0.042    26.963     8.513
     9   6 C        3.068    -0.020    28.439     8.744
    10   6 C        2.918    -0.044    29.091     8.845
    11   6 C        3.067    -0.020    28.436     8.744
    12   6 C        2.918    -0.044    29.089     8.844
    13   6 C        2.973    -0.002    28.081     8.692
    14   6 C        3.903     0.026    20.088     6.371
    15   6 C        3.761    -0.107    22.583     6.774
    16   6 C        3.761    -0.105    22.549     6.769
    17   6 C        3.762    -0.105    22.549     6.769
    18   6 C        2.931    -0.040    28.987     8.830
    19   6 C        2.908    -0.054    29.331     8.880
    20   6 C        3.079     0.042    26.966     8.513
    21   7 N        2.802    -0.043    22.075     6.978
    22   6 C        2.913     0.065    26.549     8.449
    23   6 C        2.921    -0.043    29.073     8.842
    24   6 C        2.924    -0.030    28.745     8.792
    25   6 C        2.974     0.010    27.789     8.647
    26   6 C        2.965    -0.003    28.095     8.694
    27   6 C        2.924    -0.039    28.978     8.828
    28   6 C        2.924    -0.039    28.978     8.828
    29   6 C        2.965    -0.003    28.095     8.694
    30   6 C        2.974     0.010    27.789     8.647
    31   6 C        2.925    -0.034    28.851     8.808
    32   6 C        2.920    -0.044    29.102     8.846
    33   6 C        2.913     0.065    26.549     8.449
    34   7 N        2.802    -0.043    22.074     6.978
    35   6 C        3.080     0.042    26.966     8.513
    36   6 C        2.908    -0.054    29.331     8.880
    37   6 C        2.931    -0.040    28.987     8.830
    38   6 C        2.973    -0.002    28.081     8.692
    39   6 C        3.903     0.026    20.088     6.371
    40   6 C        3.762    -0.105    22.550     6.769
    41   6 C        3.761    -0.107    22.583     6.774
    42   6 C        3.761    -0.105    22.549     6.769
    43   6 C        2.918    -0.044    29.089     8.844
    44   6 C        3.067    -0.020    28.436     8.744
    45   6 C        3.068    -0.020    28.439     8.744
    46   6 C        2.918    -0.044    29.091     8.845
    47   6 C        2.973    -0.002    28.077     8.692
    48   6 C        3.903     0.026    20.088     6.371
    49   6 C        3.761    -0.105    22.551     6.769
    50   6 C        3.762    -0.105    22.552     6.770
    51   6 C        3.761    -0.107    22.583     6.774
    52   6 C        2.931    -0.039    28.980     8.829
    53   6 C        2.908    -0.053    29.328     8.880
    54   6 C        3.079     0.043    26.963     8.513
    55   6 C        2.921    -0.043    29.074     8.842
    56   6 C        2.924    -0.030    28.745     8.792
    57   6 C        3.346     0.072    23.875     7.712
    58   7 N        1.853    -0.269    27.845     7.821
    59  16 S        2.667     0.320   128.682    19.092
    60   7 N        1.853    -0.269    27.845     7.821
    61   6 C        3.346     0.072    23.875     7.712
    62   6 C        2.925    -0.034    28.851     8.808
    63   6 C        2.920    -0.044    29.102     8.846
    64   1 H        0.925     0.033     2.546     2.495
    65   1 H        0.925     0.035     2.513     2.479
    66   1 H        0.925     0.035     2.511     2.478
    67   1 H        0.925     0.036     2.510     2.477
    68   1 H        0.925     0.033     2.545     2.495
    69   1 H        0.925     0.035     2.515     2.480
    70   1 H        0.925     0.035     2.513     2.479
    71   1 H        0.925     0.035     2.515     2.480
    72   1 H        0.925     0.034     2.526     2.486
    73   1 H        0.926     0.028     2.608     2.525
    74   1 H        0.926     0.027     2.630     2.536
    75   1 H        0.926     0.036     2.498     2.471
    76   1 H        0.926     0.037     2.496     2.470
    77   1 H        0.925     0.034     2.526     2.485
    78   1 H        0.925     0.035     2.513     2.479
    79   1 H        0.925     0.035     2.513     2.479
    80   1 H        0.925     0.035     2.513     2.479
    81   1 H        0.925     0.033     2.545     2.495
    82   1 H        0.925     0.035     2.515     2.480
    83   1 H        0.925     0.035     2.515     2.480
    84   1 H        0.925     0.033     2.545     2.495
    85   1 H        0.925     0.035     2.515     2.480
    86   1 H        0.926     0.028     2.619     2.531
    87   1 H        0.926     0.024     2.669     2.555
    88   1 H        0.926     0.043     2.413     2.429
    89   1 H        0.926     0.053     2.287     2.365
    90   1 H        0.926     0.040     2.447     2.446
    91   1 H        0.926     0.040     2.447     2.446
    92   1 H        0.926     0.036     2.504     2.474
    93   1 H        0.926     0.041     2.438     2.442
    94   1 H        0.926     0.024     2.669     2.555
    95   1 H        0.926     0.028     2.619     2.531
    96   1 H        0.925     0.033     2.545     2.495
    97   1 H        0.925     0.035     2.514     2.480
    98   1 H        0.925     0.035     2.515     2.480
    99   1 H        0.925     0.034     2.526     2.485
   100   1 H        0.925     0.035     2.513     2.479
   101   1 H        0.925     0.035     2.512     2.479
   102   1 H        0.925     0.035     2.515     2.480
   103   1 H        0.925     0.035     2.513     2.479
   104   1 H        0.925     0.033     2.545     2.495
   105   1 H        0.926     0.037     2.496     2.470
   106   1 H        0.926     0.036     2.498     2.471
   107   1 H        0.925     0.035     2.513     2.479
   108   1 H        0.925     0.033     2.546     2.495
   109   1 H        0.925     0.035     2.511     2.478
   110   1 H        0.925     0.036     2.509     2.477
   111   1 H        0.925     0.035     2.515     2.480
   112   1 H        0.925     0.033     2.545     2.495
   113   1 H        0.925     0.034     2.526     2.485
   114   1 H        0.925     0.035     2.515     2.480
   115   1 H        0.925     0.035     2.513     2.479
   116   1 H        0.926     0.028     2.608     2.525
   117   1 H        0.926     0.027     2.630     2.536
   118   1 H        0.926     0.043     2.414     2.429
   119   1 H        0.926     0.053     2.287     2.365
   120   1 H        0.926     0.036     2.504     2.474
   121   1 H        0.926     0.041     2.439     2.442

molecular dipole:
                 x           y           z       tot (Debye)
 q only:        0.001      -0.006      -0.001
   full:        0.000      -0.327       0.000       0.832

 projected vibrational frequencies (cm⁻¹)
eigval :       -0.00    -0.00    -0.00     0.00     0.00     0.00
eigval :        5.82     5.95     7.91    18.38    18.68    21.70
eigval :       30.97    31.02    33.15    33.65    34.47    50.89
eigval :       52.90    56.57    57.39    68.90    69.57    83.92
eigval :       86.71    94.51    96.09    98.66   106.39   119.51
eigval :      125.15   153.55   160.56   160.68   167.90   173.32
eigval :      176.74   181.29   188.02   188.06   196.16   202.96
eigval :      202.98   214.12   218.27   218.73   221.24   227.11
eigval :      228.22   228.90   233.03   254.11   258.96   258.97
eigval :      273.52   274.98   278.59   278.73   307.58   317.51
eigval :      317.71   321.78   322.07   324.37   326.79   332.22
eigval :      338.21   341.98   347.07   360.07   360.12   362.43
eigval :      368.45   382.67   384.00   384.62   390.09   394.92
eigval :      398.56   400.77   411.47   411.92   419.45   439.95
eigval :      442.01   442.27   443.16   448.05   453.46   464.01
eigval :      465.84   465.89   470.56   474.23   479.45   495.62
eigval :      499.43   519.31   519.76   533.06   543.99   564.08
eigval :      571.62   579.68   582.39   582.70   585.25   586.43
eigval :      599.94   610.26   611.03   628.20   631.30   639.93
eigval :      639.93   640.94   649.18   687.18   688.09   688.10
eigval :      691.19   692.09   707.45   707.76   720.79   721.42
eigval :      722.53   738.76   745.65   767.34   812.11   815.47
eigval :      822.99   823.15   823.94   825.97   831.87   831.95
eigval :      842.73   866.42   866.68   870.22   873.60   873.69
eigval :      874.35   874.43   874.73   874.95   889.81   906.88
eigval :      908.77   910.67   911.13   913.21   913.41   918.49
eigval :      923.47   924.17   927.26   927.30   929.39   930.79
eigval :      935.42   938.55   958.59   960.24   960.25   960.32
eigval :      960.33   962.85   962.86   962.90   962.90   962.94
eigval :      962.95   963.38   963.49   974.98  1021.99  1028.24
eigval :     1031.20  1031.21  1035.77  1035.81  1035.87  1035.90
eigval :     1036.02  1036.08  1041.90  1041.90  1116.50  1116.81
eigval :     1130.14  1130.34  1133.25  1139.61  1143.52  1143.63
eigval :     1144.82  1146.30  1177.40  1177.42  1192.47  1192.50
eigval :     1212.99  1216.79  1228.21  1228.21  1228.32  1228.33
eigval :     1231.60  1231.65  1232.47  1232.48  1238.19  1238.23
eigval :     1243.44  1246.01  1252.91  1260.80  1262.80  1267.64
eigval :     1269.70  1279.00  1285.78  1285.86  1301.06  1304.68
eigval :     1307.38  1310.33  1311.33  1311.96  1318.99  1327.82
eigval :     1347.69  1348.15  1350.56  1358.81  1359.26  1370.68
eigval :     1383.52  1384.41  1401.52  1402.22  1404.75  1404.77
eigval :     1406.04  1406.05  1406.10  1406.10  1406.96  1411.28
eigval :     1415.98  1419.53  1429.46  1429.47  1429.57  1429.59
eigval :     1441.41  1443.47  1480.94  1483.04  1483.09  1485.70
eigval :     1485.71  1492.62  1492.63  1492.68  1492.68  1495.28
eigval :     1495.38  1495.38  1495.44  1495.45  1501.85  1501.96
eigval :     1502.21  1502.22  1505.98  1506.00  1506.08  1506.08
eigval :     1507.76  1515.07  1515.08  1515.27  1515.28  1520.58
eigval :     1520.59  1521.42  1521.43  1528.83  1550.37  1555.14
eigval :     1565.78  1570.99  1571.46  1582.37  1582.65  1592.19
eigval :     1594.83  1604.57  1604.58  1617.60  1617.69  3020.26
eigval :     3020.27  3020.42  3020.44  3021.53  3021.56  3021.59
eigval :     3021.62  3026.69  3026.69  3026.75  3026.76  3028.82
eigval :     3028.83  3029.28  3029.38  3030.76  3030.77  3030.84
eigval :     3030.85  3035.38  3035.38  3035.64  3035.66  3037.74
eigval :     3037.75  3037.99  3038.04  3046.63  3046.65  3046.99
eigval :     3047.02  3050.02  3050.04  3050.44  3050.47  3077.89
eigval :     3078.06  3079.59  3080.21  3080.26  3080.82  3084.48
eigval :     3091.06  3091.08  3091.61  3091.64  3092.97  3093.21
eigval :     3093.28  3094.06  3095.58  3113.70  3113.75  3114.73
eigval :     3114.74  3118.15  3118.20

   temp. (K)  partition function   enthalpy   heat capacity  entropy
                                   cal/mol     cal/K/mol   cal/K/mol   J/K/mol
 298.15  VIB  0.107E+29            35295.829    216.614    220.391
         ROT  0.201E+09              888.752      2.981     40.978
         INT  0.216E+37            36184.581    219.595    261.369
         TR   0.237E+29             1481.254      4.968     46.052
         TOT                       37665.8350   224.5635   307.4208  1286.2486

       T/K    H(0)-H(T)+PV         H(T)/Eh          T*S/Eh         G(T)/Eh
   ------------------------------------------------------------------------
    298.15    0.600243E-01    0.105346E+01    0.146066E+00    0.907393E+00
   ------------------------------------------------------------------------

         :::::::::::::::::::::::::::::::::::::::::::::::::::::
         ::                  THERMODYNAMIC                  ::
         :::::::::::::::::::::::::::::::::::::::::::::::::::::
         :: total free energy        -167.967409896241 Eh   ::
         ::.................................................::
         :: total energy             -168.874803270624 Eh   ::
         :: zero point energy           0.993434582377 Eh   ::
         :: G(RRHO) w/o ZPVE           -0.086041207993 Eh   ::
         :: G(RRHO) contrib.            0.907393374383 Eh   ::
         :::::::::::::::::::::::::::::::::::::::::::::::::::::

           -------------------------------------------------
          | TOTAL ENERGY             -168.874803270624 Eh   |
          | TOTAL ENTHALPY           -167.821344359446 Eh   |
          | TOTAL FREE ENERGY        -167.967409896241 Eh   |
          | GRADIENT NORM               0.000043007968 Eh/α |
          | HOMO-LUMO GAP               1.237671378614 eV   |
           -------------------------------------------------

 * finished run on 2025/09/10 at 20:00:20.527
