   * xtb version 6.7.1 (edcfbbe) compiled by 'albert@albert-system' on 2024-07-22

   ID    Z sym.   atoms
    1    6 C      1-20, 22-33, 35-57, 61-63
    2    7 N      21, 34, 58, 60
    3   16 S      59
    4    1 H      64-121

          program call               : xtb data2507/gas/CBTD2/CBTD2_gas_T1_crest.xyz --gfn 2 --spinpol --tblite --uhf 2 --ohess vtight --parallel 40 --molden --ceasefiles --namespace data2507/gas/CBTD2/CBTD2_gas_T1_finalOpt
 * total energy  :  -168.8178160 Eh     change       -0.5194295E-08 Eh
 * total energy  :  -168.8178279 Eh     change       -0.1191998E-04 Eh
 * total energy  :  -168.8178320 Eh     change       -0.4128454E-05 Eh
 * total energy  :  -168.8178336 Eh     change       -0.1577100E-05 Eh
 * total energy  :  -168.8178358 Eh     change       -0.2226948E-05 Eh
 * total energy  :  -168.8178382 Eh     change       -0.2382162E-05 Eh
 * total energy  :  -168.8178402 Eh     change       -0.2036386E-05 Eh
 * total energy  :  -168.8178424 Eh     change       -0.2130617E-05 Eh
 * total energy  :  -168.8178444 Eh     change       -0.2059675E-05 Eh
 * total energy  :  -168.8178469 Eh     change       -0.2509349E-05 Eh
 * total energy  :  -168.8178945 Eh     change       -0.2452989E-06 Eh
 * total energy  :  -168.8178947 Eh     change       -0.1961351E-06 Eh
 * total energy  :  -168.8178949 Eh     change       -0.2005207E-06 Eh
 * total energy  :  -168.8178951 Eh     change       -0.1886572E-06 Eh
 * total energy  :  -168.8178953 Eh     change       -0.2710262E-06 Eh
 * total energy  :  -168.8178956 Eh     change       -0.2546585E-06 Eh
 * total energy  :  -168.8178959 Eh     change       -0.3156863E-06 Eh
 * total energy  :  -168.8178961 Eh     change       -0.2367138E-06 Eh
 * total energy  :  -168.8178962 Eh     change       -0.6538210E-07 Eh
   *** GEOMETRY OPTIMIZATION CONVERGED AFTER 68 ITERATIONS ***

 final structure:
================
121
 xtb: 6.7.1 (edcfbbe)
C          -11.14395772617313        3.50314619611221       -3.19189897705148
C          -11.22781909727548        3.30034553550426       -1.67235326721455
C          -11.05726422703439        4.64816472168379       -0.95705139645657
C          -12.62188708677252        2.76063888793422       -1.34074136613348
C          -10.11650766744563        2.35962031801020       -1.23192578594470
C           -8.78501694481206        2.72965659101580       -1.46315671753740
C           -7.71180882091932        1.94683701246290       -1.08847241017891
C           -7.97504965327604        0.74714824125736       -0.44424146007699
C           -9.30752880584885        0.33499849091676       -0.23139511986730
C          -10.36769805595800        1.14078348589939       -0.61971990696594
C           -9.23928361948211       -0.96202421432839        0.38769085113525
C          -10.20876171069796       -1.84245814227218        0.84463885050577
C           -9.82846323375490       -3.03627180886927        1.43941672319228
C          -10.83561751659934       -4.05305289259706        1.95504382152160
C          -10.61196540798402       -5.39133968830948        1.23645224821251
C          -12.28452001420874       -3.62131325304847        1.71261749742589
C          -10.63860381298816       -4.23462026968302        3.46682963007998
C           -8.46105845590210       -3.30584566257548        1.58237823018129
C           -7.47613669164108       -2.44738551802074        1.13745431043997
C           -7.86872534945129       -1.27333853801984        0.51227859651829
N           -7.11079799931779       -0.23358251537500        0.00667934146735
C           -5.72066020979540       -0.18136582015867       -0.03363409484332
C           -5.03614874314600        0.97309831011698        0.36127992892171
C           -3.66602406054356        1.01915511753676        0.32608349415264
C           -2.89850953011788       -0.08508237405033       -0.10053916109207
C           -1.46643332974356       -0.03714160085137       -0.11591711727948
C           -0.67869011518999       -1.22847173650826       -0.14198318344280
C            0.67989468917611       -1.22698204119578       -0.11195803645051
C            1.46425830449014       -0.03333752388149       -0.09501689368500
C            2.89646582120803       -0.07649315273596       -0.07940660345431
C            3.60014271111660       -1.23358298767994        0.31874423539758
C            4.97168771477490       -1.27047679184458        0.33769688363599
C            5.71956802993968       -0.15252412251035       -0.04511672950196
N            7.11059594349813       -0.18933427463406       -0.02154914398928
C            7.90510294432765       -1.21098850609319       -0.50708579501153
C            7.55894028241155       -2.37430336077778       -1.17810708344551
C            8.57517127753924       -3.21456789473690       -1.58589594552148
C            9.92995835246791       -2.93669138218389       -1.36160835503537
C           10.97397736256038       -3.93345746982804       -1.84179327294233
C           12.40303765155502       -3.49416196346845       -1.51111858106845
C           10.86214129127909       -4.08487655180684       -3.36553610580868
C           10.72462795464170       -5.28851646911580       -1.16425780030484
C           10.26531490385345       -1.75313834030222       -0.72104839411829
C            9.26367228243298       -0.89120952728149       -0.29970203429351
C            9.28521377911137        0.39131551858295        0.35207790562332
C           10.31441241350146        1.19491273660969        0.82014381612234
C           10.01797266245378        2.39551658486775        1.44792644995550
C           11.09382057741299        3.33143272971394        1.97757788289797
C           10.91957021208537        3.49152354730619        3.49457031429748
C           10.95417032466783        4.69735344151554        1.29053306262577
C           12.50930892390763        2.81037901467507        1.71386463575650
C            8.67228242656848        2.75005379606253        1.61111417413801
C            7.62912151635740        1.96899767854481        1.15648282537672
C            7.93918187378687        0.78753750538391        0.49956336538310
C            5.04131140641246        1.00457750310663       -0.44306193086694
C            3.67046883059770        1.04068619022362       -0.45764222939847
C            0.72104110035117        1.17698443786260       -0.10130060732245
N            1.22217368723607        2.40598783734725       -0.08531979858790
S           -0.00592000283331        3.49171579319565       -0.07031543556038
N           -1.23085573548636        2.40238646998667       -0.07714199107599
C           -0.72621734398338        1.17475549012753       -0.08775172410768
C           -3.60886448049989       -1.23623260559751       -0.50407605328912
C           -4.97990437505764       -1.28295138487543       -0.47357867690385
H          -11.23865172252051        2.54786687968598       -3.70419051679237
H          -11.94703733529987        4.15611614520649       -3.52723735448296
H          -10.19802247335075        3.95197711234487       -3.48140789401185
H          -10.10749674699930        5.11307774409516       -1.20559509493835
H          -11.09641328338548        4.50851242386560        0.12133475060824
H          -11.85503196713381        5.32910604221512       -1.24624712653245
H          -12.73982590504585        2.61349646369674       -0.26961580268873
H          -12.81065395318252        1.82072160313112       -1.85428907742976
H          -13.37402779435554        3.47668051959477       -1.66587670528157
H           -8.57450926933181        3.66413829603354       -1.96004627299999
H           -6.70253074912883        2.26000640512174       -1.30699676576228
H          -11.37193754795006        0.79527601449612       -0.43985704721430
H          -11.24549807472633       -1.57306888477840        0.73160253122457
H          -11.33752036001830       -6.12613149698528        1.57907740747166
H          -10.72953646076788       -5.26487377253009        0.16214103478883
H           -9.61678868802055       -5.78346238572256        1.42609298882794
H          -12.95858413009981       -4.38864304876919        2.08811136487843
H          -12.48165438585506       -3.49187287614058        0.65090078804067
H          -12.50952721444152       -2.69398145859185        2.23428063040541
H          -11.36726974822434       -4.94206847894849        3.85711420880047
H           -9.64494532901492       -4.60915982939444        3.69607653622107
H          -10.77081641904313       -3.28408997985616        3.97957386008188
H           -8.14980903041929       -4.21936317890648        2.06540601858047
H           -6.43405421149824       -2.68303124335477        1.29033120081046
H           -5.59645202234344        1.81833956250069        0.73215871028546
H           -3.14993070398501        1.90877131903850        0.64743054038231
H           -1.18797526056352       -2.17938205468737       -0.14602714832892
H            1.19233197153361       -2.17585306682390       -0.13953391702645
H            3.06040652818062       -2.09935249972008        0.66907676819548
H            5.48474193883168       -2.15324534478853        0.69034697360845
H            6.52914637220851       -2.61534934480743       -1.39328033894753
H            8.29990081066249       -4.12003311101337       -2.10462367745815
H           12.64672162075963       -2.55354365164574       -1.99954610398937
H           12.54067507213404       -3.38645743225037       -0.43765464730389
H           13.10435446112667       -4.24691890223295       -1.86561156372349
H           11.61773054587399       -4.77802030235934       -3.72939379311843
H            9.88614122700402       -4.46260726050352       -3.65696113643460
H           11.01357155984769       -3.12274869004987       -3.85057934490922
H           10.78244521230651       -5.18380261897137       -0.08275023046293
H           11.47484831266193       -6.00964155926149       -1.48191266069591
H            9.74506732968119       -5.68503900564647       -1.41592022252179
H           11.29155419049466       -1.47779394027314       -0.54447248553671
H           11.33028304275710        0.86153778763717        0.68938541434462
H           11.69511681255299        4.14176810672898        3.89389596791346
H           10.99387324085101        2.52328407662941        3.98545096812767
H            9.95386999213881        3.92407206648460        3.74029641959875
H           11.05729158348588        4.58788918976858        0.21288838973650
H            9.98775548825481        5.14894244504395        1.49568051433175
H           11.72810304096781        5.37527140962389        1.64438997995532
H           13.23517650390383        3.52211068615677        2.10205590647219
H           12.67541588327338        1.85788615606915        2.21184439841174
H           12.69096856876954        2.69369012181355        0.64791587621258
H            8.42549852037970        3.67012969490545        2.11808402901257
H            6.60637276765377        2.26910820644946        1.32487010433683
H            5.60866411707170        1.86138333995546       -0.77465103054396
H            3.15969313401569        1.93343493668915       -0.77875450031689
H           -3.07674869581106       -2.08925606752124       -0.89501536335598
H           -5.49983052869071       -2.16082714400631       -0.82839149541843

 projected vibrational frequencies (cm⁻¹)
eigval :       -0.00    -0.00     0.00     0.00     0.00     0.00
eigval :        4.77     5.15     9.25    17.43    17.94    21.31
eigval :       30.42    30.55    32.48    33.09    33.60    52.08
eigval :       54.81    55.11    56.86    65.87    71.21    84.08
eigval :       92.87    93.58    98.40    99.08   108.96   117.89
eigval :      122.29   148.49   150.57   159.94   160.33   173.83
eigval :      176.29   182.51   185.19   189.81   197.38   202.27
eigval :      202.40   217.50   217.99   218.33   221.09   228.79
eigval :      229.08   230.90   235.44   249.21   258.49   258.71
eigval :      270.42   276.72   278.05   282.05   304.42   310.84
eigval :      317.60   317.99   321.83   322.29   325.56   326.52
eigval :      338.20   341.38   342.23   358.28   359.28   359.49
eigval :      362.64   368.14   382.57   382.59   389.56   390.59
eigval :      398.97   399.18   405.45   409.71   410.27   416.28
eigval :      441.58   441.64   441.93   442.64   449.94   462.42
eigval :      463.10   464.04   466.20   466.39   472.53   490.76
eigval :      493.55   518.33   518.50   523.41   533.37   561.01
eigval :      562.49   576.39   578.55   580.53   581.94   586.00
eigval :      586.36   598.33   606.74   617.35   629.48   630.09
eigval :      641.03   641.11   642.27   679.84   680.44   686.36
eigval :      690.06   690.07   707.59   708.31   715.92   719.03
eigval :      720.73   721.80   739.98   756.66   780.36   790.61
eigval :      811.38   814.57   823.72   823.87   825.87   826.44
eigval :      832.15   832.24   842.84   848.01   850.32   870.98
eigval :      871.07   872.40   872.42   873.69   873.72   883.69
eigval :      902.95   908.19   908.75   910.18   912.52   912.54
eigval :      923.21   923.25   926.41   926.58   928.18   928.65
eigval :      934.87   937.56   949.43   960.15   960.18   960.26
eigval :      960.27   962.64   962.64   962.73   962.96   962.98
eigval :      963.03   963.05   963.07   963.92  1012.31  1015.93
eigval :     1031.01  1031.02  1035.07  1035.08  1035.15  1035.16
eigval :     1035.52  1035.53  1041.52  1041.54  1100.12  1114.11
eigval :     1115.21  1129.79  1129.89  1141.75  1142.46  1143.33
eigval :     1145.66  1149.57  1172.69  1172.72  1187.51  1190.82
eigval :     1211.64  1218.58  1227.43  1227.44  1227.52  1227.53
eigval :     1230.92  1231.00  1231.33  1231.34  1234.90  1234.92
eigval :     1241.50  1242.90  1253.70  1258.38  1259.99  1261.07
eigval :     1268.79  1271.64  1283.12  1283.78  1291.64  1300.53
eigval :     1300.78  1302.99  1303.49  1320.72  1321.10  1344.53
eigval :     1347.72  1349.46  1350.82  1351.04  1357.65  1372.02
eigval :     1382.09  1399.97  1401.59  1402.22  1404.25  1404.27
eigval :     1405.39  1405.54  1405.61  1405.63  1408.15  1410.30
eigval :     1411.12  1418.28  1427.44  1427.45  1427.54  1427.55
eigval :     1431.86  1436.18  1438.05  1440.69  1473.48  1473.49
eigval :     1476.85  1479.98  1482.23  1482.38  1491.15  1491.19
eigval :     1491.26  1491.28  1493.76  1493.77  1493.92  1493.93
eigval :     1500.30  1500.30  1500.40  1500.41  1504.27  1504.43
eigval :     1504.52  1504.56  1504.94  1505.64  1514.19  1514.26
eigval :     1514.43  1514.47  1519.16  1519.18  1519.94  1519.98
eigval :     1546.64  1562.41  1566.83  1566.84  1574.35  1578.97
eigval :     1579.81  1592.96  1592.98  1607.05  1608.86  3021.94
eigval :     3021.95  3022.09  3022.09  3023.59  3023.60  3023.66
eigval :     3023.69  3027.25  3027.26  3027.38  3027.39  3030.26
eigval :     3030.27  3030.38  3030.71  3031.28  3031.31  3031.37
eigval :     3031.43  3035.74  3035.76  3036.05  3036.05  3038.32
eigval :     3038.34  3038.59  3038.75  3047.76  3047.78  3048.45
eigval :     3048.52  3051.11  3051.13  3051.92  3051.96  3079.76
eigval :     3080.19  3084.27  3084.47  3085.95  3086.07  3087.18
eigval :     3088.42  3088.47  3095.30  3095.55  3096.10  3098.13
eigval :     3098.62  3100.43  3105.53  3115.82  3115.83  3118.00
eigval :     3118.44  3119.45  3119.79

   temp. (K)  partition function   enthalpy   heat capacity  entropy
                                   cal/mol     cal/K/mol   cal/K/mol   J/K/mol
 298.15  VIB  0.195E+29            35518.613    217.935    221.895
         ROT  0.404E+09              888.752      2.981     42.362
         INT  0.787E+37            36407.365    220.916    264.257
         TR   0.237E+29             1481.254      4.968     46.052
         TOT                       37888.6191   225.8843   310.3090  1298.3329

       T/K    H(0)-H(T)+PV         H(T)/Eh          T*S/Eh         G(T)/Eh
   ------------------------------------------------------------------------
    298.15    0.603794E-01    0.105121E+01    0.147438E+00    0.903774E+00
   ------------------------------------------------------------------------

         :::::::::::::::::::::::::::::::::::::::::::::::::::::
         ::                  THERMODYNAMIC                  ::
         :::::::::::::::::::::::::::::::::::::::::::::::::::::
         :: total free energy        -167.914122227119 Eh   ::
         ::.................................................::
         :: total energy             -168.817896201892 Eh   ::
         :: zero point energy           0.990832441721 Eh   ::
         :: G(RRHO) w/o ZPVE           -0.087058466948 Eh   ::
         :: G(RRHO) contrib.            0.903773974774 Eh   ::
         :::::::::::::::::::::::::::::::::::::::::::::::::::::

           -------------------------------------------------
          | TOTAL ENERGY             -168.817896201892 Eh   |
          | TOTAL ENTHALPY           -167.766684402257 Eh   |
          | TOTAL FREE ENERGY        -167.914122227119 Eh   |
          | GRADIENT NORM               0.000048741402 Eh/α |
           -------------------------------------------------

 * finished run on 2025/09/10 at 20:27:27.066
