   * xtb version 6.7.1 (edcfbbe) compiled by 'albert@albert-system' on 2024-07-22

   ID    Z sym.   atoms
    1    6 C      1-20, 22-33, 35-57, 61-63
    2    7 N      21, 34, 58, 60
    3   16 S      59
    4    1 H      64-121

          program call               : xtb data2507/gas/CBTD2/CBTD2.xyz --gfn 2 --ohess vtight --parallel 40 --molden --ceasefiles --namespace data2507/gas/CBTD2/CBTD2_gas_S0_preOpt
          :  Hamiltonian                  GFN2-xTB          :
 * total energy  :  -168.8342284 Eh     change       -0.8508778E-08 Eh
 * total energy  :  -168.8574509 Eh     change       -0.2322245E-01 Eh
 * total energy  :  -168.8639784 Eh     change       -0.6527518E-02 Eh
 * total energy  :  -168.8659190 Eh     change       -0.1940641E-02 Eh
 * total energy  :  -168.8675539 Eh     change       -0.1634829E-02 Eh
 * total energy  :  -168.8685756 Eh     change       -0.1021704E-02 Eh
 * total energy  :  -168.8694504 Eh     change       -0.8748153E-03 Eh
 * total energy  :  -168.8701933 Eh     change       -0.7429544E-03 Eh
 * total energy  :  -168.8706294 Eh     change       -0.4360306E-03 Eh
 * total energy  :  -168.8708904 Eh     change       -0.2610213E-03 Eh
 * total energy  :  -168.8735570 Eh     change       -0.7840341E-06 Eh
 * total energy  :  -168.8735578 Eh     change       -0.7836137E-06 Eh
 * total energy  :  -168.8735585 Eh     change       -0.7833249E-06 Eh
 * total energy  :  -168.8735593 Eh     change       -0.7827860E-06 Eh
 * total energy  :  -168.8735601 Eh     change       -0.7824594E-06 Eh
 * total energy  :  -168.8735609 Eh     change       -0.7817630E-06 Eh
 * total energy  :  -168.8735617 Eh     change       -0.7816093E-06 Eh
 * total energy  :  -168.8735625 Eh     change       -0.7806802E-06 Eh
 * total energy  :  -168.8735625 Eh     change       -0.7411273E-08 Eh
   *** GEOMETRY OPTIMIZATION CONVERGED AFTER 460 ITERATIONS ***

 final structure:
================
121
 xtb: 6.7.1 (edcfbbe)
C          -12.39729452830047       -2.87352274145802       -2.22634853820016
C          -10.96433401637063       -3.26479653070235       -2.59792488082418
C          -10.74505286316195       -4.72365743450236       -2.17241822909306
C          -10.81630940313861       -3.13915846525362       -4.12072529698644
C           -9.92376751892971       -2.38716553036725       -1.91755150306706
C           -8.56644255361478       -2.63371429706856       -2.16226108082357
C           -7.55276733082314       -1.90334071096730       -1.57603546860868
C           -7.90282769030173       -0.88913267535917       -0.69798195952768
C           -9.26252130635393       -0.59603191887548       -0.46479509265439
C          -10.26241111966013       -1.34620160712774       -1.06892185053081
C           -9.28966867189335        0.53045477116467        0.42727020678876
C          -10.31871387226658        1.25227302876125        1.01007749159839
C          -10.03075360477717        2.30542798456783        1.86800373836086
C          -11.17904437139540        3.09639305242094        2.47916262947730
C          -10.70351024558024        4.23264690608264        3.38858214023872
C          -12.05141062578690        2.15007191363606        3.31603232286398
C          -12.01715638630480        3.71261466552886        1.34972131270144
C           -8.69104818286156        2.59157158179849        2.14401469366550
C           -7.64446773703804        1.88692733188375        1.57724732559797
C           -7.94387284846472        0.86488544438891        0.69230375466749
N           -7.11089822359641       -0.00042627848336        0.00589827193004
C           -5.71473937177337        0.02048753774099        0.02136326776411
C           -5.02434485142284        1.22260968627959       -0.12420470651513
C           -3.64631388691125        1.24332215084600       -0.09183601741980
C           -2.91767084595037        0.06379434647530        0.05539301606900
C           -1.45552058536189        0.07948515146187        0.06740075825629
C           -0.70066292498129       -0.89592182883176       -0.54750980295847
C            0.69937891202588       -0.88856385116304       -0.54138837923711
C            1.44902395756037        0.08150274700773        0.09385091851412
C            2.91157104842231        0.05967890983638        0.09327881219268
C            3.65191593407103        1.23983127928371        0.18173364375903
C            5.03025873772730        1.21768127820875        0.17223265545198
C            5.71655798429913        0.01031729083437        0.05860503425428
N            7.11274864560881       -0.01343183811751        0.03537074565380
C            7.92487889196275       -0.86961197635828        0.75679368662253
C            7.60312695568141       -1.83748755406775        1.69333036835735
C            8.63265330287831       -2.54586720457688        2.28605534131041
C            9.97784414716439       -2.31529908094769        1.98595811048580
C           11.10712274660699       -3.11021061096796        2.62666654503481
C           10.60569193768286       -4.18591238848722        3.59398575615833
C           12.01464913017448       -2.15117098315646        3.40994147031109
C           11.91663522831653       -3.80582524394589        1.52275717595983
C           10.28972266887947       -1.31469752220299        1.07513423917661
C            9.27800799370968       -0.59062611077168        0.46552783961253
C            9.27734543362223        0.49147590357631       -0.48013911643598
C           10.29445098438631        1.17976319876621       -1.12781227148274
C            9.98023358684066        2.18836447752143       -2.02349406971329
C           11.04095093517048        2.99939790928252       -2.75355679265440
C           10.87033422456462        4.48312509939726       -2.39742977087986
C           10.87515525587100        2.80530806962565       -4.26731168733439
C           12.46459546023531        2.58213205270903       -2.37448774854103
C            8.62887899577745        2.46502255888074       -2.26944384292901
C            7.59851155029571        1.79620410683513       -1.64055261089938
C            7.92534481476600        0.81536761872204       -0.71677598297367
C            4.98722713132518       -1.17394544025973       -0.02860230266217
C            3.60920192391795       -1.14662895667865       -0.00244897296603
C            0.71011661648457        1.10431091811284        0.74242653420571
N            1.18982320805805        2.13541607187367        1.43954190118983
S           -0.03614320486405        3.00745256917586        2.00306591885201
N           -1.24079186037649        2.13469988544268        1.39863106598909
C           -0.73209476248388        1.10527639398348        0.72070375948613
C           -3.61435302471334       -1.13721013639044        0.18926414170249
C           -4.99297873834911       -1.16031017905006        0.18716176652426
H          -12.61767929692899       -1.85477920632084       -2.53677961136081
H          -13.09689021564385       -3.53681156173486       -2.73137814164820
H          -12.56202429945133       -2.96462554760875       -1.15516984243766
H          -10.82995488636560       -4.81584751709063       -1.09151614730448
H           -9.76218432672787       -5.07999689017870       -2.46785531621717
H          -11.49259832118122       -5.36589679831255       -2.63368534189517
H          -11.56876176466582       -3.74462304282178       -4.62203604791145
H           -9.83677618817931       -3.47090371786676       -4.45344630910662
H          -10.94662127208651       -2.10297641004448       -4.42613260420950
H           -8.28657579687056       -3.42585235961421       -2.84010727853846
H           -6.52041584497337       -2.11465292548667       -1.81083264460791
H          -11.28971358793994       -1.09588382668866       -0.86294807330090
H          -11.33853451929577        0.97875774465414        0.78699842045899
H          -11.56678342256388        4.76543910251702        3.78288545162936
H          -10.13381233878027        3.84852369793232        4.23157137385999
H          -10.09251252298303        4.94478415126649        2.83866491309419
H          -12.87106250287450        2.70044827573426        3.77358879012247
H          -11.45850137650509        1.69306651663188        4.10568922914355
H          -12.47335509649497        1.35664709633099        2.70555486726091
H          -12.83696884610725        4.29545776450686        1.76481011911349
H          -11.40010236107969        4.36973684383757        0.74025423931271
H          -12.43745696193221        2.94648356718004        0.70432549483206
H           -8.44053178718627        3.38733368913870        2.82579273823708
H           -6.62439088427197        2.12797782610196        1.83550549645039
H           -5.57665883729700        2.13675176518959       -0.28043681185651
H           -3.12117748305946        2.17889230010575       -0.20116240736569
H           -1.20544112739410       -1.68737596946203       -1.08193439276032
H            1.20707639068036       -1.67233532800692       -1.08310863541794
H            3.13561734025718        2.18193785616898        0.26812356787089
H            5.58600329514382        2.13788485828322        0.27029488007706
H            6.57864966458559       -2.03353889616218        1.97179270841308
H            8.36421941036723       -3.29903374525136        3.00828005999756
H            9.96863020934850       -4.90498073597810        3.08406482262464
H           11.45597747469771       -4.72504915341371        4.00741047908861
H           10.05539850556374       -3.74407718349844        4.42145832209707
H           12.45476828442065       -1.40157656408162        2.75830824684896
H           11.44256155847232       -1.63846118515050        4.18051825477843
H           12.82140494430299       -2.70321519808012        3.88795197692558
H           11.27504714616810       -4.47297693186094        0.95063814793827
H           12.72227614304037       -4.39222164447019        1.95999474347560
H           12.35397125456905       -3.08510898811843        0.83760946303314
H           11.31531318515742       -1.08395712705210        0.83117634779899
H           11.31537531310293        0.90770943769899       -0.91768198366390
H           11.63292069831528        5.07893894963680       -2.89496460231590
H           10.96790563210342        4.62450649426786       -1.32294160534123
H            9.89614362420620        4.85510236303500       -2.70212480626365
H            9.90314115794622        3.15073474719717       -4.60803669963577
H           11.64102180910484        3.36250081773200       -4.80310418100800
H           10.97108527414735        1.75211799273844       -4.52332620877064
H           13.17954317282241        3.19823801353779       -2.91643410443073
H           12.64183876230535        2.71964253231555       -1.31028532677180
H           12.65080739839719        1.54323688438368       -2.63683039369546
H            8.36728763347469        3.23181277142743       -2.98276612888166
H            6.57112523416002        2.02868919896902       -1.87684716809864
H            5.50814366173817       -2.11404229190348       -0.13097397114200
H            3.06864737095110       -2.08036676056656       -0.04282758679148
H           -3.06770369068175       -2.05738816076969        0.33548451324974
H           -5.52078517657177       -2.09021338683176        0.33639632020270

          :  Hamiltonian                  GFN2-xTB          :
         :: gradient norm              0.000070170738 Eh/a0 ::
         :: HOMO-LUMO gap              1.239439912471 eV    ::
         :: SCC energy              -171.778659009954 Eh    ::
         :: -> dispersion             -0.156086870811 Eh    ::
         :: repulsion energy           2.905096544349 Eh    ::

    * Orbital Energies and Occupations

         #    Occupation            Energy/Eh            Energy/eV
      -------------------------------------------------------------
         1        2.0000           -0.7596912             -20.6722
       ...           ...                  ...                  ...
       146        2.0000           -0.4058114             -11.0427
       147        2.0000           -0.4045684             -11.0089
       148        2.0000           -0.4042201             -10.9994
       149        2.0000           -0.4027753             -10.9601
       150        2.0000           -0.4024457             -10.9511
       151        2.0000           -0.4020671             -10.9408
       152        2.0000           -0.3913482             -10.6491
       153        2.0000           -0.3912741             -10.6471
       154        2.0000           -0.3791734             -10.3178
       155        2.0000           -0.3693794             -10.0513
       156        2.0000           -0.3692913             -10.0489
       157        2.0000           -0.3527991              -9.6002
       158        2.0000           -0.3501707              -9.5286 (HOMO)
       159                         -0.3046221              -8.2892 (LUMO)
       160                         -0.2522199              -6.8633
       161                         -0.2386474              -6.4939
       162                         -0.2355201              -6.4088
       163                         -0.2299752              -6.2579
       164                         -0.2273215              -6.1857
       165                         -0.2264838              -6.1629
       166                         -0.2167611              -5.8984
       167                         -0.2134628              -5.8086
       168                         -0.2133880              -5.8066
       169                         -0.2130123              -5.7964
       ...                                ...                  ...
       315                          0.7501320              20.4121
      -------------------------------------------------------------
                  HL-Gap            0.0455486 Eh            1.2394 eV

     #   Z          covCN         q      C6AA      α(0)
     1   6 C        3.761    -0.106    22.581     6.774
     2   6 C        3.903     0.026    20.087     6.371
     3   6 C        3.762    -0.105    22.550     6.769
     4   6 C        3.761    -0.105    22.550     6.769
     5   6 C        2.973    -0.002    28.078     8.692
     6   6 C        2.931    -0.040    28.986     8.829
     7   6 C        2.909    -0.054    29.333     8.881
     8   6 C        3.077     0.043    26.963     8.513
     9   6 C        3.066    -0.020    28.431     8.743
    10   6 C        2.918    -0.044    29.083     8.843
    11   6 C        3.066    -0.019    28.422     8.742
    12   6 C        2.920    -0.040    28.987     8.829
    13   6 C        2.972    -0.002    28.074     8.691
    14   6 C        3.903     0.026    20.087     6.371
    15   6 C        3.761    -0.107    22.584     6.774
    16   6 C        3.762    -0.105    22.549     6.769
    17   6 C        3.762    -0.105    22.551     6.769
    18   6 C        2.928    -0.044    29.090     8.845
    19   6 C        2.909    -0.054    29.345     8.883
    20   6 C        3.076     0.043    26.965     8.514
    21   7 N        2.801    -0.043    22.068     6.977
    22   6 C        2.912     0.065    26.552     8.450
    23   6 C        2.921    -0.044    29.088     8.844
    24   6 C        2.924    -0.028    28.710     8.787
    25   6 C        2.975     0.010    27.785     8.646
    26   6 C        2.966    -0.003    28.087     8.693
    27   6 C        2.924    -0.039    28.975     8.827
    28   6 C        2.925    -0.039    28.980     8.828
    29   6 C        2.964    -0.003    28.096     8.694
    30   6 C        2.973     0.009    27.807     8.650
    31   6 C        2.924    -0.032    28.787     8.799
    32   6 C        2.921    -0.044    29.091     8.845
    33   6 C        2.912     0.065    26.552     8.450
    34   7 N        2.801    -0.043    22.068     6.977
    35   6 C        3.076     0.043    26.964     8.514
    36   6 C        2.909    -0.054    29.344     8.882
    37   6 C        2.928    -0.044    29.095     8.846
    38   6 C        2.972    -0.002    28.077     8.692
    39   6 C        3.903     0.026    20.087     6.371
    40   6 C        3.761    -0.106    22.581     6.774
    41   6 C        3.762    -0.105    22.549     6.769
    42   6 C        3.762    -0.105    22.550     6.769
    43   6 C        2.920    -0.040    28.986     8.829
    44   6 C        3.066    -0.019    28.420     8.742
    45   6 C        3.066    -0.020    28.432     8.744
    46   6 C        2.918    -0.044    29.083     8.844
    47   6 C        2.973    -0.002    28.077     8.692
    48   6 C        3.903     0.026    20.087     6.371
    49   6 C        3.762    -0.105    22.551     6.769
    50   6 C        3.761    -0.105    22.550     6.769
    51   6 C        3.761    -0.106    22.581     6.774
    52   6 C        2.931    -0.040    28.982     8.829
    53   6 C        2.909    -0.054    29.331     8.880
    54   6 C        3.078     0.043    26.958     8.512
    55   6 C        2.920    -0.045    29.128     8.850
    56   6 C        2.925    -0.034    28.857     8.809
    57   6 C        3.341     0.071    23.982     7.743
    58   7 N        1.853    -0.269    27.844     7.821
    59  16 S        2.667     0.321   128.661    19.091
    60   7 N        1.852    -0.269    27.839     7.820
    61   6 C        3.351     0.072    23.761     7.679
    62   6 C        2.924    -0.034    28.843     8.807
    63   6 C        2.921    -0.045    29.114     8.848
    64   1 H        0.925     0.035     2.516     2.480
    65   1 H        0.925     0.034     2.525     2.485
    66   1 H        0.925     0.035     2.513     2.479
    67   1 H        0.925     0.033     2.545     2.495
    68   1 H        0.925     0.035     2.514     2.479
    69   1 H        0.925     0.035     2.513     2.479
    70   1 H        0.925     0.035     2.512     2.479
    71   1 H        0.925     0.035     2.514     2.480
    72   1 H        0.925     0.033     2.544     2.494
    73   1 H        0.926     0.028     2.617     2.530
    74   1 H        0.926     0.025     2.658     2.550
    75   1 H        0.926     0.036     2.503     2.474
    76   1 H        0.926     0.030     2.593     2.518
    77   1 H        0.925     0.035     2.522     2.484
    78   1 H        0.925     0.035     2.518     2.482
    79   1 H        0.925     0.035     2.517     2.481
    80   1 H        0.925     0.035     2.514     2.480
    81   1 H        0.925     0.033     2.547     2.496
    82   1 H        0.925     0.036     2.506     2.476
    83   1 H        0.925     0.035     2.516     2.481
    84   1 H        0.925     0.033     2.548     2.496
    85   1 H        0.925     0.036     2.505     2.475
    86   1 H        0.926     0.036     2.509     2.477
    87   1 H        0.926     0.028     2.618     2.530
    88   1 H        0.926     0.043     2.410     2.428
    89   1 H        0.926     0.048     2.339     2.392
    90   1 H        0.926     0.040     2.455     2.450
    91   1 H        0.926     0.041     2.440     2.443
    92   1 H        0.926     0.055     2.255     2.348
    93   1 H        0.926     0.043     2.414     2.430
    94   1 H        0.926     0.026     2.649     2.545
    95   1 H        0.926     0.035     2.518     2.481
    96   1 H        0.925     0.035     2.521     2.483
    97   1 H        0.925     0.035     2.523     2.484
    98   1 H        0.925     0.035     2.519     2.482
    99   1 H        0.925     0.036     2.505     2.475
   100   1 H        0.925     0.033     2.546     2.495
   101   1 H        0.925     0.035     2.514     2.480
   102   1 H        0.925     0.033     2.550     2.497
   103   1 H        0.925     0.035     2.516     2.481
   104   1 H        0.925     0.036     2.504     2.474
   105   1 H        0.926     0.030     2.592     2.518
   106   1 H        0.926     0.036     2.504     2.474
   107   1 H        0.925     0.035     2.513     2.479
   108   1 H        0.925     0.033     2.543     2.494
   109   1 H        0.925     0.035     2.511     2.478
   110   1 H        0.925     0.035     2.513     2.479
   111   1 H        0.925     0.035     2.512     2.479
   112   1 H        0.925     0.033     2.545     2.495
   113   1 H        0.925     0.034     2.525     2.485
   114   1 H        0.925     0.035     2.513     2.479
   115   1 H        0.925     0.035     2.517     2.481
   116   1 H        0.926     0.028     2.612     2.527
   117   1 H        0.926     0.026     2.644     2.543
   118   1 H        0.926     0.040     2.443     2.444
   119   1 H        0.926     0.035     2.510     2.477
   120   1 H        0.926     0.035     2.510     2.478
   121   1 H        0.926     0.041     2.432     2.439

molecular dipole:
                 x           y           z       tot (Debye)
 q only:       -0.022       0.028      -0.086
   full:       -0.022      -0.264      -0.237       0.903

 projected vibrational frequencies (cm⁻¹)
eigval :       -0.00    -0.00     0.00     0.00     0.00     0.00
eigval :        5.23     5.82     9.08    15.84    20.63    20.95
eigval :       30.47    31.06    32.21    32.27    37.71    45.72
eigval :       54.60    57.37    59.25    66.59    74.09    77.86
eigval :       89.77    94.39    98.58   100.54   107.03   125.34
eigval :      129.36   151.03   159.28   159.39   165.61   173.24
eigval :      175.84   179.21   182.22   189.48   191.36   194.73
eigval :      195.05   212.09   217.63   217.77   221.26   225.24
eigval :      229.89   239.27   242.60   253.46   263.13   265.90
eigval :      268.94   279.92   286.17   298.09   303.17   309.68
eigval :      318.09   318.74   320.47   325.52   325.56   329.63
eigval :      334.29   345.07   355.07   356.84   357.33   359.10
eigval :      366.97   380.99   384.28   385.53   390.54   397.53
eigval :      398.41   403.57   412.31   412.65   415.29   442.20
eigval :      442.39   444.28   444.62   449.81   459.01   463.43
eigval :      464.26   465.58   469.18   476.03   479.33   491.68
eigval :      501.11   518.15   519.41   534.57   544.64   563.57
eigval :      572.32   578.33   582.36   583.49   584.33   586.22
eigval :      601.67   601.99   619.95   625.46   632.85   636.35
eigval :      639.41   639.49   649.16   688.13   688.22   688.50
eigval :      689.71   691.35   707.52   708.02   720.72   721.10
eigval :      722.41   738.93   745.17   767.00   810.89   814.83
eigval :      820.72   821.48   823.74   827.07   832.72   832.80
eigval :      842.21   867.14   867.90   870.01   873.86   873.90
eigval :      874.36   875.73   881.31   881.34   890.22   905.46
eigval :      906.00   907.63   909.05   911.90   912.99   917.51
eigval :      923.62   924.27   927.82   928.06   928.19   931.25
eigval :      937.55   939.44   958.27   959.98   960.00   960.34
eigval :      960.35   962.54   962.55   962.59   962.88   962.92
eigval :      962.98   963.22   963.38   975.10  1021.94  1028.38
eigval :     1032.67  1032.76  1035.81  1035.83  1035.87  1035.89
eigval :     1036.01  1036.04  1040.20  1040.20  1117.15  1117.57
eigval :     1130.99  1131.33  1133.97  1139.82  1141.53  1145.53
eigval :     1145.90  1148.88  1180.07  1180.24  1191.54  1194.47
eigval :     1214.40  1218.73  1227.90  1227.90  1228.27  1228.28
eigval :     1229.50  1229.73  1233.02  1233.07  1236.39  1236.47
eigval :     1247.36  1250.30  1253.53  1260.44  1262.80  1267.88
eigval :     1269.71  1280.29  1286.51  1286.77  1299.63  1301.71
eigval :     1306.62  1308.14  1309.25  1311.41  1319.38  1327.73
eigval :     1347.00  1348.55  1350.98  1361.20  1361.87  1371.00
eigval :     1382.38  1383.44  1401.18  1401.94  1404.54  1404.57
eigval :     1405.90  1405.93  1406.03  1406.06  1407.04  1410.82
eigval :     1416.36  1419.70  1429.50  1429.53  1429.55  1429.55
eigval :     1440.68  1442.71  1475.88  1475.89  1480.73  1484.15
eigval :     1484.30  1492.58  1492.59  1492.61  1492.63  1495.17
eigval :     1495.34  1495.36  1495.37  1495.39  1501.97  1502.00
eigval :     1502.90  1502.93  1505.94  1505.96  1506.21  1506.25
eigval :     1507.06  1515.19  1515.20  1515.66  1515.72  1520.91
eigval :     1520.94  1520.97  1520.99  1529.88  1550.73  1555.23
eigval :     1566.23  1571.74  1572.24  1583.76  1584.12  1593.12
eigval :     1595.62  1604.80  1604.81  1618.95  1619.07  3019.87
eigval :     3019.91  3020.35  3020.38  3021.47  3021.48  3021.69
eigval :     3021.72  3026.54  3026.65  3026.65  3026.68  3028.71
eigval :     3028.75  3029.24  3029.34  3030.71  3030.77  3030.79
eigval :     3030.82  3035.26  3035.33  3035.37  3035.52  3037.45
eigval :     3037.51  3037.80  3037.90  3046.63  3046.81  3047.18
eigval :     3047.29  3050.03  3050.22  3050.85  3050.96  3078.12
eigval :     3079.82  3080.32  3081.52  3083.44  3084.90  3085.19
eigval :     3088.30  3088.42  3092.09  3092.25  3093.05  3093.86
eigval :     3094.36  3095.32  3097.36  3108.98  3116.19  3116.35
eigval :     3117.89  3117.90  3118.72

   temp. (K)  partition function   enthalpy   heat capacity  entropy
                                   cal/mol     cal/K/mol   cal/K/mol   J/K/mol
 298.15  VIB  0.113E+29            35283.188    216.564    220.318
         ROT  0.402E+09              888.752      2.981     42.353
         INT  0.456E+37            36171.940    219.545    262.672
         TR   0.237E+29             1481.254      4.968     46.052
         TOT                       37653.1944   224.5128   308.7237  1291.6998

       T/K    H(0)-H(T)+PV         H(T)/Eh          T*S/Eh         G(T)/Eh
   ------------------------------------------------------------------------
    298.15    0.600042E-01    0.105353E+01    0.146685E+00    0.906841E+00
   ------------------------------------------------------------------------

         :::::::::::::::::::::::::::::::::::::::::::::::::::::
         ::                  THERMODYNAMIC                  ::
         :::::::::::::::::::::::::::::::::::::::::::::::::::::
         :: total free energy        -167.966721590685 Eh   ::
         ::.................................................::
         :: total energy             -168.873562465626 Eh   ::
         :: zero point energy           0.993521267609 Eh   ::
         :: G(RRHO) w/o ZPVE           -0.086680392668 Eh   ::
         :: G(RRHO) contrib.            0.906840874941 Eh   ::
         :::::::::::::::::::::::::::::::::::::::::::::::::::::

           -------------------------------------------------
          | TOTAL ENERGY             -168.873562465626 Eh   |
          | TOTAL ENTHALPY           -167.820037013367 Eh   |
          | TOTAL FREE ENERGY        -167.966721590685 Eh   |
          | GRADIENT NORM               0.000070197267 Eh/α |
          | HOMO-LUMO GAP               1.239439928465 eV   |
           -------------------------------------------------

 * finished run on 2025/09/10 at 19:38:10.214
