   * xtb version 6.7.1 (edcfbbe) compiled by 'albert@albert-system' on 2024-07-22

   ID    Z sym.   atoms
    1    6 C      1-20, 22-33, 35-57, 61-63
    2    7 N      21, 34, 58, 60
    3   16 S      59
    4    1 H      64-121

          program call               : xtb data2507/gas/CBTD2/CBTD2_gas_S0_finalOpt.xtbopt.xyz --gfn 2 --spinpol --tblite --uhf 2 --ohess vtight --parallel 40 --molden --ceasefiles --namespace data2507/gas/CBTD2/CBTD2_gas_T1_preOpt
 * total energy  :  -168.8094948 Eh     change        0.3402482E-07 Eh
 * total energy  :  -168.8145192 Eh     change       -0.5024407E-02 Eh
 * total energy  :  -168.8163704 Eh     change       -0.1851182E-02 Eh
 * total energy  :  -168.8166181 Eh     change       -0.2477243E-03 Eh
 * total energy  :  -168.8168176 Eh     change       -0.1995347E-03 Eh
 * total energy  :  -168.8169354 Eh     change       -0.1177516E-03 Eh
 * total energy  :  -168.8170395 Eh     change       -0.1041115E-03 Eh
 * total energy  :  -168.8171259 Eh     change       -0.8638171E-04 Eh
 * total energy  :  -168.8171777 Eh     change       -0.5180847E-04 Eh
 * total energy  :  -168.8171968 Eh     change       -0.1917599E-04 Eh
 * total energy  :  -168.8175911 Eh     change       -0.7204932E-06 Eh
 * total energy  :  -168.8175920 Eh     change       -0.9699386E-06 Eh
 * total energy  :  -168.8175930 Eh     change       -0.9759997E-06 Eh
 * total energy  :  -168.8175936 Eh     change       -0.6192769E-06 Eh
 * total energy  :  -168.8175943 Eh     change       -0.7222822E-06 Eh
 * total energy  :  -168.8175950 Eh     change       -0.6615818E-06 Eh
 * total energy  :  -168.8175957 Eh     change       -0.6626183E-06 Eh
 * total energy  :  -168.8175956 Eh     change        0.6865650E-07 Eh
 * total energy  :  -168.8175957 Eh     change       -0.8252167E-07 Eh
   *** GEOMETRY OPTIMIZATION CONVERGED AFTER 222 ITERATIONS ***

 final structure:
================
121
 xtb: 6.7.1 (edcfbbe)
C          -11.01800808969576        3.96616736534548       -2.83822085917821
C          -11.13286969157880        3.58382274228429       -1.35582373327099
C          -10.95346597354005        4.83261820018274       -0.48064935091030
C          -12.54123733724146        3.03362643150724       -1.11410682281930
C          -10.04514947597615        2.57765380892634       -1.01197958772230
C           -8.70385886280443        2.94726180572726       -1.17720616529226
C           -7.65026453665572        2.10910555513966       -0.87303172491524
C           -7.94360970744019        0.85071089629360       -0.36862714877563
C           -9.28638167584240        0.43931388724521       -0.23364704692184
C          -10.32654767512604        1.30106330140883       -0.54901944333974
C           -9.25154829021673       -0.92008627726912        0.23588281521784
C          -10.24559725338907       -1.83267960003323        0.55642239656786
C           -9.89887480310482       -3.09395065027067        1.01719603186912
C          -10.93357171591194       -4.15280328650899        1.36669306141530
C          -12.36858151565138       -3.67370191515169        1.13068341269592
C          -10.79339329458802       -4.52725615925544        2.84893168738307
C          -10.69636907927852       -5.39223345688392        0.49189585264090
C           -8.54015388296238       -3.39657178111861        1.17513414167145
C           -7.53153386610320       -2.50667460982910        0.86537613968947
C           -7.88909323057690       -1.26423934362372        0.36303664713862
N           -7.10383365013542       -0.18706428791008       -0.00541394504478
C           -5.71280440031806       -0.15316516888113       -0.01115755593690
C           -5.02243994472945        0.95641199602760        0.48945926281733
C           -3.65143345433697        0.99214491481214        0.47285543329021
C           -2.89246612154611       -0.08589768228397       -0.02550999497725
C           -1.45950277645165       -0.05067237847726       -0.02846587610318
C           -0.68372653808680       -1.24945929579227       -0.03947298514244
C            0.67534703861947       -1.25507585252728       -0.00958231685063
C            1.46119421085420       -0.06299715311071       -0.03011122940994
C            2.89381028749233       -0.11028560793025       -0.03296549574911
C            3.59700997410568       -1.22340938574572        0.47216455383644
C            4.96881170565276       -1.26410589367328        0.47472334802343
C            5.71348407964276       -0.20117584030988       -0.04700220311019
N            7.10419073085064       -0.24646913031082       -0.05250124531824
C            7.88079219372429       -1.33268011550826       -0.41269348234393
C            7.51328046248935       -2.57631955023188       -0.90476572279621
C            8.51476411998808       -3.47652048105864       -1.20785762280486
C            9.87589876626057       -3.18319251374014       -1.05320772965949
C           10.90213129696951       -4.25284968182712       -1.39467511974298
C           10.65665105657941       -5.48265744769808       -0.50865344330327
C           12.34102070367097       -3.78253572056585       -1.16468009914895
C           10.75729744873778       -4.63933812890949       -2.87337323405357
C           10.23269317141482       -1.92101397435034       -0.60272236153791
C            9.24596855421838       -0.99818633136602       -0.28894257382227
C            9.29170121773750        0.36456999024651        0.16980429258463
C           10.33873408909646        1.22061523639312        0.47790895804701
C           10.06755346193295        2.50294376640266        0.93100769383057
C           11.16326986691291        3.50323125397816        1.26651427920414
C           11.05259735856505        3.89733305325998        2.74614872226722
C           10.99274471675438        4.74690442050011        0.38231696327494
C           12.56715580669555        2.94045466415186        1.02770851512575
C            8.72927935408117        2.88427775314870        1.09404232669275
C            7.66901329179836        2.05204275018809        0.79688818385616
C            7.95226752618803        0.78750990072410        0.30215610702704
C            5.03230286779168        0.91004252635073       -0.55649941543830
C            3.66165546970638        0.95733879935870       -0.54007733776180
C            0.72878357709392        1.15156610467211       -0.05439735276388
N            1.23930065035524        2.37687343376875       -0.06910732823215
S            0.01572497094193        3.46968055506951       -0.04305170463908
N           -1.21703536102044        2.38747789879873       -0.00851268893132
C           -0.71688216268056        1.15782474390612       -0.01363585148459
C           -3.60487745888587       -1.19711050070735       -0.52186484122609
C           -4.97696241696425       -1.22638563599613       -0.52429317753938
H          -11.11942091012375        3.08139063418872       -3.46337496132368
H          -11.80382310963110        4.66974746431478       -3.10510439505246
H          -10.05968458104651        4.42878491220229       -3.05643185491794
H           -9.99193344117068        5.30652192197843       -0.65637645116608
H          -11.01404283866663        4.56502340452148        0.57230578235127
H          -11.73484764239782        5.55780513991978       -0.69810495092042
H          -12.68162254245534        2.76293003606723       -0.07012730753444
H          -12.73499504620705        2.16455425984660       -1.73859326406214
H          -13.27578479036596        3.79640114414297       -1.36460808595624
H           -8.46900796845485        3.92743130874714       -1.56265533976062
H           -6.63302837846776        2.42778168557683       -1.04001898887481
H          -11.33913533848916        0.95380393046116       -0.42944763575945
H          -11.27482532046802       -1.53624955583994        0.44252613447187
H          -13.06316673565096       -4.47198907655332        1.38453111040481
H          -12.60273908105187       -2.81504782959664        1.75566444930544
H          -12.52655741455544       -3.41084690615609        0.08722501751161
H          -11.54200349756747       -5.26877918673371        3.12002058028722
H          -10.93600490367941       -3.64784393767159        3.47355269103342
H           -9.81221730005729       -4.94126642377374        3.06349856967544
H          -11.44035510941470       -6.15471132651890        0.71291617367867
H          -10.77402721332768       -5.12898778058070       -0.56103677670562
H           -9.71208633324212       -5.81836716737075        0.66438352316613
H           -8.25502298774227       -4.36390698377651        1.55944945827008
H           -6.49856887436592       -2.77381724741295        1.02739842917674
H           -5.57919925105178        1.77316537545332        0.92367011412660
H           -3.13029394029582        1.84879231623292        0.86745052795104
H           -1.20529478510896       -2.19408179181801       -0.02414005874042
H            1.18893653104260       -2.20415202400627       -0.01739702072882
H            3.05508319389511       -2.04095880678014        0.92198220857972
H            5.48440516028902       -2.10294055144730        0.91859220204869
H            6.47817366913758       -2.83673897522904       -1.06403084341432
H            8.22187936822370       -4.44471692925498       -1.58408946419455
H           10.73792663915277       -5.21076344651409        0.54180640611417
H            9.66881326652257       -5.90258866966296       -0.67597283337478
H           11.39436379294830       -6.25281340882016       -0.72400855897530
H           13.02925284183224       -4.58811829598503       -1.41271865592137
H           12.58067079385325       -2.93096102918002       -1.79722326787835
H           12.50248099892202       -3.51207484309199       -0.12370349843726
H            9.77290224245284       -5.04815459007173       -3.08308221041363
H           11.50018562448802       -5.38861513657687       -3.13882576669761
H           10.90544181622294       -3.76652958430601       -3.50591711108568
H           11.26426094451673       -1.63169423939306       -0.49175192399285
H           11.34851765547526        0.86453933767621        0.36057732002135
H           11.84391042861576        4.59692798459391        3.00719798378016
H           11.14790411493060        3.01644222074150        3.37771933116119
H           10.09795714115879        4.36872410614973        2.96172135672874
H           10.03511842667390        5.22959739235974        0.55542213481542
H           11.77996742556852        5.46755431842695        0.59370175962740
H           11.05020900144673        4.47109341231017       -0.66869029751436
H           13.30775664258068        3.69945282017495        1.27177258851296
H           12.75486834727744        2.07467143416900        1.65857562267947
H           12.70445209915481        2.66080549126048       -0.01432113096449
H            8.50229769004925        3.86919785374270        1.47202221489124
H            6.65437959657384        2.37992672031806        0.96187489146856
H            5.59579550040281        1.71860777303925       -0.99730165647546
H            3.14762096785466        1.81509549589139       -0.94152149940036
H           -3.06976023669923       -2.02271351202374       -0.96507433430337
H           -5.49950094174231       -2.06440771693119       -0.96152452998324

 projected vibrational frequencies (cm⁻¹)
eigval :       -0.00    -0.00     0.00     0.00     0.00     0.00
eigval :        4.82     6.07     8.71    18.24    18.84    21.71
eigval :       30.48    30.60    32.70    33.14    34.38    53.14
eigval :       54.72    55.84    56.57    65.26    70.82    84.58
eigval :       90.66    94.01   101.69   102.50   109.88   119.69
eigval :      123.16   150.78   152.48   160.44   161.01   173.57
eigval :      176.61   182.83   184.78   189.28   198.05   202.51
eigval :      202.61   216.17   218.07   218.41   221.01   228.70
eigval :      228.77   229.32   234.37   251.06   258.41   258.75
eigval :      270.97   276.34   277.94   281.85   304.59   312.33
eigval :      317.70   317.96   322.03   322.27   326.28   327.84
eigval :      338.25   340.76   342.30   359.00   359.32   360.13
eigval :      362.99   368.90   384.43   385.35   388.92   390.59
eigval :      398.87   399.67   405.54   410.14   410.50   416.19
eigval :      441.28   441.77   441.89   442.87   449.90   461.73
eigval :      463.04   464.38   466.10   466.43   472.90   490.82
eigval :      495.14   518.40   518.55   523.06   533.38   561.43
eigval :      562.69   576.70   579.00   580.46   582.05   586.20
eigval :      586.66   597.82   605.91   617.18   629.74   630.42
eigval :      640.84   641.10   642.57   680.09   681.38   685.91
eigval :      690.14   690.15   707.52   708.32   715.57   718.54
eigval :      720.94   721.40   738.43   756.34   784.02   786.06
eigval :      812.02   815.99   823.96   824.13   826.83   827.95
eigval :      832.13   832.22   838.95   850.70   851.75   871.35
eigval :      871.45   872.61   872.63   873.66   873.69   887.97
eigval :      902.90   908.46   909.06   910.32   912.18   912.22
eigval :      923.91   923.96   926.81   927.35   928.72   928.97
eigval :      936.54   938.74   949.77   960.24   960.26   960.34
eigval :      960.34   962.71   962.72   962.91   963.04   963.05
eigval :      963.12   963.13   963.18   964.50  1012.33  1016.65
eigval :     1031.06  1031.09  1035.19  1035.20  1035.22  1035.24
eigval :     1035.59  1035.61  1041.45  1041.48  1101.57  1114.25
eigval :     1115.35  1130.14  1130.28  1142.02  1142.39  1144.09
eigval :     1145.09  1148.31  1173.33  1173.37  1187.32  1190.17
eigval :     1212.34  1218.13  1227.46  1227.47  1227.55  1227.56
eigval :     1231.10  1231.19  1231.43  1231.47  1234.80  1234.80
eigval :     1241.68  1243.68  1251.88  1258.55  1259.49  1262.20
eigval :     1268.17  1269.70  1283.41  1284.08  1291.17  1300.07
eigval :     1300.27  1303.47  1303.90  1320.82  1321.23  1345.43
eigval :     1347.81  1349.74  1350.83  1351.05  1357.18  1372.30
eigval :     1381.87  1397.81  1401.59  1402.01  1404.42  1404.44
eigval :     1405.59  1405.68  1405.77  1405.78  1406.56  1410.15
eigval :     1410.96  1418.95  1427.82  1427.83  1427.91  1427.94
eigval :     1431.65  1436.18  1438.20  1441.47  1473.63  1473.69
eigval :     1477.24  1480.17  1482.45  1482.60  1491.40  1491.53
eigval :     1491.78  1491.78  1493.98  1493.99  1494.14  1494.14
eigval :     1500.50  1500.50  1500.59  1500.59  1504.70  1504.83
eigval :     1505.08  1505.11  1506.14  1507.05  1514.50  1514.54
eigval :     1514.72  1514.74  1519.34  1519.36  1520.13  1520.16
eigval :     1545.08  1561.79  1566.68  1566.68  1573.89  1578.63
eigval :     1579.46  1593.00  1593.01  1607.00  1608.89  3022.07
eigval :     3022.08  3022.22  3022.22  3023.73  3023.74  3023.79
eigval :     3023.83  3027.26  3027.28  3027.43  3027.44  3030.34
eigval :     3030.35  3030.53  3030.75  3031.34  3031.39  3031.49
eigval :     3031.55  3035.76  3035.79  3036.11  3036.12  3038.47
eigval :     3038.49  3038.74  3038.88  3047.92  3047.92  3048.67
eigval :     3048.69  3051.18  3051.19  3052.05  3052.07  3079.64
eigval :     3081.14  3083.60  3085.15  3085.51  3086.93  3087.11
eigval :     3089.75  3089.88  3093.07  3096.07  3096.52  3097.55
eigval :     3099.30  3099.40  3100.97  3115.94  3116.14  3118.36
eigval :     3118.37  3119.90  3120.02

   temp. (K)  partition function   enthalpy   heat capacity  entropy
                                   cal/mol     cal/K/mol   cal/K/mol   J/K/mol
 298.15  VIB  0.136E+29            35487.653    217.930    221.421
         ROT  0.202E+09              888.752      2.981     40.980
         INT  0.274E+37            36376.406    220.911    262.401
         TR   0.237E+29             1481.254      4.968     46.052
         TOT                       37857.6595   225.8791   308.4531  1290.5677

       T/K    H(0)-H(T)+PV         H(T)/Eh          T*S/Eh         G(T)/Eh
   ------------------------------------------------------------------------
    298.15    0.603300E-01    0.105129E+01    0.146556E+00    0.904738E+00
   ------------------------------------------------------------------------

         :::::::::::::::::::::::::::::::::::::::::::::::::::::
         ::                  THERMODYNAMIC                  ::
         :::::::::::::::::::::::::::::::::::::::::::::::::::::
         :: total free energy        -167.912857501876 Eh   ::
         ::.................................................::
         :: total energy             -168.817595684120 Eh   ::
         :: zero point energy           0.990964173834 Eh   ::
         :: G(RRHO) w/o ZPVE           -0.086225991589 Eh   ::
         :: G(RRHO) contrib.            0.904738182244 Eh   ::
         :::::::::::::::::::::::::::::::::::::::::::::::::::::

           -------------------------------------------------
          | TOTAL ENERGY             -168.817595684120 Eh   |
          | TOTAL ENTHALPY           -167.766301489677 Eh   |
          | TOTAL FREE ENERGY        -167.912857501876 Eh   |
          | GRADIENT NORM               0.000069272598 Eh/α |
           -------------------------------------------------

 * finished run on 2025/09/10 at 20:01:02.624
