   * xtb version 6.7.1 (edcfbbe) compiled by 'albert@albert-system' on 2024-07-22

   ID    Z sym.   atoms
    1    6 C      1-6, 8-13, 15-27, 29-34, 36-41, 43-46, 48
    2    8 O      7
    3    7 N      14, 28, 35, 42, 47
    4    1 H      49-73

          program call               : xtb data2507/toluene/pDPBPZ-PXZ/pDPBPZ-PXZ_toluene_S0_crest.xyz --gfn 2 --gbsa toluene --ohess vtight --parallel 40 --molden --ceasefiles --namespace data2507/toluene/pDPBPZ-PXZ/pDPBPZ-PXZ_toluene_S0_finalOpt
      * Solvation model:               GBSA
        Solvent                        toluene
        Solvent mass                       9.2140E+01 g/mol
          :  Hamiltonian                  GFN2-xTB          :
 * total energy  :  -121.4707483 Eh     change       -0.3370459E-08 Eh
 * total energy  :  -121.4707884 Eh     change       -0.4014978E-04 Eh
 * total energy  :  -121.4708022 Eh     change       -0.1376540E-04 Eh
 * total energy  :  -121.4708071 Eh     change       -0.4872585E-05 Eh
 * total energy  :  -121.4708113 Eh     change       -0.4208980E-05 Eh
 * total energy  :  -121.4708142 Eh     change       -0.2927401E-05 Eh
 * total energy  :  -121.4708161 Eh     change       -0.1869061E-05 Eh
 * total energy  :  -121.4708158 Eh     change        0.2433071E-06 Eh
 * total energy  :  -121.4708174 Eh     change       -0.1542382E-05 Eh
 * total energy  :  -121.4708183 Eh     change       -0.9247962E-06 Eh
 * total energy  :  -121.4708218 Eh     change       -0.7349438E-06 Eh
 * total energy  :  -121.4708223 Eh     change       -0.5357865E-06 Eh
 * total energy  :  -121.4708227 Eh     change       -0.4436626E-06 Eh
 * total energy  :  -121.4708232 Eh     change       -0.4623725E-06 Eh
 * total energy  :  -121.4708237 Eh     change       -0.5055128E-06 Eh
 * total energy  :  -121.4708243 Eh     change       -0.5596578E-06 Eh
 * total energy  :  -121.4708249 Eh     change       -0.6249409E-06 Eh
 * total energy  :  -121.4708256 Eh     change       -0.6964883E-06 Eh
 * total energy  :  -121.4708256 Eh     change       -0.9738358E-08 Eh
   *** GEOMETRY OPTIMIZATION CONVERGED AFTER 22 ITERATIONS ***

 final structure:
================
73
 xtb: 6.7.1 (edcfbbe)
C           -6.94136627504888        3.48513869472986       -2.50336834418186
C           -5.60779621632788        3.15247199506444       -2.63279618627279
C           -5.02886312007843        2.22774860054772       -1.77686284273770
C           -5.77177929963097        1.62834229380283       -0.76661355073753
C           -7.13306699266699        1.94572630002917       -0.66849851944394
C           -7.70600180971997        2.86996315193051       -1.52274119608851
O           -7.96382214545087        1.35281461447168        0.25330719922787
C           -7.41026038808930        0.41355940311921        1.09181486404032
C           -8.25896061528252       -0.17958166587386        2.00847570995865
C           -7.77219252119282       -1.11162951340721        2.91342749239700
C           -6.42869113961868       -1.42846226644002        2.90395413923905
C           -5.57443819143520       -0.83770521463740        1.98505751036847
C           -6.05104162572239        0.07356753149188        1.04983952393497
N           -5.21906754732172        0.68962422994464        0.10969028881008
C           -3.84115278186132        0.39203550868579        0.05998137972735
C           -2.89846449398075        1.39528720780035        0.30465003710606
C           -1.56141089002817        1.08883485330002        0.25182251856847
C           -1.12872896246522       -0.21108767198857       -0.03419900387648
C           -2.06842001970365       -1.23487581859466       -0.27344229418184
C           -3.42320186196310       -0.89692845547256       -0.22838563750451
C           -1.61397648590700       -2.58949440229532       -0.55983170478656
C           -2.50034730559838       -3.64808366411500       -0.79078639317988
C           -2.04516528729240       -4.92184151574188       -1.05666693066403
C           -0.68128633358055       -5.18865507321959       -1.09994428925210
C            0.21379439656217       -4.16870232226637       -0.87330971610242
C           -0.23367679910678       -2.87178624948795       -0.60296735261928
C            0.73393273932905       -1.82248840574875       -0.36813626968635
N            2.02021402154785       -2.11382851206851       -0.42244719715241
C            2.89978561898929       -1.12344571262284       -0.20649997297901
C            4.28258571044119       -1.38421818692936       -0.26195659639113
C            5.19712319988063       -0.38200689710668       -0.05494942085829
C            6.63368825713259       -0.68152914745252       -0.18780929867943
C            7.46059768550350        0.08002179268392       -1.01187770893157
C            8.79902452848438       -0.26174627943142       -1.10902242393023
N            9.34500577748955       -1.27569544723338       -0.45751981911395
C            8.55875337143764       -2.00621108806436        0.31655845223952
C            7.20575203806558       -1.76155101892028        0.48200508917182
C            4.75113604589508        0.93930968412790        0.23915914923245
C            5.71531933213442        2.01290121772160        0.53746923784671
C            5.62827112787748        3.25008559172684       -0.09827100452393
C            6.55105679258679        4.23085533605992        0.22495179469570
N            7.51267298305130        4.06443033232240        1.11862296399441
C            7.58544875501043        2.89626156337737        1.73571668925190
C            6.72193803972291        1.84272002998909        1.48637878566658
C            3.40769427642127        1.21459091942194        0.28932324994133
C            2.45359317226418        0.20182829304701        0.06953690939387
N            1.14443527231186        0.48852739262213        0.12653257589205
C            0.28620071596120       -0.49378347757349       -0.08468105983912
H           -7.39622875478553        4.20720914747262       -3.16302811359322
H           -5.00398368666774        3.60576610427225       -3.40397562057020
H           -3.98994503828935        1.96581949390274       -1.90031400937232
H           -8.75562935393599        3.09013943549041       -1.40654309863317
H           -9.29857001530100        0.10837410897899        2.00137635285010
H           -8.44248961978039       -1.57079132182577        3.62281495568923
H           -6.02900761736689       -2.13603272879291        3.61415764279306
H           -4.52416644411528       -1.08212536742680        2.00397941927315
H           -3.22947048798529        2.39594551763526        0.53789575682376
H           -0.81072618192864        1.84033902636419        0.43884848989366
H           -4.18111411722606       -1.63772514984307       -0.42495911717947
H           -3.56477422051051       -3.48136680059251       -0.76209520398043
H           -2.75520020356682       -5.71678843076203       -1.23072561380023
H           -0.32874105518126       -6.18740151809910       -1.30853372336986
H            1.27869506661124       -4.33960959932090       -0.89722799690868
H            4.60236422726686       -2.38793752783403       -0.49847094796597
H            7.06536068693064        0.91223721824437       -1.57353857172776
H            9.47264705055039        0.30538546051677       -1.73853592932704
H            9.04312462256289       -2.82790536259225        0.82847822408644
H            6.60829523759340       -2.38174480002886        1.13264265007391
H            4.86730891710800        3.43162183652970       -0.84190932253397
H            6.52344887967790        5.20136025719724       -0.25385136114424
H            8.37978336928415        2.80241911294266        2.46503109765907
H            6.82100145609040        0.91364487788633        2.02607587511176
H            3.05219724773922        2.20681779096032        0.52344914136227

          :  Hamiltonian                  GFN2-xTB          :
         :: gradient norm              0.000068820938 Eh/a0 ::
         :: HOMO-LUMO gap              0.891219648239 eV    ::
         :: SCC energy              -123.615351494730 Eh    ::
         :: -> dispersion             -0.105616770512 Eh    ::
         :: -> Gsolv                  -0.051978404511 Eh    ::
         :: repulsion energy           2.144525891020 Eh    ::

    * Orbital Energies and Occupations

         #    Occupation            Energy/Eh            Energy/eV
      -------------------------------------------------------------
         1        2.0000           -0.7323818             -19.9291
       ...           ...                  ...                  ...
       100        2.0000           -0.4261817             -11.5970
       101        2.0000           -0.4237883             -11.5319
       102        2.0000           -0.4215247             -11.4703
       103        2.0000           -0.4185467             -11.3892
       104        2.0000           -0.4157913             -11.3143
       105        2.0000           -0.4100862             -11.1590
       106        2.0000           -0.4012082             -10.9174
       107        2.0000           -0.3992507             -10.8642
       108        2.0000           -0.3929363             -10.6923
       109        2.0000           -0.3779405             -10.2843
       110        2.0000           -0.3770675             -10.2605
       111        2.0000           -0.3619423              -9.8490
       112        2.0000           -0.3469090              -9.4399 (HOMO)
       113                         -0.3141572              -8.5487 (LUMO)
       114                         -0.2828835              -7.6977
       115                         -0.2653548              -7.2207
       116                         -0.2634424              -7.1686
       117                         -0.2578439              -7.0163
       118                         -0.2479128              -6.7461
       119                         -0.2433606              -6.6222
       120                         -0.2413531              -6.5676
       121                         -0.2331700              -6.3449
       122                         -0.2326135              -6.3297
       123                         -0.2217368              -6.0338
       ...                                ...                  ...
       217                          0.7029427              19.1280
      -------------------------------------------------------------
                  HL-Gap            0.0327517 Eh            0.8912 eV

     #   Z          covCN         q      C6AA      α(0)
     1   6 C        2.919    -0.040    29.002     8.831
     2   6 C        2.919    -0.039    28.962     8.825
     3   6 C        2.924    -0.060    29.490     8.906
     4   6 C        2.921     0.042    27.057     8.530
     5   6 C        2.882     0.123    25.303     8.247
     6   6 C        2.919    -0.058    29.432     8.896
     7   8 O        1.708    -0.271    18.487     5.805
     8   6 C        2.883     0.123    25.302     8.246
     9   6 C        2.919    -0.058    29.429     8.896
    10   6 C        2.919    -0.040    29.004     8.832
    11   6 C        2.919    -0.039    28.964     8.825
    12   6 C        2.924    -0.061    29.509     8.908
    13   6 C        2.920     0.042    27.061     8.531
    14   7 N        2.751    -0.070    22.600     7.061
    15   6 C        2.919     0.068    26.472     8.437
    16   6 C        2.918    -0.040    28.998     8.831
    17   6 C        2.923    -0.027    28.678     8.782
    18   6 C        2.987    -0.009    28.244     8.718
    19   6 C        2.975     0.008    27.837     8.654
    20   6 C        2.925    -0.047    29.168     8.857
    21   6 C        2.976     0.006    27.874     8.660
    22   6 C        2.922    -0.033    28.811     8.802
    23   6 C        2.918    -0.024    28.613     8.772
    24   6 C        2.916    -0.026    28.658     8.779
    25   6 C        2.924    -0.027    28.667     8.780
    26   6 C        2.987    -0.005    28.149     8.703
    27   6 C        2.960     0.086    26.073     8.375
    28   7 N        1.848    -0.258    27.571     7.782
    29   6 C        2.964     0.081    26.194     8.395
    30   6 C        2.923    -0.048    29.180     8.859
    31   6 C        2.975     0.009    27.820     8.652
    32   6 C        2.987     0.032    27.288     8.569
    33   6 C        2.918    -0.042    29.038     8.837
    34   6 C        2.913     0.061    26.642     8.464
    35   7 N        1.835    -0.235    27.003     7.701
    36   6 C        2.913     0.061    26.643     8.464
    37   6 C        2.918    -0.044    29.096     8.846
    38   6 C        2.975     0.009    27.814     8.651
    39   6 C        2.987     0.032    27.288     8.569
    40   6 C        2.918    -0.044    29.097     8.846
    41   6 C        2.913     0.061    26.643     8.464
    42   7 N        1.835    -0.235    27.001     7.700
    43   6 C        2.913     0.061    26.642     8.464
    44   6 C        2.918    -0.042    29.037     8.836
    45   6 C        2.923    -0.048    29.187     8.860
    46   6 C        2.964     0.081    26.187     8.394
    47   7 N        1.848    -0.260    27.608     7.787
    48   6 C        2.960     0.086    26.086     8.377
    49   1 H        0.926     0.043     2.412     2.428
    50   1 H        0.926     0.042     2.425     2.435
    51   1 H        0.926     0.040     2.452     2.449
    52   1 H        0.926     0.049     2.339     2.391
    53   1 H        0.926     0.048     2.339     2.392
    54   1 H        0.926     0.043     2.412     2.429
    55   1 H        0.926     0.042     2.424     2.435
    56   1 H        0.926     0.040     2.449     2.447
    57   1 H        0.926     0.051     2.312     2.378
    58   1 H        0.926     0.063     2.160     2.298
    59   1 H        0.926     0.054     2.276     2.359
    60   1 H        0.926     0.047     2.351     2.398
    61   1 H        0.926     0.047     2.360     2.402
    62   1 H        0.926     0.046     2.369     2.407
    63   1 H        0.926     0.057     2.232     2.336
    64   1 H        0.926     0.057     2.237     2.339
    65   1 H        0.926     0.038     2.480     2.463
    66   1 H        0.925     0.041     2.438     2.442
    67   1 H        0.925     0.043     2.404     2.425
    68   1 H        0.926     0.046     2.373     2.409
    69   1 H        0.926     0.046     2.373     2.409
    70   1 H        0.925     0.043     2.404     2.425
    71   1 H        0.925     0.041     2.437     2.441
    72   1 H        0.926     0.038     2.480     2.462
    73   1 H        0.926     0.057     2.237     2.339

molecular dipole:
                 x           y           z       tot (Debye)
 q only:       -0.953      -0.785      -0.176
   full:       -1.476      -0.952      -0.208       4.494

 projected vibrational frequencies (cm⁻¹)
eigval :       -0.00    -0.00     0.00     0.00     0.00     0.00
eigval :        8.08    11.96    20.02    24.09    31.46    41.06
eigval :       42.63    53.35    54.49    58.13    69.80    81.90
eigval :       91.94   100.71   106.63   122.79   136.89   148.14
eigval :      156.53   195.44   200.00   210.09   232.52   239.40
eigval :      244.31   249.63   264.48   274.56   283.46   299.97
eigval :      313.76   335.80   338.13   342.63   366.76   371.03
eigval :      383.05   391.19   404.62   411.44   422.02   428.39
eigval :      430.40   441.41   445.60   450.98   467.60   504.23
eigval :      509.33   510.14   516.77   522.57   529.87   540.99
eigval :      562.31   577.03   579.88   581.27   593.08   605.58
eigval :      620.41   621.20   623.70   629.96   648.17   656.84
eigval :      660.15   661.26   682.19   683.69   690.15   704.80
eigval :      709.98   711.59   731.60   737.09   745.64   763.21
eigval :      767.37   777.48   778.25   779.79   797.95   799.49
eigval :      813.66   832.39   853.01   857.88   859.89   861.18
eigval :      866.14   871.72   880.49   882.23   885.27   888.42
eigval :      896.48   898.73   913.37   913.78   914.45   915.29
eigval :      915.63   919.09   922.36   923.93   925.85   928.43
eigval :      929.20   944.77   981.34   996.01  1022.64  1041.84
eigval :     1062.44  1074.63  1087.98  1089.90  1092.80  1095.38
eigval :     1096.75  1106.39  1113.84  1115.49  1119.45  1141.31
eigval :     1147.01  1167.47  1173.12  1178.87  1183.40  1195.72
eigval :     1198.41  1203.76  1204.73  1204.89  1223.05  1230.13
eigval :     1238.73  1242.31  1249.35  1259.58  1260.11  1260.89
eigval :     1268.48  1275.90  1278.28  1279.89  1280.13  1286.96
eigval :     1303.82  1310.37  1320.17  1329.31  1337.80  1348.05
eigval :     1355.77  1370.78  1371.55  1374.60  1407.24  1414.41
eigval :     1421.36  1425.48  1429.48  1441.61  1451.78  1466.17
eigval :     1470.63  1478.42  1478.83  1479.17  1494.31  1500.60
eigval :     1523.80  1542.77  1545.78  1547.83  1562.62  1565.83
eigval :     1574.41  1575.09  1577.16  1578.58  1587.16  1590.79
eigval :     1593.13  1601.11  3054.15  3054.21  3054.52  3055.14
eigval :     3080.69  3086.68  3086.99  3089.52  3089.77  3090.60
eigval :     3091.36  3092.62  3092.82  3093.21  3093.72  3095.06
eigval :     3095.91  3104.14  3104.77  3105.19  3107.28  3108.45
eigval :     3108.64  3109.40  3115.63

   temp. (K)  partition function   enthalpy   heat capacity  entropy
                                   cal/mol     cal/K/mol   cal/K/mol   J/K/mol
 298.15  VIB  0.266E+17            21058.684    134.464    130.731
         ROT  0.999E+08              888.752      2.981     39.586
         INT  0.266E+25            21947.436    137.445    170.317
         TR   0.148E+29             1481.254      4.968     45.115
         TOT                       23428.6904   142.4134   215.4325   901.3694

       T/K    H(0)-H(T)+PV         H(T)/Eh          T*S/Eh         G(T)/Eh
   ------------------------------------------------------------------------
    298.15    0.373360E-01    0.579234E+00    0.102359E+00    0.476875E+00
   ------------------------------------------------------------------------

         :::::::::::::::::::::::::::::::::::::::::::::::::::::
         ::                  THERMODYNAMIC                  ::
         :::::::::::::::::::::::::::::::::::::::::::::::::::::
         :: total free energy        -120.993950860657 Eh   ::
         ::.................................................::
         :: total energy             -121.470825596495 Eh   ::
         :: zero point energy           0.541897650513 Eh   ::
         :: G(RRHO) w/o ZPVE           -0.065022914675 Eh   ::
         :: G(RRHO) contrib.            0.476874735838 Eh   ::
         :::::::::::::::::::::::::::::::::::::::::::::::::::::

           -------------------------------------------------
          | TOTAL ENERGY             -121.470825596495 Eh   |
          | TOTAL ENTHALPY           -120.891591951366 Eh   |
          | TOTAL FREE ENERGY        -120.993950860657 Eh   |
          | GRADIENT NORM               0.000068811985 Eh/α |
          | HOMO-LUMO GAP               0.891219985022 eV   |
           -------------------------------------------------

 * finished run on 2025/08/22 at 13:03:37.570
