   * xtb version 6.7.1 (edcfbbe) compiled by 'albert@albert-system' on 2024-07-22

   ID    Z sym.   atoms
    1    6 C      1-6, 8-13, 15-27, 29-34, 36-41, 43-46, 48
    2    8 O      7
    3    7 N      14, 28, 35, 42, 47
    4    1 H      49-73

          program call               : xtb data2507/toluene/pDPBPZ-PXZ/pDPBPZ-PXZ.xyz --gfn 2 --gbsa toluene --ohess vtight --parallel 40 --molden --ceasefiles --namespace data2507/toluene/pDPBPZ-PXZ/pDPBPZ-PXZ_toluene_S0_preOpt
      * Solvation model:               GBSA
        Solvent                        toluene
        Solvent mass                       9.2140E+01 g/mol
          :  Hamiltonian                  GFN2-xTB          :
 * total energy  :  -121.4455020 Eh     change       -0.4143345E-08 Eh
 * total energy  :  -121.4621901 Eh     change       -0.1668806E-01 Eh
 * total energy  :  -121.4665993 Eh     change       -0.4409272E-02 Eh
 * total energy  :  -121.4676209 Eh     change       -0.1021547E-02 Eh
 * total energy  :  -121.4684326 Eh     change       -0.8116948E-03 Eh
 * total energy  :  -121.4687403 Eh     change       -0.3077742E-03 Eh
 * total energy  :  -121.4689431 Eh     change       -0.2027387E-03 Eh
 * total energy  :  -121.4691127 Eh     change       -0.1695868E-03 Eh
 * total energy  :  -121.4692640 Eh     change       -0.1513300E-03 Eh
 * total energy  :  -121.4693769 Eh     change       -0.1128740E-03 Eh
 * total energy  :  -121.4708123 Eh     change       -0.9479198E-06 Eh
 * total energy  :  -121.4708133 Eh     change       -0.1033795E-05 Eh
 * total energy  :  -121.4708144 Eh     change       -0.1050933E-05 Eh
 * total energy  :  -121.4708155 Eh     change       -0.1188132E-05 Eh
 * total energy  :  -121.4708168 Eh     change       -0.1240007E-05 Eh
 * total energy  :  -121.4708182 Eh     change       -0.1390501E-05 Eh
 * total energy  :  -121.4708195 Eh     change       -0.1338835E-05 Eh
 * total energy  :  -121.4708208 Eh     change       -0.1256588E-05 Eh
 * total energy  :  -121.4708208 Eh     change       -0.3831232E-08 Eh
   *** GEOMETRY OPTIMIZATION CONVERGED AFTER 122 ITERATIONS ***

 final structure:
================
73
 xtb: 6.7.1 (edcfbbe)
C           -7.70777232537769       -0.09025831762628       -3.21235589712700
C           -6.36035278455886       -0.38098428564650       -3.28571872009489
C           -5.52546200759580       -0.11575312570201       -2.21068689784967
C           -6.02593090723265        0.43622894254243       -1.03731045701167
C           -7.38909073320676        0.75838237107566       -0.98683573245867
C           -8.21827896054910        0.49064500894657       -2.06052045042402
O           -7.96546220961443        1.36364259420050        0.10552037248806
C           -7.15183881086025        1.63513312225240        1.18074748997160
C           -7.74599735981054        2.22730284008934        2.27994125709141
C           -6.99907366637054        2.50209671008567        3.41637945379125
C           -5.66120811163613        2.16324350608420        3.44819782192441
C           -5.06096556335401        1.57070660965852        2.34741958199935
C           -5.78673592133442        1.31860214290753        1.18926913056645
N           -5.21312899480178        0.71868019915150        0.06455625194057
C           -3.83444195699870        0.41956765340502        0.03848270837500
C           -2.89161675774984        1.44755619370146        0.13278463167833
C           -1.55446493451241        1.13759425935968        0.10661610945990
C           -1.12215715342555       -0.18771415107230       -0.01794237274862
C           -2.06212352749865       -1.23359347099828       -0.12265084017925
C           -3.41708624166502       -0.89567129630351       -0.08344974463456
C           -1.60797965920500       -2.61177264321776       -0.25661568065518
C           -2.49466305073436       -3.68752993861762       -0.38404692599408
C           -2.04004185638366       -4.98348248209827       -0.50320668246371
C           -0.67651094225596       -5.25549206259320       -0.50123214944975
C            0.21906273952791       -4.21751418492230       -0.38477845823034
C           -0.22783700202441       -2.89786650367739       -0.26487619368046
C            0.74005743215622       -1.82832623492245       -0.15596212332541
N            2.02626142190622       -2.12430941631549       -0.17404156022537
C            2.90599685104607       -1.11521628181858       -0.08042907671680
C            4.28866714047194       -1.38032443711246       -0.11108471619608
C            5.20377377097339       -0.36091505383213       -0.02529052449672
C            6.63871506953583       -0.67460529019379       -0.14061120755336
C            7.45744996470996       -0.00196184203455       -1.04638947204279
C            8.79330855987464       -0.35777871317937       -1.12656400564007
N            9.34426905300733       -1.30583920051371       -0.38601810650027
C            8.56609817494001       -1.95202519507182        0.46717697825705
C            7.21660063014875       -1.68488026763269        0.62614284179611
C            4.75814041692681        0.98519267014429        0.12162765958007
C            5.72182100600005        2.08545362583240        0.30034599799513
C            5.62248692306326        3.25439079508780       -0.45226880425351
C            6.54193499133726        4.26686239532205       -0.23454066567607
N            7.51304747493591        4.19304615752835        0.66129692708762
C            7.59965168854187        3.08981798968800        1.38665290008083
C            6.73956716811171        2.01321665224236        1.25017610155069
C            3.41460830617157        1.26422503506578        0.14257175929115
C            2.46019976627714        0.23341372954399        0.03833690541701
N            1.15116214901676        0.52515202441975        0.05955332692915
C            0.29275451620842       -0.47467872819610       -0.03751161465678
H           -8.36322581264378       -0.29849999906786       -4.04323704605296
H           -5.94290481965567       -0.81430720955079       -4.18167774958838
H           -4.47192937937938       -0.33239687756360       -2.29023022759701
H           -9.26191216658030        0.75025880243939       -1.97573819469759
H           -8.79795848238261        2.46054697802108        2.22767592762876
H           -7.47050391407975        2.96702029558498        4.26786184225324
H           -5.07087987793080        2.35216850217647        4.33170541233938
H           -4.01896092015945        1.29602968387900        2.39255871515872
H           -3.22217649137247        2.47151215359664        0.21934181232776
H           -0.80335482558033        1.90867597458773        0.17429743774644
H           -4.17578232960271       -1.65920267515882       -0.14047276056904
H           -3.55868531052202       -3.51616663914797       -0.39289099705980
H           -2.75036344216909       -5.79130933780111       -0.59923799881980
H           -0.32468321525540       -6.27190158190686       -0.59291681721028
H            1.28379335714052       -4.39118707299529       -0.38456758567854
H            4.60773876081482       -2.40441317681413       -0.23360880154854
H            7.05739109661675        0.77188822587135       -1.68314938877641
H            9.46047103902827        0.14114988741534       -1.81767845196541
H            9.05394759001661       -2.72232261569806        1.05071399282940
H            6.62620678129818       -2.23444690645620        1.34326924232473
H            4.85411549927538        3.35944415030749       -1.20295563280439
H            6.50348924324079        5.18649280372642       -0.80436732449410
H            8.40200428434952        3.07072454689417        2.11295987245802
H            6.84978526186770        1.14220670972263        1.87741492761705
H            3.05896829754318        2.27637227290116        0.26407066717970

          :  Hamiltonian                  GFN2-xTB          :
         :: gradient norm              0.000058125344 Eh/a0 ::
         :: HOMO-LUMO gap              0.884112677180 eV    ::
         :: SCC energy              -123.615277219871 Eh    ::
         :: -> dispersion             -0.105568576173 Eh    ::
         :: -> Gsolv                  -0.051970805582 Eh    ::
         :: repulsion energy           2.144456450748 Eh    ::

    * Orbital Energies and Occupations

         #    Occupation            Energy/Eh            Energy/eV
      -------------------------------------------------------------
         1        2.0000           -0.7322728             -19.9262
       ...           ...                  ...                  ...
       100        2.0000           -0.4264362             -11.6039
       101        2.0000           -0.4235675             -11.5259
       102        2.0000           -0.4218400             -11.4788
       103        2.0000           -0.4184636             -11.3870
       104        2.0000           -0.4157562             -11.3133
       105        2.0000           -0.4101420             -11.1605
       106        2.0000           -0.4012098             -10.9175
       107        2.0000           -0.3993433             -10.8667
       108        2.0000           -0.3929221             -10.6920
       109        2.0000           -0.3779410             -10.2843
       110        2.0000           -0.3770775             -10.2608
       111        2.0000           -0.3620426              -9.8517
       112        2.0000           -0.3467870              -9.4366 (HOMO)
       113                         -0.3142965              -8.5524 (LUMO)
       114                         -0.2832269              -7.7070
       115                         -0.2654864              -7.2243
       116                         -0.2636217              -7.1735
       117                         -0.2578145              -7.0155
       118                         -0.2479598              -6.7473
       119                         -0.2432798              -6.6200
       120                         -0.2412457              -6.5646
       121                         -0.2331182              -6.3435
       122                         -0.2325337              -6.3276
       123                         -0.2215453              -6.0286
       ...                                ...                  ...
       217                          0.7028231              19.1248
      -------------------------------------------------------------
                  HL-Gap            0.0324905 Eh            0.8841 eV

     #   Z          covCN         q      C6AA      α(0)
     1   6 C        2.919    -0.040    29.006     8.832
     2   6 C        2.919    -0.039    28.964     8.825
     3   6 C        2.924    -0.061    29.508     8.908
     4   6 C        2.921     0.042    27.060     8.531
     5   6 C        2.883     0.123    25.303     8.247
     6   6 C        2.919    -0.058    29.430     8.896
     7   8 O        1.708    -0.271    18.490     5.806
     8   6 C        2.882     0.123    25.304     8.247
     9   6 C        2.919    -0.058    29.432     8.896
    10   6 C        2.919    -0.040    29.005     8.832
    11   6 C        2.919    -0.039    28.963     8.825
    12   6 C        2.924    -0.060    29.493     8.906
    13   6 C        2.921     0.042    27.055     8.530
    14   7 N        2.751    -0.071    22.607     7.062
    15   6 C        2.919     0.068    26.470     8.437
    16   6 C        2.918    -0.040    28.995     8.830
    17   6 C        2.923    -0.027    28.677     8.782
    18   6 C        2.987    -0.009    28.241     8.717
    19   6 C        2.975     0.008    27.835     8.654
    20   6 C        2.925    -0.047    29.161     8.856
    21   6 C        2.976     0.006    27.873     8.660
    22   6 C        2.922    -0.033    28.811     8.802
    23   6 C        2.918    -0.024    28.612     8.772
    24   6 C        2.916    -0.026    28.657     8.778
    25   6 C        2.924    -0.027    28.666     8.780
    26   6 C        2.987    -0.005    28.148     8.703
    27   6 C        2.960     0.086    26.073     8.375
    28   7 N        1.848    -0.258    27.568     7.782
    29   6 C        2.964     0.081    26.193     8.395
    30   6 C        2.923    -0.048    29.180     8.859
    31   6 C        2.974     0.009    27.819     8.652
    32   6 C        2.987     0.032    27.288     8.569
    33   6 C        2.918    -0.042    29.037     8.836
    34   6 C        2.913     0.061    26.643     8.464
    35   7 N        1.835    -0.235    27.004     7.701
    36   6 C        2.913     0.061    26.643     8.464
    37   6 C        2.918    -0.044    29.098     8.846
    38   6 C        2.974     0.009    27.814     8.651
    39   6 C        2.987     0.032    27.289     8.569
    40   6 C        2.918    -0.044    29.098     8.846
    41   6 C        2.913     0.061    26.643     8.464
    42   7 N        1.835    -0.235    27.003     7.701
    43   6 C        2.913     0.061    26.643     8.464
    44   6 C        2.918    -0.042    29.036     8.836
    45   6 C        2.923    -0.048    29.187     8.860
    46   6 C        2.964     0.081    26.187     8.394
    47   7 N        1.848    -0.260    27.603     7.787
    48   6 C        2.960     0.086    26.086     8.377
    49   1 H        0.926     0.043     2.413     2.429
    50   1 H        0.926     0.042     2.426     2.435
    51   1 H        0.926     0.040     2.454     2.450
    52   1 H        0.926     0.048     2.340     2.392
    53   1 H        0.926     0.048     2.339     2.392
    54   1 H        0.926     0.043     2.413     2.429
    55   1 H        0.926     0.042     2.427     2.436
    56   1 H        0.926     0.040     2.455     2.450
    57   1 H        0.926     0.051     2.309     2.376
    58   1 H        0.926     0.064     2.158     2.297
    59   1 H        0.926     0.053     2.278     2.360
    60   1 H        0.926     0.047     2.352     2.398
    61   1 H        0.926     0.047     2.360     2.402
    62   1 H        0.926     0.046     2.368     2.407
    63   1 H        0.926     0.057     2.231     2.336
    64   1 H        0.926     0.057     2.235     2.338
    65   1 H        0.926     0.038     2.481     2.463
    66   1 H        0.925     0.041     2.438     2.442
    67   1 H        0.925     0.043     2.404     2.425
    68   1 H        0.926     0.046     2.371     2.408
    69   1 H        0.926     0.046     2.372     2.408
    70   1 H        0.925     0.043     2.405     2.425
    71   1 H        0.925     0.041     2.438     2.442
    72   1 H        0.926     0.038     2.479     2.462
    73   1 H        0.926     0.057     2.235     2.338

molecular dipole:
                 x           y           z       tot (Debye)
 q only:       -0.929      -0.800      -0.075
   full:       -1.450      -0.969      -0.090       4.439

 projected vibrational frequencies (cm⁻¹)
eigval :       -0.00    -0.00     0.00     0.00     0.00     0.00
eigval :        8.90    13.20    23.86    24.43    33.46    41.88
eigval :       45.00    54.88    58.92    64.06    70.19    83.53
eigval :       92.09    99.84   106.75   121.39   137.26   148.48
eigval :      156.14   195.14   199.83   212.24   232.02   238.22
eigval :      245.14   251.33   261.85   275.52   284.36   298.69
eigval :      315.27   336.09   340.26   342.27   366.62   370.76
eigval :      382.08   391.27   404.53   412.30   422.96   427.23
eigval :      430.12   439.96   443.97   451.16   468.30   502.61
eigval :      509.07   509.93   518.43   523.34   527.46   541.59
eigval :      562.66   577.11   579.99   581.33   593.13   605.82
eigval :      621.05   621.58   623.25   629.77   647.88   657.27
eigval :      660.02   661.99   681.27   683.12   689.43   704.86
eigval :      709.86   710.88   731.79   737.14   745.58   763.36
eigval :      768.42   776.93   777.84   780.64   797.32   800.03
eigval :      814.18   833.16   852.95   854.19   859.99   860.78
eigval :      864.32   870.21   876.94   882.15   884.98   889.06
eigval :      896.05   897.14   912.93   914.07   915.52   916.06
eigval :      916.14   919.26   922.32   922.69   926.31   928.80
eigval :      929.24   944.77   981.38   995.89  1022.74  1041.97
eigval :     1062.42  1074.31  1089.16  1090.51  1093.14  1096.49
eigval :     1098.82  1105.74  1115.01  1118.34  1119.27  1141.22
eigval :     1146.91  1166.98  1173.03  1180.61  1183.43  1195.49
eigval :     1198.15  1204.39  1204.63  1205.63  1222.94  1230.46
eigval :     1239.35  1242.03  1249.69  1259.29  1260.35  1261.18
eigval :     1268.37  1276.10  1278.37  1279.98  1280.23  1286.86
eigval :     1303.94  1310.63  1319.91  1329.82  1337.52  1348.28
eigval :     1355.76  1370.92  1371.60  1374.45  1407.21  1414.32
eigval :     1421.15  1425.48  1429.39  1441.53  1451.81  1466.23
eigval :     1470.59  1478.26  1478.95  1479.14  1494.54  1500.77
eigval :     1523.89  1542.80  1545.57  1547.64  1562.64  1565.87
eigval :     1574.36  1574.98  1577.14  1578.73  1587.21  1590.47
eigval :     1592.76  1601.37  3053.87  3054.10  3054.86  3055.12
eigval :     3081.10  3087.21  3087.52  3089.52  3089.97  3090.85
eigval :     3091.97  3092.47  3092.88  3093.35  3094.95  3095.98
eigval :     3096.76  3103.98  3104.46  3105.36  3107.46  3108.49
eigval :     3108.81  3109.57  3115.81

   temp. (K)  partition function   enthalpy   heat capacity  entropy
                                   cal/mol     cal/K/mol   cal/K/mol   J/K/mol
 298.15  VIB  0.135E+17            21027.010    134.784    130.241
         ROT  0.999E+08              888.752      2.981     39.586
         INT  0.134E+25            21915.762    137.765    169.827
         TR   0.148E+29             1481.254      4.968     45.115
         TOT                       23397.0162   142.7333   214.9424   899.3192

       T/K    H(0)-H(T)+PV         H(T)/Eh          T*S/Eh         G(T)/Eh
   ------------------------------------------------------------------------
    298.15    0.372855E-01    0.579254E+00    0.102126E+00    0.477128E+00
   ------------------------------------------------------------------------

         :::::::::::::::::::::::::::::::::::::::::::::::::::::
         ::                  THERMODYNAMIC                  ::
         :::::::::::::::::::::::::::::::::::::::::::::::::::::
         :: total free energy        -120.993692817483 Eh   ::
         ::.................................................::
         :: total energy             -121.470820770718 Eh   ::
         :: zero point energy           0.541968527713 Eh   ::
         :: G(RRHO) w/o ZPVE           -0.064840574478 Eh   ::
         :: G(RRHO) contrib.            0.477127953235 Eh   ::
         :::::::::::::::::::::::::::::::::::::::::::::::::::::

           -------------------------------------------------
          | TOTAL ENERGY             -121.470820770718 Eh   |
          | TOTAL ENTHALPY           -120.891566724370 Eh   |
          | TOTAL FREE ENERGY        -120.993692817483 Eh   |
          | GRADIENT NORM               0.000058126316 Eh/α |
          | HOMO-LUMO GAP               0.884112394919 eV   |
           -------------------------------------------------

 * finished run on 2025/08/22 at 13:00:14.625
