   * xtb version 6.7.1 (edcfbbe) compiled by 'albert@albert-system' on 2024-07-22

   ID    Z sym.   atoms
    1    6 C      1-6, 8-13, 15-27, 29-34, 36-41, 43-46, 48
    2    8 O      7
    3    7 N      14, 28, 35, 42, 47
    4    1 H      49-73

          program call               : xtb data2507/toluene/pDPBPZ-PXZ/pDPBPZ-PXZ_toluene_T1_crest.xyz --gfn 2 --uhf 2 --gbsa toluene --ohess vtight --parallel 40 --molden --ceasefiles --namespace data2507/toluene/pDPBPZ-PXZ/pDPBPZ-PXZ_toluene_T1_finalOpt
      * Solvation model:               GBSA
        Solvent                        toluene
        Solvent mass                       9.2140E+01 g/mol
          :  Hamiltonian                  GFN2-xTB          :
 * total energy  :  -121.4253622 Eh     change       -0.4089799E-08 Eh
 * total energy  :  -121.4254402 Eh     change       -0.7806288E-04 Eh
 * total energy  :  -121.4254758 Eh     change       -0.3558797E-04 Eh
 * total energy  :  -121.4254826 Eh     change       -0.6723794E-05 Eh
 * total energy  :  -121.4254867 Eh     change       -0.4109004E-05 Eh
 * total energy  :  -121.4254905 Eh     change       -0.3829386E-05 Eh
 * total energy  :  -121.4254945 Eh     change       -0.3971787E-05 Eh
 * total energy  :  -121.4254969 Eh     change       -0.2436311E-05 Eh
 * total energy  :  -121.4254982 Eh     change       -0.1253343E-05 Eh
 * total energy  :  -121.4254994 Eh     change       -0.1282788E-05 Eh
 * total energy  :  -121.4255036 Eh     change       -0.7131554E-06 Eh
 * total energy  :  -121.4255044 Eh     change       -0.7594763E-06 Eh
 * total energy  :  -121.4255051 Eh     change       -0.6839296E-06 Eh
 * total energy  :  -121.4255056 Eh     change       -0.5265941E-06 Eh
 * total energy  :  -121.4255060 Eh     change       -0.4226660E-06 Eh
 * total energy  :  -121.4255065 Eh     change       -0.4435717E-06 Eh
 * total energy  :  -121.4255069 Eh     change       -0.3690171E-06 Eh
 * total energy  :  -121.4255071 Eh     change       -0.2867569E-06 Eh
 * total energy  :  -121.4255072 Eh     change       -0.1929794E-07 Eh
   *** GEOMETRY OPTIMIZATION CONVERGED AFTER 22 ITERATIONS ***

 final structure:
================
73
 xtb: 6.7.1 (edcfbbe)
C           -7.01065823033576        3.11256493731153       -2.80745159223741
C           -5.67036760268996        2.77987242790088       -2.91419362705659
C           -5.06927226503380        1.97328298970217       -1.96430986610088
C           -5.79942530456936        1.48982565974088       -0.88077264625554
C           -7.16485178982928        1.81304625197837       -0.79515364579420
C           -7.75867350940476        2.62207232959451       -1.74980235359234
O           -7.96147398615830        1.34404235838452        0.21348374797284
C           -7.38681598282523        0.54198851654169        1.16148019472236
C           -8.20516679624252        0.07486842203940        2.17679813963522
C           -7.68131315375078       -0.72371564584746        3.17988131862679
C           -6.33343827448894       -1.04236918770934        3.17052879270883
C           -5.50954154369934       -0.58141409408097        2.15918949691731
C           -6.02229216309042        0.20467124123704        1.12948526784999
N           -5.22913426206075        0.68259666240635        0.09430514066757
C           -3.84488673671598        0.37194890155992        0.04501916671861
C           -2.89861141059913        1.38386888456737        0.26447825202519
C           -1.56727273842736        1.07216685121892        0.21807106299760
C           -1.13499429902343       -0.24169690423576       -0.03568409302716
C           -2.08562889456572       -1.26975377206298       -0.25396782623003
C           -3.44201108794312       -0.92122018944346       -0.21274104639967
C           -1.63210642037289       -2.61620968148873       -0.50954143121284
C           -2.50973803537545       -3.69089901778804       -0.72278741560222
C           -2.04518928781356       -4.96152404954337       -0.96342756302158
C           -0.67350931150945       -5.21655406202934       -1.00055456447064
C            0.21168133085190       -4.19017162590178       -0.79355262216917
C           -0.24327996806058       -2.88465809623983       -0.54598440458650
C            0.71481052265236       -1.84219263837433       -0.33120386372288
N            2.01676657878004       -2.09824438668174       -0.36881406592011
C            2.91909071581042       -1.13304488477393       -0.17987996458488
C            4.28931290033044       -1.37556491447251       -0.22339903860862
C            5.22146380523234       -0.36025748719294       -0.03643711966296
C            6.64844551084017       -0.68028178573401       -0.17358051258810
C            7.49554594293143        0.08390164210015       -0.97771827099976
C            8.82650915372061       -0.27893939588044       -1.08048459493044
N            9.35462758525489       -1.32083137098823       -0.45639898474997
C            8.55037862929845       -2.05486967483828        0.29745529667728
C            7.20353624035146       -1.78822600013092        0.46814006304521
C            4.77696371893134        0.94892390737005        0.22124956607539
C            5.71532435990573        2.04457460303949        0.50050615857971
C            5.57424093789199        3.28736186279258       -0.11823504593549
C            6.47382586231393        4.29308219730687        0.18778647221698
N            7.46839901095168        4.15102435604116        1.05057910504717
C            7.59508719636748        2.97743332065798        1.65092797911187
C            6.75690879188857        1.90158387853277        1.41824433994324
C            3.41311771087605        1.21309949523941        0.26675833169864
C            2.46255737719972        0.21264217560808        0.07251292833660
N            1.15315292924958        0.45452524133032        0.12195994200935
C            0.26526308029589       -0.51789319645948       -0.07323560874021
H           -7.47828508388015        3.74375797913540       -3.54618613301085
H           -5.08383105342849        3.14631530220025       -3.74218920710697
H           -4.02798842629259        1.71036494021519       -2.05992974287154
H           -8.80714092397784        2.85146076047347       -1.64572825956268
H           -9.24686016028652        0.35314182709766        2.16277248140308
H           -8.32377581176876       -1.08538382242584        3.96675483102345
H           -5.91391263998186       -1.65165106262087        3.95579716022020
H           -4.45932086862967       -0.82543238442370        2.16640014494234
H           -3.22914279090552        2.39027475786875        0.47125079758340
H           -0.81146069823243        1.82452242851972        0.38311295873366
H           -4.20249795598865       -1.66613637505750       -0.38352163536636
H           -3.57553453534028       -3.53008527406702       -0.69856232038096
H           -2.74505031305373       -5.76842169991944       -1.12351106969260
H           -0.31358294161050       -6.21675357049341       -1.19032102483301
H            1.27834836308487       -4.35536250782285       -0.81401436472045
H            4.61972519362883       -2.37948985799046       -0.44391886687886
H            7.11761184563032        0.93673074913506       -1.52052110618730
H            9.51149686575031        0.29137791585434       -1.69523165989400
H            9.01783119888547       -2.89899687558577        0.78892321592283
H            6.59535990302374       -2.41328429320479        1.10441167020382
H            4.78804776798544        3.45294850254327       -0.83929890712231
H            6.40103844052703        5.26691070654173       -0.28018328543505
H            8.41325996514057        2.90109576045674        2.35596136638821
H            6.90118717405551        0.97191561163794        1.94704898870630
H            3.06142483462547        2.21004041812905        0.48576913985206

          :  Hamiltonian                  GFN2-xTB          :
         :: gradient norm              0.000087807593 Eh/a0 ::
         :: HOMO-LUMO gap              0.834870392174 eV    ::
         :: SCC energy              -123.571166525192 Eh    ::
         :: -> dispersion             -0.105468529850 Eh    ::
         :: -> Gsolv                  -0.054556389699 Eh    ::
         :: repulsion energy           2.145659366975 Eh    ::

    * Orbital Energies and Occupations

         #    Occupation            Energy/Eh            Energy/eV
      -------------------------------------------------------------
         1        2.0000           -0.7503963             -20.4193
       ...           ...                  ...                  ...
       101        2.0000           -0.4218810             -11.4800
       102        2.0000           -0.4202425             -11.4354
       103        2.0000           -0.4192195             -11.4075
       104        2.0000           -0.4151930             -11.2980
       105        2.0000           -0.4064201             -11.0593
       106        2.0000           -0.4015102             -10.9256
       107        2.0000           -0.3933041             -10.7023
       108        2.0000           -0.3890465             -10.5865
       109        2.0000           -0.3727107             -10.1420
       110        2.0000           -0.3717782             -10.1166
       111        1.7545           -0.3595096              -9.7828
       112        1.2455           -0.3573764              -9.7247
       113        1.0000           -0.3077479              -8.3742 (HOMO)
       114                         -0.2770673              -7.5394 (LUMO)
       115                         -0.2608439              -7.0979
       116                         -0.2584296              -7.0322
       117                         -0.2557609              -6.9596
       118                         -0.2501250              -6.8062
       119                         -0.2443996              -6.6505
       120                         -0.2414118              -6.5691
       121                         -0.2359111              -6.4195
       122                         -0.2314569              -6.2983
       123                         -0.2238486              -6.0912
       124                         -0.2122772              -5.7764
       ...                                ...                  ...
       217                          0.7046034              19.1732
      -------------------------------------------------------------
                  HL-Gap            0.0306806 Eh            0.8349 eV

     #   Z          covCN         q      C6AA      α(0)
     1   6 C        2.919    -0.032    28.790     8.799
     2   6 C        2.918    -0.031    28.784     8.798
     3   6 C        2.921    -0.053    29.306     8.877
     4   6 C        2.924     0.045    26.988     8.519
     5   6 C        2.884     0.129    25.176     8.226
     6   6 C        2.917    -0.053    29.307     8.877
     7   8 O        1.709    -0.238    17.945     5.719
     8   6 C        2.884     0.129    25.176     8.226
     9   6 C        2.917    -0.053    29.304     8.877
    10   6 C        2.919    -0.032    28.792     8.799
    11   6 C        2.918    -0.031    28.783     8.798
    12   6 C        2.921    -0.053    29.315     8.879
    13   6 C        2.923     0.045    26.995     8.520
    14   7 N        2.753    -0.036    21.933     6.956
    15   6 C        2.920     0.054    26.797     8.489
    16   6 C        2.916    -0.042    29.055     8.839
    17   6 C        2.924    -0.028    28.700     8.785
    18   6 C        2.986    -0.009    28.245     8.718
    19   6 C        2.976     0.001    27.996     8.679
    20   6 C        2.923    -0.044    29.103     8.847
    21   6 C        2.977    -0.001    28.037     8.686
    22   6 C        2.920    -0.035    28.864     8.810
    23   6 C        2.917    -0.031    28.763     8.795
    24   6 C        2.916    -0.031    28.766     8.795
    25   6 C        2.923    -0.029    28.718     8.788
    26   6 C        2.987    -0.007    28.198     8.711
    27   6 C        2.943     0.082    26.179     8.392
    28   7 N        1.849    -0.247    27.293     7.743
    29   6 C        2.941     0.086    26.082     8.376
    30   6 C        2.924    -0.065    29.626     8.926
    31   6 C        2.974    -0.004    28.108     8.696
    32   6 C        2.986     0.031    27.305     8.572
    33   6 C        2.918    -0.044    29.090     8.845
    34   6 C        2.913     0.060    26.662     8.467
    35   7 N        1.835    -0.246    27.257     7.737
    36   6 C        2.913     0.059    26.669     8.468
    37   6 C        2.919    -0.047    29.158     8.855
    38   6 C        2.974    -0.003    28.089     8.694
    39   6 C        2.986     0.031    27.301     8.571
    40   6 C        2.919    -0.047    29.156     8.855
    41   6 C        2.913     0.059    26.670     8.468
    42   7 N        1.835    -0.245    27.243     7.735
    43   6 C        2.913     0.060    26.661     8.467
    44   6 C        2.918    -0.044    29.084     8.844
    45   6 C        2.924    -0.066    29.647     8.929
    46   6 C        2.941     0.087    26.071     8.374
    47   7 N        1.849    -0.249    27.331     7.748
    48   6 C        2.944     0.078    26.268     8.406
    49   1 H        0.926     0.055     2.257     2.349
    50   1 H        0.926     0.053     2.282     2.362
    51   1 H        0.926     0.051     2.308     2.376
    52   1 H        0.926     0.061     2.186     2.312
    53   1 H        0.926     0.061     2.186     2.312
    54   1 H        0.926     0.055     2.256     2.349
    55   1 H        0.926     0.053     2.281     2.362
    56   1 H        0.926     0.051     2.310     2.377
    57   1 H        0.926     0.049     2.335     2.390
    58   1 H        0.926     0.055     2.256     2.349
    59   1 H        0.926     0.051     2.302     2.373
    60   1 H        0.926     0.043     2.415     2.430
    61   1 H        0.926     0.040     2.451     2.448
    62   1 H        0.926     0.039     2.464     2.455
    63   1 H        0.926     0.044     2.390     2.418
    64   1 H        0.926     0.043     2.407     2.426
    65   1 H        0.926     0.032     2.565     2.504
    66   1 H        0.925     0.035     2.515     2.480
    67   1 H        0.925     0.038     2.480     2.463
    68   1 H        0.926     0.040     2.450     2.448
    69   1 H        0.926     0.040     2.442     2.444
    70   1 H        0.925     0.038     2.474     2.460
    71   1 H        0.925     0.035     2.513     2.479
    72   1 H        0.926     0.032     2.565     2.504
    73   1 H        0.926     0.044     2.395     2.420

molecular dipole:
                 x           y           z       tot (Debye)
 q only:       -5.380      -0.070      -0.051
   full:       -5.791      -0.260      -0.085      14.736

 projected vibrational frequencies (cm⁻¹)
eigval :       -0.00    -0.00    -0.00     0.00     0.00     0.00
eigval :       10.16    11.93    21.92    24.59    33.69    44.37
eigval :       46.03    56.56    59.66    62.79    74.47    83.06
eigval :       88.61    99.09   110.54   119.36   137.06   146.94
eigval :      155.29   187.57   199.49   209.61   231.80   239.28
eigval :      244.80   245.37   257.26   273.29   285.39   300.05
eigval :      311.62   327.40   338.95   344.64   364.19   374.67
eigval :      377.61   392.18   404.65   411.33   418.66   426.19
eigval :      430.52   435.47   448.92   452.73   473.08   499.66
eigval :      505.81   506.14   514.97   520.31   527.66   537.13
eigval :      557.09   574.14   574.80   580.79   583.71   603.35
eigval :      612.57   618.35   618.90   626.06   629.51   655.28
eigval :      655.87   665.12   668.50   678.35   680.52   686.16
eigval :      700.02   707.29   708.32   723.15   727.15   728.84
eigval :      763.31   771.02   774.82   777.08   795.91   801.07
eigval :      812.87   818.03   821.62   826.96   855.05   857.05
eigval :      859.36   864.55   868.08   873.84   884.49   890.64
eigval :      900.08   901.69   910.63   911.59   912.85   913.46
eigval :      915.75   916.91   917.92   919.49   921.74   921.90
eigval :      928.97   939.78   967.18   996.55  1020.41  1032.13
eigval :     1062.59  1080.01  1084.67  1085.50  1088.02  1096.46
eigval :     1097.94  1111.66  1116.45  1117.90  1119.56  1141.75
eigval :     1145.47  1165.37  1171.32  1177.86  1181.06  1195.29
eigval :     1201.91  1204.64  1204.89  1205.80  1222.90  1235.45
eigval :     1237.84  1238.59  1243.63  1249.12  1253.96  1260.84
eigval :     1263.01  1264.05  1280.41  1282.45  1285.06  1286.17
eigval :     1299.73  1300.72  1309.60  1312.75  1318.23  1338.20
eigval :     1344.22  1353.46  1368.20  1372.77  1376.52  1391.54
eigval :     1407.93  1411.50  1415.85  1418.90  1439.35  1445.43
eigval :     1457.07  1462.24  1465.15  1472.97  1476.03  1487.09
eigval :     1505.23  1515.43  1522.29  1539.81  1540.98  1544.32
eigval :     1556.96  1564.31  1567.41  1571.42  1573.48  1575.11
eigval :     1586.32  1588.18  3048.61  3049.08  3049.42  3049.79
eigval :     3076.61  3084.50  3085.29  3085.65  3087.36  3088.33
eigval :     3088.94  3089.28  3090.56  3095.13  3095.16  3095.21
eigval :     3100.18  3100.65  3103.26  3103.81  3110.37  3111.14
eigval :     3111.73  3114.83  3115.15

   temp. (K)  partition function   enthalpy   heat capacity  entropy
                                   cal/mol     cal/K/mol   cal/K/mol   J/K/mol
 298.15  VIB  0.145E+17            21156.562    135.871    130.984
         ROT  0.100E+09              888.752      2.981     39.595
         INT  0.145E+25            22045.314    138.852    170.579
         TR   0.148E+29             1481.254      4.968     45.115
         TOT                       23526.5682   143.8199   215.6942   902.4644

       T/K    H(0)-H(T)+PV         H(T)/Eh          T*S/Eh         G(T)/Eh
   ------------------------------------------------------------------------
    298.15    0.374920E-01    0.577006E+00    0.102483E+00    0.474523E+00
   ------------------------------------------------------------------------

         :::::::::::::::::::::::::::::::::::::::::::::::::::::
         ::                  THERMODYNAMIC                  ::
         :::::::::::::::::::::::::::::::::::::::::::::::::::::
         :: total free energy        -120.950983912520 Eh   ::
         ::.................................................::
         :: total energy             -121.425507146895 Eh   ::
         :: zero point energy           0.539514526016 Eh   ::
         :: G(RRHO) w/o ZPVE           -0.064991291641 Eh   ::
         :: G(RRHO) contrib.            0.474523234374 Eh   ::
         :::::::::::::::::::::::::::::::::::::::::::::::::::::

           -------------------------------------------------
          | TOTAL ENERGY             -121.425507146895 Eh   |
          | TOTAL ENTHALPY           -120.848500648014 Eh   |
          | TOTAL FREE ENERGY        -120.950983912520 Eh   |
          | GRADIENT NORM               0.000087676491 Eh/α |
          | HOMO-LUMO GAP               0.834860371036 eV   |
           -------------------------------------------------

 * finished run on 2025/08/22 at 13:08:45.625
