   * xtb version 6.7.1 (edcfbbe) compiled by 'albert@albert-system' on 2024-07-22

   ID    Z sym.   atoms
    1    6 C      1-6, 8-13, 15-27, 29-34, 36-41, 43-46, 48
    2    8 O      7
    3    7 N      14, 28, 35, 42, 47
    4    1 H      49-73

          program call               : xtb data2507/toluene/pDPBPZ-PXZ/pDPBPZ-PXZ_toluene_S0_finalOpt.xtbopt.xyz --gfn 2 --uhf 2 --gbsa toluene --ohess vtight --parallel 40 --molden --ceasefiles --namespace data2507/toluene/pDPBPZ-PXZ/pDPBPZ-PXZ_toluene_T1_preOpt
      * Solvation model:               GBSA
        Solvent                        toluene
        Solvent mass                       9.2140E+01 g/mol
          :  Hamiltonian                  GFN2-xTB          :
 * total energy  :  -121.4217403 Eh     change       -0.3808925E-07 Eh
 * total energy  :  -121.4243758 Eh     change       -0.2635442E-02 Eh
 * total energy  :  -121.4251863 Eh     change       -0.8105605E-03 Eh
 * total energy  :  -121.4252766 Eh     change       -0.9031618E-04 Eh
 * total energy  :  -121.4253264 Eh     change       -0.4977967E-04 Eh
 * total energy  :  -121.4253448 Eh     change       -0.1835392E-04 Eh
 * total energy  :  -121.4253624 Eh     change       -0.1765274E-04 Eh
 * total energy  :  -121.4253914 Eh     change       -0.2896768E-04 Eh
 * total energy  :  -121.4254130 Eh     change       -0.2165348E-04 Eh
 * total energy  :  -121.4254308 Eh     change       -0.1774246E-04 Eh
 * total energy  :  -121.4255251 Eh     change       -0.1081066E-05 Eh
 * total energy  :  -121.4255264 Eh     change       -0.1328822E-05 Eh
 * total energy  :  -121.4255281 Eh     change       -0.1728532E-05 Eh
 * total energy  :  -121.4255299 Eh     change       -0.1835774E-05 Eh
 * total energy  :  -121.4255316 Eh     change       -0.1617868E-05 Eh
 * total energy  :  -121.4255328 Eh     change       -0.1259111E-05 Eh
 * total energy  :  -121.4255338 Eh     change       -0.9270633E-06 Eh
 * total energy  :  -121.4255345 Eh     change       -0.7575158E-06 Eh
 * total energy  :  -121.4255345 Eh     change       -0.6090048E-08 Eh
   *** GEOMETRY OPTIMIZATION CONVERGED AFTER 44 ITERATIONS ***

 final structure:
================
73
 xtb: 6.7.1 (edcfbbe)
C           -6.93210205003793        3.34396607146572       -2.61419153789978
C           -5.59420874538333        3.00252065964736       -2.72336946160963
C           -5.01901235531106        2.11986014482561       -1.82658644194052
C           -5.77274022153702        1.56696579961179       -0.79336675966011
C           -7.13614085082118        1.89865383528889       -0.70860875305602
C           -7.70400595480080        2.78460299019024       -1.60934412372782
O           -7.95711006816556        1.36241372559743        0.24529842206025
C           -7.41053610578405        0.47909231294095        1.13574730960323
C           -8.25528633881124       -0.05803427012212        2.09325121000220
C           -7.76158582389855       -0.94068790358046        3.03946875061632
C           -6.41690463425813       -1.27259432994455        3.03279279445206
C           -5.56675824192761       -0.74134367684584        2.07931271479278
C           -6.04886780338325        0.13014592271094        1.10497168825950
N           -5.22882485448110        0.68184885337863        0.12855524569069
C           -3.84598302593346        0.36725757753227        0.08320540697252
C           -2.89918413771542        1.36274195433629        0.36762965738943
C           -1.56804060606538        1.05216170665176        0.31197402171768
C           -1.13566035255723       -0.24647037317485       -0.01071579448126
C           -2.08670417255280       -1.26090250080547       -0.28435950452227
C           -3.44272736431984       -0.91162798580805       -0.23821775738328
C           -1.63376461869173       -2.59449006627414       -0.60119492002627
C           -2.51157388584166       -3.65829287418681       -0.86285110793990
C           -2.04718746214405       -4.91698417840714       -1.16006373440301
C           -0.67554196423479       -5.17041204837474       -1.20852335257907
C            0.20978366846370       -4.15473210430976       -0.95470127406046
C           -0.24507252831561       -2.86178179787223       -0.64820131854614
C            0.71335557089307       -1.83067190504178       -0.38589146908411
N            2.01512191099254       -2.08484628861924       -0.43870543071330
C            2.91805981825729       -1.12855369893062       -0.21151004513532
C            4.28799194424420       -1.36885546069134       -0.27026315440829
C            5.22126845941866       -0.36182293421935       -0.04678010406826
C            6.64726653056983       -0.67841693676469       -0.20024152301800
C            7.49554483889888        0.11644799901242       -0.97275584211362
C            8.82500408360908       -0.24629429593271       -1.09364489309496
N            9.35031373350872       -1.31697561837864       -0.51766720015907
C            8.54488460812601       -2.07981854113732        0.20575324216388
C            7.19989865616627       -1.81474352470005        0.39231326385020
C            4.77761088391244        0.93632401709029        0.26281050275423
C            5.71636795519989        2.02228256001821        0.57641014774082
C            5.57035447378685        3.28592703536142        0.00267733548748
C            6.47027928073581        4.28149774889644        0.33924914898685
N            7.46965946038231        4.11037129357247        1.19116970767764
C            7.60133282311966        2.91632715576104        1.74861858324283
C            6.76302952429205        1.84821995324405        1.48284009282950
C            3.41387038741622        1.19753544721568        0.32698658845579
C            2.46232608294079        0.20507366595625        0.09949081403706
N            1.15316388910624        0.44334452608485        0.16872466957956
C            0.26451606889045       -0.51994726055805       -0.06511239243299
H           -7.37926964782351        4.03488388361303       -3.31092943010526
H           -4.98945381175793        3.42120934848202       -3.51260487939695
H           -3.97951524224612        1.85155589165658       -1.92587424526807
H           -8.75176187369300        3.01761618396864       -1.50610468290961
H           -9.29353890639051        0.23289701831574        2.07965523560546
H           -8.42463703980999       -1.35713587197087        3.78084878934763
H           -6.02040398721607       -1.94825740488607        3.77449283279974
H           -4.51933296702214       -0.99677908911030        2.09002354204314
H           -3.22923122012878        2.35667755181187        0.62853261864199
H           -0.81254342535140        1.79356162618749        0.52183102024540
H           -4.20244297412296       -1.64410255196867       -0.45902877415190
H           -3.57737332204876       -3.49875230609798       -0.83086982246599
H           -2.74713330692724       -5.71576493359657       -1.35638564673313
H           -0.31569543605665       -6.16103310822932       -1.44337289620419
H            1.27647089948689       -4.31887335640850       -0.98195212868756
H            4.61708689618438       -2.36311952294064       -0.53255623197241
H            7.11970538747293        0.99296804386614       -1.47792689966960
H            9.51092590104574        0.34783460217616       -1.68432615528191
H            9.00952913702596       -2.94708646450731        0.65805747816840
H            6.59091344874488       -2.46403317528202        1.00304531362756
H            4.77994047437041        3.47557148731008       -0.70775489487827
H            6.39362473878519        5.27114866940091       -0.09359184934578
H            8.42353878437510        2.81625673054133        2.44594065492600
H            6.91093310943434        0.90042069400444        1.97742541918681
H            3.06320010887207        2.18501429124004        0.58677771800050

          :  Hamiltonian                  GFN2-xTB          :
         :: gradient norm              0.000068939932 Eh/a0 ::
         :: HOMO-LUMO gap              0.835217431692 eV    ::
         :: SCC energy              -123.571059200590 Eh    ::
         :: -> dispersion             -0.105494033417 Eh    ::
         :: -> Gsolv                  -0.054610060488 Eh    ::
         :: repulsion energy           2.145524684579 Eh    ::

    * Orbital Energies and Occupations

         #    Occupation            Energy/Eh            Energy/eV
      -------------------------------------------------------------
         1        2.0000           -0.7504289             -20.4202
       ...           ...                  ...                  ...
       101        2.0000           -0.4218973             -11.4804
       102        2.0000           -0.4202330             -11.4351
       103        2.0000           -0.4191966             -11.4069
       104        2.0000           -0.4151708             -11.2974
       105        2.0000           -0.4063724             -11.0580
       106        2.0000           -0.4014529             -10.9241
       107        2.0000           -0.3933041             -10.7023
       108        2.0000           -0.3890154             -10.5856
       109        2.0000           -0.3727113             -10.1420
       110        2.0000           -0.3717708             -10.1164
       111        1.7549           -0.3595130              -9.7828
       112        1.2451           -0.3573750              -9.7247
       113        1.0000           -0.3077456              -8.3742 (HOMO)
       114                         -0.2770518              -7.5390 (LUMO)
       115                         -0.2607829              -7.0963
       116                         -0.2584467              -7.0327
       117                         -0.2557837              -6.9602
       118                         -0.2501063              -6.8057
       119                         -0.2444046              -6.6506
       120                         -0.2414416              -6.5700
       121                         -0.2358652              -6.4182
       122                         -0.2316120              -6.3025
       123                         -0.2237427              -6.0883
       124                         -0.2123394              -5.7781
       ...                                ...                  ...
       217                          0.7045903              19.1729
      -------------------------------------------------------------
                  HL-Gap            0.0306938 Eh            0.8352 eV

     #   Z          covCN         q      C6AA      α(0)
     1   6 C        2.919    -0.032    28.789     8.799
     2   6 C        2.918    -0.031    28.785     8.798
     3   6 C        2.921    -0.053    29.306     8.877
     4   6 C        2.924     0.045    26.991     8.520
     5   6 C        2.884     0.129    25.175     8.226
     6   6 C        2.917    -0.053    29.307     8.877
     7   8 O        1.709    -0.238    17.944     5.719
     8   6 C        2.884     0.129    25.176     8.226
     9   6 C        2.917    -0.053    29.304     8.877
    10   6 C        2.919    -0.032    28.791     8.799
    11   6 C        2.918    -0.031    28.784     8.798
    12   6 C        2.921    -0.053    29.318     8.879
    13   6 C        2.923     0.045    26.998     8.521
    14   7 N        2.752    -0.035    21.928     6.955
    15   6 C        2.920     0.054    26.797     8.489
    16   6 C        2.916    -0.043    29.057     8.839
    17   6 C        2.923    -0.028    28.702     8.786
    18   6 C        2.986    -0.009    28.246     8.718
    19   6 C        2.976     0.001    27.996     8.679
    20   6 C        2.923    -0.045    29.109     8.848
    21   6 C        2.977    -0.001    28.038     8.686
    22   6 C        2.920    -0.035    28.865     8.810
    23   6 C        2.917    -0.031    28.763     8.795
    24   6 C        2.916    -0.031    28.766     8.795
    25   6 C        2.923    -0.029    28.718     8.788
    26   6 C        2.987    -0.007    28.199     8.711
    27   6 C        2.943     0.082    26.179     8.392
    28   7 N        1.849    -0.247    27.293     7.743
    29   6 C        2.941     0.086    26.083     8.376
    30   6 C        2.924    -0.065    29.627     8.926
    31   6 C        2.974    -0.004    28.109     8.697
    32   6 C        2.986     0.031    27.306     8.572
    33   6 C        2.918    -0.044    29.090     8.845
    34   6 C        2.913     0.060    26.663     8.467
    35   7 N        1.835    -0.246    27.258     7.737
    36   6 C        2.913     0.059    26.669     8.468
    37   6 C        2.919    -0.047    29.159     8.855
    38   6 C        2.974    -0.003    28.088     8.693
    39   6 C        2.986     0.031    27.301     8.571
    40   6 C        2.919    -0.047    29.156     8.855
    41   6 C        2.913     0.059    26.670     8.468
    42   7 N        1.835    -0.245    27.242     7.735
    43   6 C        2.913     0.060    26.660     8.467
    44   6 C        2.918    -0.044    29.083     8.843
    45   6 C        2.924    -0.066    29.647     8.929
    46   6 C        2.941     0.087    26.070     8.374
    47   7 N        1.849    -0.249    27.330     7.748
    48   6 C        2.944     0.078    26.268     8.406
    49   1 H        0.926     0.055     2.257     2.349
    50   1 H        0.926     0.053     2.282     2.362
    51   1 H        0.926     0.051     2.306     2.375
    52   1 H        0.926     0.061     2.186     2.312
    53   1 H        0.926     0.061     2.186     2.312
    54   1 H        0.926     0.055     2.256     2.349
    55   1 H        0.926     0.053     2.280     2.361
    56   1 H        0.926     0.051     2.304     2.374
    57   1 H        0.926     0.049     2.335     2.390
    58   1 H        0.926     0.055     2.257     2.350
    59   1 H        0.926     0.052     2.300     2.371
    60   1 H        0.926     0.043     2.415     2.430
    61   1 H        0.926     0.040     2.451     2.448
    62   1 H        0.926     0.039     2.464     2.455
    63   1 H        0.926     0.044     2.391     2.418
    64   1 H        0.926     0.043     2.407     2.426
    65   1 H        0.926     0.031     2.566     2.505
    66   1 H        0.925     0.035     2.515     2.480
    67   1 H        0.925     0.038     2.481     2.463
    68   1 H        0.926     0.040     2.451     2.448
    69   1 H        0.926     0.040     2.443     2.444
    70   1 H        0.925     0.038     2.474     2.460
    71   1 H        0.925     0.035     2.513     2.479
    72   1 H        0.926     0.032     2.565     2.504
    73   1 H        0.926     0.044     2.396     2.420

molecular dipole:
                 x           y           z       tot (Debye)
 q only:       -5.388      -0.065      -0.053
   full:       -5.799      -0.252      -0.091      14.756

 projected vibrational frequencies (cm⁻¹)
eigval :       -0.00    -0.00     0.00     0.00     0.00     0.00
eigval :        8.79    11.56    22.91    24.83    33.49    42.30
eigval :       45.26    58.58    59.59    64.31    76.35    84.94
eigval :       90.72    99.07   109.93   121.16   136.46   147.30
eigval :      155.27   188.91   198.99   209.97   232.41   240.08
eigval :      244.20   246.96   258.32   272.85   286.10   300.30
eigval :      311.72   328.30   337.39   344.50   364.34   375.45
eigval :      378.67   391.98   404.72   412.11   419.44   426.31
eigval :      430.93   436.69   449.05   453.69   472.72   501.22
eigval :      505.89   506.42   515.80   521.29   528.94   537.22
eigval :      556.77   574.13   574.79   580.77   583.73   603.21
eigval :      612.93   618.37   619.73   627.11   629.50   655.80
eigval :      656.60   665.80   669.04   678.96   680.67   688.59
eigval :      700.02   707.30   708.38   724.70   727.17   728.83
eigval :      763.13   772.34   778.04   780.03   795.86   798.75
eigval :      811.27   815.45   822.69   823.75   854.99   857.07
eigval :      859.30   865.66   868.23   875.24   885.83   889.73
eigval :      901.49   904.80   910.50   912.00   912.41   915.32
eigval :      915.77   917.47   919.83   921.32   921.42   924.33
eigval :      928.30   939.89   967.09   996.55  1020.34  1032.28
eigval :     1062.76  1080.07  1082.50  1084.80  1087.83  1095.72
eigval :     1096.98  1111.60  1115.25  1116.11  1119.21  1142.19
eigval :     1145.63  1164.88  1171.79  1177.89  1181.26  1195.46
eigval :     1201.74  1203.92  1204.02  1204.63  1223.00  1234.92
eigval :     1237.74  1238.42  1243.60  1249.31  1252.46  1260.80
eigval :     1261.95  1262.62  1280.21  1282.33  1284.89  1286.30
eigval :     1299.49  1300.62  1309.25  1312.66  1318.07  1338.21
eigval :     1343.97  1353.55  1368.07  1372.59  1376.39  1391.53
eigval :     1407.89  1411.53  1415.79  1419.16  1439.64  1445.11
eigval :     1457.00  1462.13  1464.97  1472.66  1475.88  1486.78
eigval :     1505.51  1515.19  1522.40  1539.68  1540.89  1544.27
eigval :     1556.89  1564.58  1567.29  1571.30  1573.39  1575.03
eigval :     1586.41  1588.20  3047.06  3047.58  3049.36  3049.68
eigval :     3076.66  3084.53  3085.29  3085.68  3087.42  3088.18
eigval :     3088.72  3090.30  3090.94  3093.93  3094.88  3095.29
eigval :     3100.17  3100.47  3101.93  3103.25  3110.26  3111.27
eigval :     3111.72  3114.49  3114.96

   temp. (K)  partition function   enthalpy   heat capacity  entropy
                                   cal/mol     cal/K/mol   cal/K/mol   J/K/mol
 298.15  VIB  0.152E+17            21135.086    135.834    130.877
         ROT  0.100E+09              888.752      2.981     39.595
         INT  0.153E+25            22023.838    138.815    170.472
         TR   0.148E+29             1481.254      4.968     45.115
         TOT                       23505.0924   143.7828   215.5869   902.0154

       T/K    H(0)-H(T)+PV         H(T)/Eh          T*S/Eh         G(T)/Eh
   ------------------------------------------------------------------------
    298.15    0.374577E-01    0.577021E+00    0.102432E+00    0.474589E+00
   ------------------------------------------------------------------------

         :::::::::::::::::::::::::::::::::::::::::::::::::::::
         ::                  THERMODYNAMIC                  ::
         :::::::::::::::::::::::::::::::::::::::::::::::::::::
         :: total free energy        -120.950945941130 Eh   ::
         ::.................................................::
         :: total energy             -121.425534507197 Eh   ::
         :: zero point energy           0.539563087960 Eh   ::
         :: G(RRHO) w/o ZPVE           -0.064974521894 Eh   ::
         :: G(RRHO) contrib.            0.474588566066 Eh   ::
         :::::::::::::::::::::::::::::::::::::::::::::::::::::

           -------------------------------------------------
          | TOTAL ENERGY             -121.425534507197 Eh   |
          | TOTAL ENTHALPY           -120.848513670271 Eh   |
          | TOTAL FREE ENERGY        -120.950945941130 Eh   |
          | GRADIENT NORM               0.000070533133 Eh/α |
          | HOMO-LUMO GAP               0.835221411639 eV   |
           -------------------------------------------------

 * finished run on 2025/08/22 at 13:03:44.327
