   * xtb version 6.7.1 (edcfbbe) compiled by 'albert@albert-system' on 2024-07-22

   ID    Z sym.   atoms
    1    6 C      1-5, 7-22, 24-39, 41-47, 49-76
    2    7 N      6, 23, 40, 48
    3    1 H      77-118

          program call               : xtb data2507/gas/N-BPyIA/N-BPyIA_gas_S0_crest.xyz --gfn 2 --ohess vtight --parallel 40 --molden --ceasefiles --namespace data2507/gas/N-BPyIA/N-BPyIA_gas_S0_finalOpt
          :  Hamiltonian                  GFN2-xTB          :
 * total energy  :  -187.4536930 Eh     change       -0.1051623E-07 Eh
 * total energy  :  -187.4536953 Eh     change       -0.2327756E-05 Eh
 * total energy  :  -187.4536978 Eh     change       -0.2520346E-05 Eh
 * total energy  :  -187.4537026 Eh     change       -0.4784074E-05 Eh
 * total energy  :  -187.4537046 Eh     change       -0.1999409E-05 Eh
 * total energy  :  -187.4537067 Eh     change       -0.2108149E-05 Eh
 * total energy  :  -187.4537091 Eh     change       -0.2393210E-05 Eh
 * total energy  :  -187.4537113 Eh     change       -0.2257097E-05 Eh
 * total energy  :  -187.4537135 Eh     change       -0.2103804E-05 Eh
 * total energy  :  -187.4537158 Eh     change       -0.2376879E-05 Eh
 * total energy  :  -187.4537417 Eh     change       -0.4685922E-06 Eh
 * total energy  :  -187.4537421 Eh     change       -0.4287288E-06 Eh
 * total energy  :  -187.4537425 Eh     change       -0.3863506E-06 Eh
 * total energy  :  -187.4537429 Eh     change       -0.3814715E-06 Eh
 * total energy  :  -187.4537433 Eh     change       -0.4166753E-06 Eh
 * total energy  :  -187.4537438 Eh     change       -0.5118638E-06 Eh
 * total energy  :  -187.4537444 Eh     change       -0.5709171E-06 Eh
 * total energy  :  -187.4537451 Eh     change       -0.6899857E-06 Eh
 * total energy  :  -187.4537451 Eh     change       -0.7665932E-08 Eh
   *** GEOMETRY OPTIMIZATION CONVERGED AFTER 44 ITERATIONS ***

 final structure:
================
118
 xtb: 6.7.1 (edcfbbe)
C            5.92220371388496        5.56151432513708       -0.63202545244400
C            5.32116805945165        4.61266707165962        0.17773146128210
C            5.89560097805436        3.36556983112672        0.33950864884073
C            7.08102115825264        3.04921839329829       -0.32206362432214
C            7.73000845051372        1.75231558895280       -0.20354264121887
N            9.02990432814974        1.59415812638942       -0.18464136481621
C            9.24550335850471        0.25934554047711       -0.05761858600323
C           10.49359840361397       -0.42087691590977        0.03709120116782
C           11.71636015613475        0.23983996271981        0.02092603566921
C           12.89584304958552       -0.47626699973022        0.13343550721162
C           12.86746185540929       -1.85085950626952        0.25922410793189
C           11.65585691469543       -2.54782406179224        0.27316277035808
C           11.61380781355065       -3.96737973122778        0.38999329036648
C           10.43762280249426       -4.63312837238786        0.37686538798817
C            9.19624727080870       -3.94283594978323        0.25195492639603
C            7.98527829422915       -4.63911451106015        0.21138905217816
C            6.79226895012671       -3.96428740466694        0.06424603595887
C            6.77083840605627       -2.58240259090192       -0.01786762731780
C            7.95140533947455       -1.84494502648974        0.04869895426987
C            9.19696862014567       -2.52908409572679        0.15905556877861
C           10.43839298680173       -1.83152211754555        0.16211458819725
C            8.02917449430048       -0.42380120961413       -0.01223160842148
N            7.06287479733692        0.55106156552821       -0.09806369060246
C            5.66250943018067        0.41272381176815       -0.10058895793105
C            4.93824879877062        0.80324979487046       -1.22072310463775
C            3.55842522373218        0.75243822526398       -1.19701469051783
C            2.88530774555855        0.30834368523675       -0.06283241040209
C            1.40886651541618        0.30215511515092       -0.02430113219060
C            0.71252447970835       -0.91370549843990       -0.00286101546303
C            1.38530236041036       -2.16305883890589       -0.05285181425584
C            0.69750830170674       -3.33630326359664       -0.01360101469247
C           -0.70852622596652       -3.33367863010366        0.08213446428985
C           -1.39254320238499       -2.15794030869158        0.11146446880509
C           -0.71568076232467       -0.91123997442162        0.05135732735238
C           -1.40828207058804        0.30685657417654        0.06198342625006
C           -2.88484239422333        0.31822251143213        0.09504964281489
C           -3.61622705417325       -0.10004794826517       -1.01367355575844
C           -4.99545849896544       -0.03837967182956       -1.00912519165484
C           -5.66155766169197        0.43586598992091        0.11725547901747
N           -7.06119623824467        0.58010696879009        0.10440193055037
C           -7.72537879572219        1.78438292317940        0.19170995193609
C           -7.07264921506285        3.07938304711950        0.31165876166426
C           -7.68931935767183        4.05547930777909        1.09446917809677
C           -7.10789941101922        5.29846595860480        1.24908611979067
C           -5.90632795421873        5.58796147778023        0.62239438915741
C           -5.30242197004832        4.63389547980317       -0.17906002447385
C           -5.88047286212913        3.38850020960200       -0.34106727034448
N           -9.02540009345575        1.63078275713905        0.15454909033503
C           -9.24404390731488        0.29585284439211        0.03287560402572
C          -10.49263636236333       -0.38101221878905       -0.07836062130807
C          -11.71332679552207        0.28364836803572       -0.08844461772349
C          -12.89299748210828       -0.42947246835150       -0.21689431587856
C          -12.86699520845446       -1.80500853661941       -0.33244218021346
C          -11.65763087773468       -2.50589590868927       -0.32034793626851
C          -11.61825796548650       -3.92638376689565       -0.42649561475163
C          -10.44477243479001       -4.59592093039448       -0.38784404727027
C           -9.20346883832607       -3.90876712818515       -0.24618344642559
C           -7.99563640258821       -4.60845415316187       -0.17903867020301
C           -6.80321000474678       -3.93633409594427       -0.01547455097284
C           -6.77863328807144       -2.55392934022592        0.05616282236842
C           -7.95546103009014       -1.81347063514835       -0.03749683142261
C           -9.20117673684165       -2.49437965014183       -0.16382621148819
C          -10.43994634818124       -1.79269603319452       -0.19307525947730
C           -8.02966006459940       -0.39174080431898        0.01072177920439
C           -4.94161136237095        0.83046213587457        1.23865932580742
C           -3.56185735960290        0.77285207715354        1.22268577547674
C           -0.71233424638572        1.52407030491069        0.03139164372402
C           -1.38754142642276        2.77345882759275        0.01487414236346
C           -0.69861835111569        3.94671766363993        0.00215532204878
C            0.71042866223406        3.94455381071805        0.00760909748948
C            1.39572205395463        2.76909679227456        0.00405576009020
C            0.71666665988719        1.52170585769444       -0.00266846298216
C            3.62068281440195       -0.10543354776904        1.04490764441078
C            5.00024410519850       -0.05020396881764        1.03267244584627
C            7.69515103198138        4.02027382979811       -1.11320174686268
C            7.11754960408794        5.26506831931294       -1.26732604175421
H            5.46658280027411        6.53252943771336       -0.75824258009008
H            4.40134107924022        4.84611756051758        0.69454838785761
H            5.43056001612169        2.65029487037943        1.00108625174504
H           11.71849733797917        1.31420567922742       -0.07631587508588
H           13.84305542114112        0.04334725338468        0.12295223244422
H           13.79000764567922       -2.40749453131409        0.34569132745492
H           12.55030316562316       -4.49921823758447        0.48275145884403
H           10.41045004657094       -5.71081417681951        0.45715915716124
H            7.99649119975953       -5.71710416390580        0.28477544536960
H            5.86301179796875       -4.51329441466398        0.01251441377366
H            5.82630309448471       -2.07777118240726       -0.14634436588987
H            5.46191153592909        1.15733825517742       -2.09611258011004
H            2.99184452529633        1.06127137774221       -2.06294251667255
H            2.46262762573789       -2.16644851185853       -0.12663794358087
H            1.22299073521003       -4.27900671479968       -0.05236269812320
H           -1.23697170050711       -4.27436907116807        0.12867089504420
H           -2.46990422273783       -2.15708950555127        0.18497592198453
H           -3.09463680964289       -0.45497725131338       -1.89041726300985
H           -5.56471321762466       -0.34517524347282       -1.87458575327396
H           -8.62537496586828        3.81550640698670        1.57410370938042
H           -7.59089634567833        6.04523567730758        1.86190326678078
H           -5.44797058072963        6.55766302059280        0.74879777215909
H           -4.37752980988140        4.86190572837245       -0.68921617695503
H           -5.41295409181635        2.66877000944392       -0.99608014381479
H          -11.71366468178589        1.35869648550584        0.00100514597763
H          -13.83850956763691        0.09324139375199       -0.22696837231234
H          -13.78973065097906       -2.35930043323326       -0.43108282709790
H          -12.55477060494117       -4.45580015702723       -0.53204319834212
H          -10.41984425331997       -5.67424196605731       -0.45989500831739
H           -8.00899725286120       -5.68691904252670       -0.24464616565438
H           -5.87690974401854       -4.48791195357163        0.05747450009370
H           -5.83500843482253       -2.05111309008466        0.19800607722419
H           -5.46825859888846        1.19289681652703        2.10882243067761
H           -2.99842305253038        1.08471531861317        2.08958210166180
H           -2.46744343716732        2.77906603191581        0.01313782529621
H           -1.22612046274945        4.88914238889378       -0.00799350138498
H            1.24082030054047        4.88540032691027        0.01041280846826
H            2.47564351138696        2.77136390405735        0.00589594294248
H            3.10215852345941       -0.45190004077533        1.92685677162059
H            5.57256482983793       -0.35330894372233        1.89742041754023
H            8.62633914946088        3.77477421342783       -1.59944352510880
H            7.59864238220201        6.00784697659091       -1.88646007977067

          :  Hamiltonian                  GFN2-xTB          :
         :: gradient norm              0.000060511830 Eh/a0 ::
         :: HOMO-LUMO gap              1.788267090550 eV    ::
         :: SCC energy              -191.030009725619 Eh    ::
         :: -> dispersion             -0.188958300091 Eh    ::
         :: repulsion energy           3.576264639236 Eh    ::

    * Orbital Energies and Occupations

         #    Occupation            Energy/Eh            Energy/eV
      -------------------------------------------------------------
         1        2.0000           -0.6869721             -18.6935
       ...           ...                  ...                  ...
       163        2.0000           -0.4066117             -11.0645
       164        2.0000           -0.4066082             -11.0644
       165        2.0000           -0.4021680             -10.9435
       166        2.0000           -0.4011905             -10.9169
       167        2.0000           -0.3883965             -10.5688
       168        2.0000           -0.3882947             -10.5660
       169        2.0000           -0.3830795             -10.4241
       170        2.0000           -0.3829679             -10.4211
       171        2.0000           -0.3760708             -10.2334
       172        2.0000           -0.3756866             -10.2230
       173        2.0000           -0.3691931             -10.0463
       174        2.0000           -0.3571462              -9.7184
       175        2.0000           -0.3571298              -9.7180 (HOMO)
       176                         -0.2914122              -7.9297 (LUMO)
       177                         -0.2698792              -7.3438
       178                         -0.2697764              -7.3410
       179                         -0.2548510              -6.9348
       180                         -0.2547459              -6.9320
       181                         -0.2453013              -6.6750
       182                         -0.2451952              -6.6721
       183                         -0.2446700              -6.6578
       184                         -0.2444894              -6.6529
       185                         -0.2410010              -6.5580
       186                         -0.2350615              -6.3963
       ...                                ...                  ...
       346                          0.7352055              20.0060
      -------------------------------------------------------------
                  HL-Gap            0.0657176 Eh            1.7883 eV

     #   Z          covCN         q      C6AA      α(0)
     1   6 C        2.920    -0.029    28.721     8.788
     2   6 C        2.919    -0.029    28.724     8.789
     3   6 C        2.922    -0.034    28.851     8.808
     4   6 C        2.974     0.003    27.948     8.672
     5   6 C        3.191     0.126    24.780     8.119
     6   7 N        1.895    -0.290    28.360     7.895
     7   6 C        3.206     0.057    26.146     8.327
     8   6 C        2.979     0.002    27.967     8.675
     9   6 C        2.919    -0.032    28.792     8.799
    10   6 C        2.915    -0.030    28.744     8.792
    11   6 C        2.921    -0.038    28.947     8.823
    12   6 C        2.983     0.012    27.747     8.641
    13   6 C        2.914    -0.035    28.876     8.812
    14   6 C        2.915    -0.037    28.932     8.820
    15   6 C        2.983     0.013    27.726     8.637
    16   6 C        2.921    -0.039    28.974     8.827
    17   6 C        2.914    -0.032    28.793     8.799
    18   6 C        2.918    -0.042    29.043     8.837
    19   6 C        2.973    -0.002    28.083     8.692
    20   6 C        2.995    -0.002    28.056     8.689
    21   6 C        2.995    -0.004    28.112     8.697
    22   6 C        3.074     0.020    27.492     8.597
    23   7 N        2.843    -0.044    22.095     6.981
    24   6 C        2.914     0.066    26.517     8.444
    25   6 C        2.920    -0.039    28.963     8.825
    26   6 C        2.925    -0.030    28.740     8.792
    27   6 C        2.978     0.016    27.640     8.624
    28   6 C        2.978    -0.006    28.176     8.707
    29   6 C        2.984     0.007    27.858     8.658
    30   6 C        2.917    -0.034    28.842     8.807
    31   6 C        2.914    -0.029    28.715     8.787
    32   6 C        2.914    -0.029    28.715     8.787
    33   6 C        2.917    -0.034    28.841     8.807
    34   6 C        2.984     0.007    27.858     8.658
    35   6 C        2.978    -0.006    28.176     8.707
    36   6 C        2.978     0.016    27.641     8.624
    37   6 C        2.924    -0.031    28.777     8.797
    38   6 C        2.920    -0.038    28.940     8.822
    39   6 C        2.914     0.066    26.518     8.444
    40   7 N        2.843    -0.044    22.094     6.981
    41   6 C        3.191     0.126    24.780     8.119
    42   6 C        2.974     0.003    27.947     8.672
    43   6 C        2.928    -0.027    28.677     8.782
    44   6 C        2.919    -0.027    28.677     8.782
    45   6 C        2.920    -0.029    28.721     8.788
    46   6 C        2.919    -0.029    28.724     8.789
    47   6 C        2.922    -0.034    28.850     8.808
    48   7 N        1.895    -0.290    28.359     7.895
    49   6 C        3.206     0.057    26.148     8.328
    50   6 C        2.979     0.002    27.967     8.675
    51   6 C        2.919    -0.032    28.792     8.799
    52   6 C        2.915    -0.030    28.744     8.792
    53   6 C        2.921    -0.038    28.947     8.823
    54   6 C        2.983     0.012    27.747     8.641
    55   6 C        2.914    -0.035    28.876     8.812
    56   6 C        2.914    -0.037    28.932     8.820
    57   6 C        2.983     0.013    27.726     8.637
    58   6 C        2.921    -0.039    28.974     8.827
    59   6 C        2.914    -0.032    28.793     8.799
    60   6 C        2.918    -0.042    29.042     8.837
    61   6 C        2.973    -0.002    28.083     8.692
    62   6 C        2.995    -0.002    28.056     8.689
    63   6 C        2.995    -0.004    28.112     8.697
    64   6 C        3.074     0.020    27.492     8.597
    65   6 C        2.920    -0.039    28.964     8.826
    66   6 C        2.925    -0.030    28.741     8.792
    67   6 C        2.984     0.007    27.859     8.658
    68   6 C        2.917    -0.035    28.862     8.810
    69   6 C        2.914    -0.029    28.715     8.787
    70   6 C        2.914    -0.029    28.715     8.787
    71   6 C        2.917    -0.035    28.862     8.810
    72   6 C        2.984     0.007    27.859     8.658
    73   6 C        2.924    -0.031    28.778     8.797
    74   6 C        2.919    -0.038    28.941     8.822
    75   6 C        2.928    -0.027    28.678     8.782
    76   6 C        2.919    -0.027    28.677     8.782
    77   1 H        0.926     0.033     2.541     2.493
    78   1 H        0.926     0.030     2.582     2.513
    79   1 H        0.926     0.025     2.655     2.548
    80   1 H        0.926     0.050     2.323     2.383
    81   1 H        0.926     0.031     2.578     2.511
    82   1 H        0.926     0.030     2.591     2.517
    83   1 H        0.926     0.031     2.575     2.509
    84   1 H        0.926     0.030     2.587     2.515
    85   1 H        0.926     0.029     2.597     2.520
    86   1 H        0.926     0.026     2.650     2.546
    87   1 H        0.926     0.023     2.693     2.566
    88   1 H        0.926     0.040     2.447     2.446
    89   1 H        0.926     0.040     2.449     2.447
    90   1 H        0.926     0.031     2.577     2.510
    91   1 H        0.926     0.032     2.559     2.502
    92   1 H        0.926     0.032     2.559     2.502
    93   1 H        0.926     0.031     2.577     2.510
    94   1 H        0.926     0.040     2.449     2.447
    95   1 H        0.926     0.043     2.406     2.426
    96   1 H        0.926     0.052     2.298     2.371
    97   1 H        0.926     0.036     2.497     2.471
    98   1 H        0.926     0.033     2.541     2.493
    99   1 H        0.926     0.030     2.581     2.512
   100   1 H        0.926     0.025     2.655     2.548
   101   1 H        0.926     0.050     2.323     2.383
   102   1 H        0.926     0.031     2.578     2.511
   103   1 H        0.926     0.030     2.591     2.517
   104   1 H        0.926     0.031     2.575     2.509
   105   1 H        0.926     0.030     2.587     2.515
   106   1 H        0.926     0.029     2.597     2.520
   107   1 H        0.926     0.026     2.650     2.546
   108   1 H        0.926     0.023     2.694     2.567
   109   1 H        0.926     0.040     2.447     2.446
   110   1 H        0.926     0.040     2.449     2.447
   111   1 H        0.926     0.032     2.561     2.503
   112   1 H        0.926     0.031     2.573     2.509
   113   1 H        0.926     0.031     2.573     2.508
   114   1 H        0.926     0.032     2.561     2.503
   115   1 H        0.926     0.040     2.449     2.447
   116   1 H        0.926     0.043     2.405     2.425
   117   1 H        0.926     0.052     2.296     2.370
   118   1 H        0.926     0.036     2.498     2.471

molecular dipole:
                 x           y           z       tot (Debye)
 q only:       -0.000       0.269       0.008
   full:       -0.001      -0.307       0.014       0.781

 projected vibrational frequencies (cm⁻¹)
eigval :       -0.00    -0.00    -0.00    -0.00     0.00     0.00
eigval :        5.28     5.56     6.72    11.18    15.05    17.67
eigval :       23.12    29.61    34.24    35.05    36.82    42.63
eigval :       54.40    59.04    67.43    68.50    69.31    71.20
eigval :       74.53    84.41    89.58    99.04   113.92   120.62
eigval :      121.37   130.83   131.90   144.74   163.94   170.75
eigval :      182.35   183.89   200.12   207.44   208.84   211.62
eigval :      212.65   213.47   225.66   226.16   233.38   249.32
eigval :      251.62   258.49   279.60   282.66   301.23   329.12
eigval :      340.81   348.75   352.12   353.27   354.05   372.32
eigval :      374.65   374.73   378.03   378.12   388.28   389.68
eigval :      394.76   402.19   403.67   404.95   412.02   421.26
eigval :      426.63   444.69   447.72   450.25   453.54   454.22
eigval :      458.01   458.67   480.53   481.08   484.00   488.20
eigval :      490.32   494.32   507.73   512.35   532.17   534.99
eigval :      535.89   536.99   555.92   555.92   569.64   569.88
eigval :      578.94   583.74   585.59   587.25   588.21   592.50
eigval :      593.85   597.14   612.90   622.17   630.62   638.49
eigval :      640.40   646.16   656.74   659.64   661.39   670.47
eigval :      676.18   676.54   680.93   682.35   682.49   693.53
eigval :      694.14   698.82   700.29   704.08   707.49   709.20
eigval :      715.47   735.16   740.70   752.48   752.51   756.11
eigval :      763.42   763.53   772.12   773.45   774.65   775.48
eigval :      776.10   776.41   799.55   799.60   818.77   822.47
eigval :      839.96   840.00   872.16   874.35   874.40   877.19
eigval :      877.62   878.32   879.41   880.29   891.52   891.53
eigval :      893.02   893.52   898.24   903.36   903.42   913.51
eigval :      914.70   915.14   916.46   917.81   918.28   918.42
eigval :      920.95   920.97   921.57   922.05   922.30   925.88
eigval :      925.92   927.32   928.96   929.84   929.84   930.74
eigval :      931.39   932.17   932.28   933.02   969.44   971.32
eigval :      994.96   996.69   996.84   999.99  1032.17  1034.35
eigval :     1081.49  1082.53  1082.71  1084.64  1096.07  1096.14
eigval :     1109.96  1110.01  1121.15  1121.17  1123.72  1123.85
eigval :     1130.65  1130.66  1135.30  1138.26  1138.28  1145.94
eigval :     1160.11  1160.23  1181.01  1181.27  1181.50  1181.90
eigval :     1182.29  1185.36  1185.46  1186.11  1189.03  1189.52
eigval :     1199.76  1200.04  1202.92  1203.35  1212.09  1218.53
eigval :     1224.18  1224.21  1229.79  1236.10  1237.50  1246.15
eigval :     1247.07  1259.84  1261.42  1264.81  1268.64  1280.25
eigval :     1280.25  1299.92  1300.07  1301.98  1302.23  1306.76
eigval :     1307.00  1321.55  1321.69  1324.75  1324.77  1325.67
eigval :     1337.90  1339.15  1350.18  1362.23  1367.29  1371.82
eigval :     1378.55  1379.89  1385.20  1394.04  1396.03  1398.99
eigval :     1399.24  1400.29  1401.62  1402.75  1403.25  1419.34
eigval :     1420.51  1420.77  1429.31  1431.99  1432.18  1445.57
eigval :     1455.42  1456.91  1472.46  1477.29  1481.28  1482.04
eigval :     1482.57  1497.84  1500.37  1510.76  1511.13  1527.62
eigval :     1531.33  1532.78  1532.84  1541.56  1541.67  1542.79
eigval :     1560.90  1561.10  1563.83  1563.92  1581.28  1581.32
eigval :     1582.90  1582.94  1589.57  1589.59  1595.90  1595.99
eigval :     1597.96  1598.02  1608.58  1610.36  1610.40  1622.84
eigval :     3064.18  3064.19  3069.23  3069.23  3070.67  3070.70
eigval :     3072.39  3072.43  3075.54  3076.68  3077.99  3078.01
eigval :     3079.46  3079.48  3081.22  3081.53  3081.74  3081.84
eigval :     3081.85  3082.38  3083.32  3083.40  3085.30  3085.61
eigval :     3089.76  3089.87  3090.59  3091.12  3092.74  3092.90
eigval :     3094.83  3095.54  3095.72  3096.26  3096.53  3096.99
eigval :     3106.07  3106.21  3106.48  3106.53  3109.21  3109.60

   temp. (K)  partition function   enthalpy   heat capacity  entropy
                                   cal/mol     cal/K/mol   cal/K/mol   J/K/mol
 298.15  VIB  0.479E+28            33871.113    216.083    212.155
         ROT  0.398E+09              888.752      2.981     42.332
         INT  0.191E+37            34759.865    219.064    254.487
         TR   0.289E+29             1481.254      4.968     46.448
         TOT                       36241.1189   224.0320   300.9356  1259.1146

       T/K    H(0)-H(T)+PV         H(T)/Eh          T*S/Eh         G(T)/Eh
   ------------------------------------------------------------------------
    298.15    0.577539E-01    0.954364E+00    0.142984E+00    0.811380E+00
   ------------------------------------------------------------------------

         :::::::::::::::::::::::::::::::::::::::::::::::::::::
         ::                  THERMODYNAMIC                  ::
         :::::::::::::::::::::::::::::::::::::::::::::::::::::
         :: total free energy        -186.642365462521 Eh   ::
         ::.................................................::
         :: total energy             -187.453745086380 Eh   ::
         :: zero point energy           0.896609944960 Eh   ::
         :: G(RRHO) w/o ZPVE           -0.085230321101 Eh   ::
         :: G(RRHO) contrib.            0.811379623859 Eh   ::
         :::::::::::::::::::::::::::::::::::::::::::::::::::::

           -------------------------------------------------
          | TOTAL ENERGY             -187.453745086380 Eh   |
          | TOTAL ENTHALPY           -186.499381242250 Eh   |
          | TOTAL FREE ENERGY        -186.642365462521 Eh   |
          | GRADIENT NORM               0.000060499733 Eh/α |
          | HOMO-LUMO GAP               1.788267682070 eV   |
           -------------------------------------------------

 * finished run on 2025/09/08 at 10:25:01.740
