   * xtb version 6.7.1 (edcfbbe) compiled by 'albert@albert-system' on 2024-07-22

   ID    Z sym.   atoms
    1    6 C      1-5, 7-22, 24-39, 41-47, 49-76
    2    7 N      6, 23, 40, 48
    3    1 H      77-118

          program call               : xtb data2507/gas/N-BPyIA/N-BPyIA.xyz --gfn 2 --ohess vtight --parallel 40 --molden --ceasefiles --namespace data2507/gas/N-BPyIA/N-BPyIA_gas_S0_preOpt
          :  Hamiltonian                  GFN2-xTB          :
 * total energy  :  -187.4183588 Eh     change       -0.5102748E-08 Eh
 * total energy  :  -187.4405368 Eh     change       -0.2217801E-01 Eh
 * total energy  :  -187.4470743 Eh     change       -0.6537515E-02 Eh
 * total energy  :  -187.4484340 Eh     change       -0.1359666E-02 Eh
 * total energy  :  -187.4491296 Eh     change       -0.6955915E-03 Eh
 * total energy  :  -187.4494756 Eh     change       -0.3460290E-03 Eh
 * total energy  :  -187.4498655 Eh     change       -0.3898306E-03 Eh
 * total energy  :  -187.4503457 Eh     change       -0.4802416E-03 Eh
 * total energy  :  -187.4508090 Eh     change       -0.4633360E-03 Eh
 * total energy  :  -187.4511804 Eh     change       -0.3713360E-03 Eh
 * total energy  :  -187.4536954 Eh     change       -0.1427313E-05 Eh
 * total energy  :  -187.4536969 Eh     change       -0.1480225E-05 Eh
 * total energy  :  -187.4536984 Eh     change       -0.1445385E-05 Eh
 * total energy  :  -187.4536997 Eh     change       -0.1345251E-05 Eh
 * total energy  :  -187.4537010 Eh     change       -0.1305566E-05 Eh
 * total energy  :  -187.4537024 Eh     change       -0.1365325E-05 Eh
 * total energy  :  -187.4537041 Eh     change       -0.1735786E-05 Eh
 * total energy  :  -187.4537065 Eh     change       -0.2342440E-05 Eh
 * total energy  :  -187.4537065 Eh     change       -0.7970328E-08 Eh
   *** GEOMETRY OPTIMIZATION CONVERGED AFTER 221 ITERATIONS ***

 final structure:
================
118
 xtb: 6.7.1 (edcfbbe)
C            5.88466800005661        5.50646177948601       -0.86874074325490
C            5.30281937309882        4.58340973319805       -0.01621743480510
C            5.88755137442016        3.34605482218684        0.17957774878788
C            7.06404320790763        3.01371343312880       -0.48995655228677
C            7.72145811831401        1.72459905033484       -0.33584207515863
N            9.02200370557073        1.57409670400530       -0.31454391896857
C            9.24482445439437        0.24470450102210       -0.14733339019368
C           10.49659062166534       -0.42515848491180       -0.03002041129167
C           11.71574403763869        0.24146258353864       -0.06589288049916
C           12.89889660797832       -0.46385294440639        0.07314691240002
C           12.87786921197155       -1.83358164539529        0.24504386352665
C           11.67012446070311       -2.53650539109168        0.27944080940505
C           11.63563748089837       -3.95159199669514        0.44348807006804
C           10.46326144775596       -4.62415020972894        0.44860721861974
C            9.21846837401885       -3.94549483931439        0.29681031758956
C            8.01163797774593       -4.64971094178560        0.27384498414404
C            6.81557014489698       -3.98697810325575        0.09904778776883
C            6.78655793995817       -2.60852159020362       -0.02673738795596
C            7.96245957522587       -1.86232586532191        0.02295209990012
C            9.21151333509519       -2.53547910503683        0.15842415521071
C           10.44899366264132       -1.83116677009626        0.14173081695249
C            8.03223037006796       -0.44314876646334       -0.07998100071691
N            7.06052006798546        0.52363476790090       -0.19373030350617
C            5.66090354998669        0.38031432028963       -0.18008674650718
C            4.92302918418764        0.75340798329221       -1.29735735166986
C            3.54364745188469        0.69910557027931       -1.25764546489375
C            2.88453728817144        0.26733132689356       -0.11067706154845
C            1.40833144729842        0.25699393998853       -0.05458991639606
C            0.71559261706380       -0.96064835867322       -0.02953547269091
C            1.39127421833373       -2.20775199164310       -0.09367750416152
C            0.70701904284176       -3.38301061055043       -0.05312989113627
C           -0.69789388663936       -3.38471431787131        0.05880918714761
C           -1.38469228107894       -2.21108617068493        0.10359098023059
C           -0.71179178643079       -0.96229686924243        0.04305786635710
C           -1.40727883679610        0.25375739706836        0.07041362902006
C           -2.88359044897235        0.26076182451054        0.12363270138255
C           -3.62847986730222       -0.13797997556359       -0.98318423913609
C           -5.00773541593110       -0.07950183013325       -0.95978222992838
C           -5.66036716805902        0.37020358660080        0.18434988345579
N           -7.06005040150232        0.51353321590238        0.19284853458248
C           -7.72086757201256        1.71515424696132        0.32978778346049
C           -7.06387590842538        3.00460417599713        0.48294711955691
C           -7.66218355279626        3.95246415624730        1.31305166098871
C           -7.07578910536123        5.18885627879736        1.49898959233914
C           -5.88791442213724        5.49968899647349        0.85667663362066
C           -5.30289679564359        4.57440206536660        0.00876057712951
C           -5.88584170950232        3.33577906571734       -0.18441434465970
N           -9.02139530621932        1.56535386290247        0.30373864920719
C           -9.24431517474309        0.23576598070660        0.13848746657530
C          -10.49608995301808       -0.43358016649951        0.01868111916606
C          -11.71488491957599        0.23396405307084        0.04897051478997
C          -12.89810835211729       -0.47106467872557       -0.09084524691028
C          -12.87745225230405       -1.84135339265360       -0.25833308025002
C          -11.67003337181754       -2.54506830340336       -0.28786413393517
C          -11.63590664437114       -3.96058538999547       -0.44820020276485
C          -10.46385203193758       -4.63372639472923       -0.44911911602525
C           -9.21905945442285       -3.95538046511679       -0.29585637053588
C           -8.01265292166301       -4.66016132584802       -0.26838015396722
C           -6.81667090225632       -3.99768560270218       -0.09196580167605
C           -6.78724260447015       -2.61899606929220        0.03117282688199
C           -7.96263981040026       -1.87231817715240       -0.02293386677707
C           -9.21169318278116       -2.54507561457845       -0.16051561474528
C          -10.44883976128121       -1.84007048467025       -0.14897616595322
C           -8.03187332872889       -0.45292485068258        0.07713908000364
C           -4.92642710841606        0.74429407746923        1.30387140288066
C           -3.54681850883296        0.69161867287491        1.26856785237238
C           -0.71498676400508        1.47282297511279        0.03669010283553
C           -1.39361804007229        2.72042968110211        0.03798830250810
C           -0.70786516025315        3.89545624478809        0.01894480469899
C            0.70112223233876        3.89699935608277       -0.00029206541938
C            1.38936785031649        2.72344194823638       -0.01939028579198
C            0.71335021304490        1.47442069217597       -0.01878976891283
C            3.63326802737120       -0.12972304974565        0.99410656646991
C            5.01239130015591       -0.06931706716022        0.96640628600089
C            7.65949820346812        3.95960985742180       -1.32433884467696
C            7.07143120981548        5.19484422377367       -1.51273002064467
H            5.42082647159874        6.46971231902767       -1.02165937489527
H            4.39014827990025        4.82986837542319        0.50714928518155
H            5.43814218570070        2.65108589616934        0.87300358282150
H           11.71222710060123        1.31198927683134       -0.19887420029008
H           13.84323229044061        0.06045257002647        0.04737908986354
H           13.80327726025230       -2.38178314062676        0.35237106610473
H           12.57478517884063       -4.47468723135442        0.55685329053491
H           10.44187227030384       -5.69873712426412        0.56436248198572
H            8.02858647456196       -5.72466573975798        0.38228336884729
H            5.88979618053408       -4.54285650232087        0.05990484375520
H            5.83988033888640       -2.11382192056523       -0.17649030371965
H            5.43569980364142        1.09725872072959       -2.18326374511802
H            2.96658428526144        0.99569365092954       -2.12091643943588
H            2.46775101014553       -2.20725347633882       -0.17958980193345
H            1.23439254124474       -4.32411049736050       -0.10341837311904
H           -1.22324176173792       -4.32711737268007        0.10579160181387
H           -2.46113414242007       -2.21326946552880        0.18988855781197
H           -3.11754032885854       -0.47498232159309       -1.87317268602644
H           -5.58719301378526       -0.36984762159736       -1.82414253815421
H           -8.58797355298210        3.69621302520276        1.80409805624498
H           -7.54421480086897        5.91362501429174        2.14844138336592
H           -5.42561467345754        6.46403471970255        1.00736083471290
H           -4.38926649384401        4.82015120621121       -0.51327358787490
H           -5.43394659094063        2.63896215086950       -0.87436551556222
H          -11.71098427082734        1.30491800424199        0.17846098334836
H          -13.84218240255550        0.05389324048917       -0.06910518604725
H          -13.80292925522412       -2.38935783337609       -0.36605187674595
H          -12.57506167549296       -4.48347903828976       -0.56246566383830
H          -10.44275263678962       -5.70857804218425       -0.56246573664800
H           -8.02989881383369       -5.73532729341650       -0.37467852504003
H           -5.89130800179808       -4.55399799552108       -0.04941896613834
H           -5.84070312716699       -2.12440606155318        0.18227898300409
H           -5.44227552774116        1.08786234466708        2.18805029383626
H           -2.97292478628514        0.98907881896761        2.13365860576116
H           -2.47342245215162        2.72276006899417        0.05512008292455
H           -1.23760444262698        4.83667979497100        0.02221884691070
H            1.22880749870758        4.83937458525428       -0.00353564242582
H            2.46917201882857        2.72794847456556       -0.03642924196559
H            3.12557733971161       -0.46729071020911        1.88573693389710
H            5.59493863650355       -0.35859406167826        1.82904690075007
H            8.58432280975826        3.70269117215214       -1.81684767270860
H            7.53761910194334        5.91807968046086       -2.16548684363424

          :  Hamiltonian                  GFN2-xTB          :
         :: gradient norm              0.000065465702 Eh/a0 ::
         :: HOMO-LUMO gap              1.794186362552 eV    ::
         :: SCC energy              -191.029983167300 Eh    ::
         :: -> dispersion             -0.188981852049 Eh    ::
         :: repulsion energy           3.576276696397 Eh    ::

    * Orbital Energies and Occupations

         #    Occupation            Energy/Eh            Energy/eV
      -------------------------------------------------------------
         1        2.0000           -0.6869948             -18.6941
       ...           ...                  ...                  ...
       163        2.0000           -0.4066461             -11.0654
       164        2.0000           -0.4066299             -11.0650
       165        2.0000           -0.4020524             -10.9404
       166        2.0000           -0.4010739             -10.9138
       167        2.0000           -0.3884199             -10.5694
       168        2.0000           -0.3883192             -10.5667
       169        2.0000           -0.3830871             -10.4243
       170        2.0000           -0.3829727             -10.4212
       171        2.0000           -0.3760953             -10.2341
       172        2.0000           -0.3757395             -10.2244
       173        2.0000           -0.3692370             -10.0475
       174        2.0000           -0.3571713              -9.7191
       175        2.0000           -0.3571591              -9.7188 (HOMO)
       176                         -0.2912240              -7.9246 (LUMO)
       177                         -0.2699282              -7.3451
       178                         -0.2698274              -7.3424
       179                         -0.2547889              -6.9332
       180                         -0.2547148              -6.9311
       181                         -0.2451800              -6.6717
       182                         -0.2450553              -6.6683
       183                         -0.2445566              -6.6547
       184                         -0.2443948              -6.6503
       185                         -0.2409434              -6.5564
       186                         -0.2350287              -6.3955
       ...                                ...                  ...
       346                          0.7351705              20.0050
      -------------------------------------------------------------
                  HL-Gap            0.0659351 Eh            1.7942 eV

     #   Z          covCN         q      C6AA      α(0)
     1   6 C        2.920    -0.029    28.721     8.788
     2   6 C        2.919    -0.029    28.722     8.789
     3   6 C        2.922    -0.034    28.845     8.807
     4   6 C        2.974     0.003    27.946     8.671
     5   6 C        3.191     0.126    24.776     8.118
     6   7 N        1.895    -0.290    28.358     7.895
     7   6 C        3.206     0.057    26.145     8.327
     8   6 C        2.979     0.002    27.967     8.675
     9   6 C        2.919    -0.032    28.792     8.799
    10   6 C        2.915    -0.030    28.744     8.792
    11   6 C        2.921    -0.038    28.946     8.823
    12   6 C        2.983     0.012    27.747     8.641
    13   6 C        2.914    -0.035    28.876     8.812
    14   6 C        2.915    -0.038    28.932     8.820
    15   6 C        2.983     0.013    27.726     8.637
    16   6 C        2.921    -0.039    28.974     8.827
    17   6 C        2.914    -0.032    28.794     8.799
    18   6 C        2.918    -0.042    29.042     8.837
    19   6 C        2.973    -0.002    28.082     8.692
    20   6 C        2.995    -0.002    28.057     8.689
    21   6 C        2.995    -0.004    28.112     8.697
    22   6 C        3.074     0.020    27.494     8.597
    23   7 N        2.842    -0.044    22.092     6.981
    24   6 C        2.914     0.066    26.520     8.445
    25   6 C        2.920    -0.039    28.965     8.826
    26   6 C        2.924    -0.030    28.742     8.792
    27   6 C        2.978     0.016    27.640     8.624
    28   6 C        2.978    -0.006    28.176     8.707
    29   6 C        2.984     0.007    27.858     8.658
    30   6 C        2.917    -0.034    28.840     8.806
    31   6 C        2.914    -0.029    28.714     8.787
    32   6 C        2.914    -0.029    28.715     8.787
    33   6 C        2.917    -0.034    28.840     8.806
    34   6 C        2.984     0.007    27.858     8.658
    35   6 C        2.978    -0.006    28.176     8.707
    36   6 C        2.978     0.016    27.640     8.624
    37   6 C        2.924    -0.031    28.777     8.797
    38   6 C        2.920    -0.038    28.941     8.822
    39   6 C        2.914     0.066    26.520     8.445
    40   7 N        2.842    -0.044    22.093     6.981
    41   6 C        3.192     0.126    24.775     8.118
    42   6 C        2.974     0.003    27.946     8.671
    43   6 C        2.928    -0.027    28.677     8.782
    44   6 C        2.919    -0.027    28.677     8.782
    45   6 C        2.920    -0.029    28.721     8.788
    46   6 C        2.919    -0.029    28.723     8.789
    47   6 C        2.922    -0.034    28.845     8.807
    48   7 N        1.895    -0.290    28.358     7.895
    49   6 C        3.206     0.057    26.144     8.327
    50   6 C        2.979     0.002    27.967     8.675
    51   6 C        2.919    -0.032    28.792     8.799
    52   6 C        2.915    -0.030    28.744     8.792
    53   6 C        2.921    -0.038    28.946     8.823
    54   6 C        2.983     0.012    27.747     8.641
    55   6 C        2.914    -0.035    28.876     8.812
    56   6 C        2.915    -0.038    28.932     8.820
    57   6 C        2.983     0.013    27.726     8.637
    58   6 C        2.921    -0.039    28.974     8.827
    59   6 C        2.914    -0.032    28.794     8.799
    60   6 C        2.918    -0.042    29.042     8.837
    61   6 C        2.973    -0.002    28.082     8.692
    62   6 C        2.995    -0.002    28.057     8.689
    63   6 C        2.995    -0.004    28.112     8.697
    64   6 C        3.074     0.020    27.494     8.597
    65   6 C        2.920    -0.039    28.965     8.826
    66   6 C        2.924    -0.030    28.742     8.792
    67   6 C        2.984     0.007    27.860     8.658
    68   6 C        2.917    -0.035    28.860     8.810
    69   6 C        2.914    -0.029    28.714     8.787
    70   6 C        2.914    -0.029    28.714     8.787
    71   6 C        2.917    -0.035    28.860     8.809
    72   6 C        2.984     0.007    27.860     8.658
    73   6 C        2.924    -0.031    28.778     8.797
    74   6 C        2.920    -0.038    28.941     8.822
    75   6 C        2.928    -0.027    28.677     8.782
    76   6 C        2.919    -0.027    28.677     8.782
    77   1 H        0.926     0.033     2.540     2.492
    78   1 H        0.926     0.030     2.581     2.512
    79   1 H        0.926     0.025     2.656     2.549
    80   1 H        0.926     0.050     2.322     2.383
    81   1 H        0.926     0.031     2.578     2.511
    82   1 H        0.926     0.030     2.591     2.517
    83   1 H        0.926     0.031     2.575     2.509
    84   1 H        0.926     0.030     2.587     2.515
    85   1 H        0.926     0.029     2.597     2.520
    86   1 H        0.926     0.026     2.650     2.546
    87   1 H        0.926     0.023     2.691     2.565
    88   1 H        0.926     0.040     2.448     2.447
    89   1 H        0.926     0.040     2.451     2.448
    90   1 H        0.926     0.031     2.578     2.511
    91   1 H        0.926     0.032     2.559     2.502
    92   1 H        0.926     0.032     2.559     2.502
    93   1 H        0.926     0.031     2.578     2.511
    94   1 H        0.926     0.040     2.451     2.448
    95   1 H        0.926     0.043     2.405     2.425
    96   1 H        0.926     0.052     2.300     2.372
    97   1 H        0.926     0.036     2.497     2.471
    98   1 H        0.926     0.033     2.540     2.492
    99   1 H        0.926     0.030     2.581     2.512
   100   1 H        0.926     0.025     2.656     2.549
   101   1 H        0.926     0.050     2.322     2.383
   102   1 H        0.926     0.031     2.578     2.511
   103   1 H        0.926     0.030     2.591     2.517
   104   1 H        0.926     0.031     2.575     2.509
   105   1 H        0.926     0.030     2.587     2.515
   106   1 H        0.926     0.029     2.597     2.520
   107   1 H        0.926     0.026     2.650     2.546
   108   1 H        0.926     0.023     2.691     2.566
   109   1 H        0.926     0.040     2.448     2.447
   110   1 H        0.926     0.040     2.451     2.448
   111   1 H        0.926     0.032     2.562     2.503
   112   1 H        0.926     0.031     2.574     2.509
   113   1 H        0.926     0.031     2.574     2.509
   114   1 H        0.926     0.032     2.563     2.503
   115   1 H        0.926     0.040     2.451     2.448
   116   1 H        0.926     0.043     2.404     2.425
   117   1 H        0.926     0.052     2.300     2.372
   118   1 H        0.926     0.036     2.497     2.471

molecular dipole:
                 x           y           z       tot (Debye)
 q only:        0.000       0.261       0.003
   full:        0.000      -0.314       0.004       0.799

 projected vibrational frequencies (cm⁻¹)
eigval :       -0.00    -0.00    -0.00    -0.00     0.00     0.00
eigval :        5.32     5.59     6.89    11.50    14.56    17.71
eigval :       23.11    29.80    34.22    35.10    36.72    42.70
eigval :       54.62    58.82    67.24    68.27    69.40    70.93
eigval :       74.28    84.72    89.85    98.93   112.75   120.70
eigval :      121.34   131.27   132.23   144.46   163.72   170.80
eigval :      181.99   183.70   199.84   207.40   208.81   211.47
eigval :      212.82   213.67   225.54   226.04   233.21   249.27
eigval :      252.13   258.46   279.54   282.65   301.07   328.55
eigval :      340.17   348.82   351.85   353.20   354.06   372.02
eigval :      374.68   374.73   378.11   378.23   388.17   390.13
eigval :      394.85   402.25   403.58   404.99   411.99   421.46
eigval :      426.52   444.47   447.28   450.24   453.58   454.25
eigval :      457.96   458.58   480.41   481.17   484.10   488.25
eigval :      490.33   494.58   507.88   512.26   532.16   534.96
eigval :      535.95   537.08   555.94   555.96   569.62   569.85
eigval :      578.88   583.67   585.58   587.22   588.17   592.53
eigval :      593.99   597.11   612.86   622.24   630.52   638.52
eigval :      640.38   646.24   656.77   659.88   661.66   670.45
eigval :      676.29   676.67   681.00   682.37   682.53   693.42
eigval :      694.24   698.78   700.36   704.16   707.41   709.20
eigval :      715.38   735.17   740.67   752.48   752.51   756.09
eigval :      763.43   763.55   772.13   773.40   774.57   775.60
eigval :      775.85   776.50   799.62   799.66   818.55   822.33
eigval :      840.01   840.04   872.32   874.18   874.29   877.08
eigval :      877.70   878.17   879.66   880.37   891.54   891.55
eigval :      892.99   893.50   898.25   903.45   903.51   913.50
eigval :      914.68   915.18   916.33   917.76   918.32   918.39
eigval :      920.87   920.93   921.27   922.05   922.16   925.89
eigval :      925.92   927.41   928.66   929.82   929.82   930.55
eigval :      931.07   932.12   932.25   933.06   969.45   971.33
eigval :      994.99   996.68   996.84  1000.01  1032.17  1034.36
eigval :     1081.15  1082.44  1082.66  1084.43  1095.95  1096.01
eigval :     1109.94  1109.99  1121.07  1121.09  1123.74  1123.87
eigval :     1130.68  1130.70  1135.34  1138.21  1138.25  1145.94
eigval :     1160.12  1160.24  1180.94  1181.29  1181.52  1181.90
eigval :     1182.21  1185.35  1185.46  1186.02  1189.04  1189.49
eigval :     1199.61  1199.93  1202.88  1203.31  1212.05  1218.44
eigval :     1224.18  1224.21  1229.65  1235.93  1237.37  1246.07
eigval :     1246.99  1259.72  1261.61  1264.83  1268.57  1280.24
eigval :     1280.26  1299.92  1300.03  1302.03  1302.24  1306.73
eigval :     1306.95  1321.47  1321.54  1324.68  1324.70  1325.80
eigval :     1337.78  1339.06  1350.21  1362.15  1367.18  1371.78
eigval :     1378.52  1379.86  1385.29  1393.96  1395.97  1398.95
eigval :     1399.19  1400.24  1401.56  1402.74  1403.24  1419.43
eigval :     1420.56  1420.83  1429.40  1431.98  1432.17  1445.79
eigval :     1455.56  1457.07  1472.44  1477.24  1481.26  1482.02
eigval :     1482.55  1497.93  1500.51  1510.79  1511.14  1527.61
eigval :     1531.66  1532.80  1532.82  1542.05  1542.08  1542.99
eigval :     1560.93  1561.14  1563.98  1564.07  1581.31  1581.35
eigval :     1582.89  1582.90  1589.58  1589.60  1595.99  1596.08
eigval :     1598.10  1598.12  1608.62  1610.37  1610.38  1622.92
eigval :     3064.15  3064.18  3069.19  3069.20  3070.69  3070.71
eigval :     3072.48  3072.52  3075.40  3076.60  3077.97  3077.99
eigval :     3079.43  3079.47  3081.11  3081.36  3081.75  3081.82
eigval :     3081.87  3082.30  3083.31  3083.39  3085.31  3085.63
eigval :     3089.46  3089.55  3090.31  3090.89  3092.79  3092.91
eigval :     3094.38  3094.81  3095.31  3096.09  3096.54  3096.90
eigval :     3105.84  3105.87  3106.50  3106.50  3108.96  3109.18

   temp. (K)  partition function   enthalpy   heat capacity  entropy
                                   cal/mol     cal/K/mol   cal/K/mol   J/K/mol
 298.15  VIB  0.468E+28            33874.023    216.085    212.152
         ROT  0.199E+09              888.752      2.981     40.954
         INT  0.931E+36            34762.775    219.066    253.106
         TR   0.289E+29             1481.254      4.968     46.448
         TOT                       36244.0289   224.0345   299.5547  1253.3370

       T/K    H(0)-H(T)+PV         H(T)/Eh          T*S/Eh         G(T)/Eh
   ------------------------------------------------------------------------
    298.15    0.577585E-01    0.954349E+00    0.142328E+00    0.812021E+00
   ------------------------------------------------------------------------

         :::::::::::::::::::::::::::::::::::::::::::::::::::::
         ::                  THERMODYNAMIC                  ::
         :::::::::::::::::::::::::::::::::::::::::::::::::::::
         :: total free energy        -186.641685463329 Eh   ::
         ::.................................................::
         :: total energy             -187.453706470888 Eh   ::
         :: zero point energy           0.896590595026 Eh   ::
         :: G(RRHO) w/o ZPVE           -0.084569587467 Eh   ::
         :: G(RRHO) contrib.            0.812021007559 Eh   ::
         :::::::::::::::::::::::::::::::::::::::::::::::::::::

           -------------------------------------------------
          | TOTAL ENERGY             -187.453706470888 Eh   |
          | TOTAL ENTHALPY           -186.499357339347 Eh   |
          | TOTAL FREE ENERGY        -186.641685463329 Eh   |
          | GRADIENT NORM               0.000065458892 Eh/α |
          | HOMO-LUMO GAP               1.794186751785 eV   |
           -------------------------------------------------

 * finished run on 2025/09/08 at 10:15:35.419
