   * xtb version 6.7.1 (edcfbbe) compiled by 'albert@albert-system' on 2024-07-22

   ID    Z sym.   atoms
    1    6 C      1-5, 7-22, 24-39, 41-47, 49-76
    2    7 N      6, 23, 40, 48
    3    1 H      77-118

          program call               : xtb data2507/gas/N-BPyIA/N-BPyIA_gas_T1_crest.xyz --gfn 2 --spinpol --tblite --uhf 2 --ohess vtight --parallel 40 --molden --ceasefiles --namespace data2507/gas/N-BPyIA/N-BPyIA_gas_T1_finalOpt
 * total energy  :  -187.3904492 Eh     change        0.1708173E-08 Eh
 * total energy  :  -187.3904996 Eh     change       -0.5036122E-04 Eh
 * total energy  :  -187.3905151 Eh     change       -0.1552926E-04 Eh
 * total energy  :  -187.3905203 Eh     change       -0.5182202E-05 Eh
 * total energy  :  -187.3905282 Eh     change       -0.7976217E-05 Eh
 * total energy  :  -187.3905332 Eh     change       -0.4962072E-05 Eh
 * total energy  :  -187.3905369 Eh     change       -0.3678420E-05 Eh
 * total energy  :  -187.3905390 Eh     change       -0.2114934E-05 Eh
 * total energy  :  -187.3905401 Eh     change       -0.1141647E-05 Eh
 * total energy  :  -187.3905410 Eh     change       -0.8296847E-06 Eh
 * total energy  :  -187.3905440 Eh     change       -0.9604070E-06 Eh
 * total energy  :  -187.3905447 Eh     change       -0.7031867E-06 Eh
 * total energy  :  -187.3905456 Eh     change       -0.8898863E-06 Eh
 * total energy  :  -187.3905465 Eh     change       -0.9196715E-06 Eh
 * total energy  :  -187.3905474 Eh     change       -0.8740615E-06 Eh
 * total energy  :  -187.3905486 Eh     change       -0.1209020E-05 Eh
 * total energy  :  -187.3905497 Eh     change       -0.1110533E-05 Eh
 * total energy  :  -187.3905503 Eh     change       -0.6252500E-06 Eh
 * total energy  :  -187.3905503 Eh     change       -0.4793378E-08 Eh
   *** GEOMETRY OPTIMIZATION CONVERGED AFTER 22 ITERATIONS ***

 final structure:
================
118
 xtb: 6.7.1 (edcfbbe)
C            5.78790484462831        5.52200375808235        0.63483931834679
C            5.19424789246139        4.40665541022697        1.20152937706388
C            5.80357981171924        3.16880621304437        1.11304478439562
C            7.01692758454507        3.03202104117352        0.44049546737191
C            7.70007554837500        1.75533296906234        0.29631042128623
N            9.00242253736420        1.62310401685345        0.33558300217144
C            9.25203210706539        0.29882882399401        0.16929290680539
C           10.51449183748652       -0.35993368860273        0.15995543341185
C           11.71750683583997        0.31142169343082        0.34738599913592
C           12.91250575214167       -0.38760344556971        0.34356634740072
C           12.91976417459361       -1.75455391200988        0.14994008524985
C           11.72912774558562       -2.46047585303771       -0.04797689240291
C           11.72468866103990       -3.86892197926489       -0.26269368184595
C           10.56966513043878       -4.53710514564477       -0.47986320104822
C            9.31424993871068       -3.86171817592773       -0.49552136104784
C            8.12633733230106       -4.55354201235224       -0.74866885348462
C            6.92026460690967       -3.88696786412613       -0.78715635040449
C            6.86111682370248       -2.52464535940196       -0.54738647313677
C            8.01656541330548       -1.79940284921252       -0.26190204680187
C            9.27678607513298       -2.46531013219285       -0.25945290136479
C           10.49618992037876       -1.76252061623713       -0.04338513516374
C            8.05411521899892       -0.40134373906923        0.00759468114267
N            7.06446037855909        0.54780164518090        0.10004148038880
C            5.66944790941632        0.39020460621284        0.01627127361857
C            4.96638087778081        1.03338354264572       -0.99771929047698
C            3.58982271174271        0.97322513515679       -1.02406967884234
C            2.88164034640985        0.26299815877603       -0.04932159204652
C            1.42210259898783        0.25281548221494       -0.04673881703942
C            0.71376556126638       -0.98828521767311       -0.07108107473218
C            1.37751178668406       -2.21195679588165       -0.18613565708041
C            0.68707388395439       -3.42111598805158       -0.13755042539348
C           -0.67978182241667       -3.42318326841403        0.03381136035171
C           -1.37226061645142       -2.21585756360773        0.09697844348437
C           -0.71075904968182       -0.98975155393691       -0.00486928267011
C           -1.42023457943974        0.25079795701373       -0.01489719190476
C           -2.87964937054696        0.26179505962581        0.00117469947802
C           -3.61539617148496       -0.40377327496824       -0.98507579647867
C           -4.99184284958116       -0.33295201475168       -1.01038993988385
C           -5.66796757743034        0.39245481076943       -0.03176260806812
N           -7.06381916415053        0.55186823445330       -0.09672128921106
C           -7.70016797612710        1.76218557077074       -0.27259069954175
C           -7.01688965935310        3.03821622317648       -0.42148874191006
C           -7.61228843749659        4.17055293298751        0.13461678594145
C           -6.99892255723401        5.40376315292148        0.03449408727240
C           -5.78624920759908        5.52679095003434       -0.62476097460725
C           -5.20365328659665        4.41270153575148       -1.20522865673222
C           -5.81393826153416        3.17566243003415       -1.11238134302122
N           -9.00333536933743        1.63302982393174       -0.28890697946726
C           -9.25283531091149        0.30819613010319       -0.12725202778192
C          -10.51664767062633       -0.34735736707236       -0.09763524385632
C          -11.72130125798886        0.32859444157532       -0.25575211590388
C          -12.91800533794410       -0.36710570757910       -0.23197645274639
C          -12.92522925570505       -1.73533990015427       -0.04765184389485
C          -11.73279557573788       -2.44596365605931        0.12032268823619
C          -11.72801106033086       -3.85601021076958        0.32418753128675
C          -10.57054229153045       -4.52919947341628        0.51063815837191
C           -9.31308757982237       -3.85747105499686        0.50479139103656
C           -8.12208762962275       -4.55505517568937        0.72550023510337
C           -6.91357529197203       -3.89212737179734        0.74474117383178
C           -6.85570157395676       -2.52756423212600        0.51778136691894
C           -8.01469495043475       -1.79640878770690        0.26337348786435
C           -9.27655126668010       -2.45907497534406        0.28055509719840
C          -10.49818618218609       -1.75139039669436        0.09528102551652
C           -8.05376654442824       -0.39586783522215        0.00702428985566
C           -4.95257565481566        1.02829968419643        0.97830397934144
C           -3.57599387247742        0.96659718812810        0.98843049893526
C           -0.71252279235059        1.49360526435330       -0.04741972979662
C           -1.37776771907758        2.71861391892584       -0.14387814657338
C           -0.68644952397387        3.92734891878972       -0.09825944399489
C            0.68300580607730        3.92815706452162        0.05046969566917
C            1.37633706602598        2.72043271226499        0.09201486010379
C            0.71319849560139        1.49464941117571       -0.00964289712805
C            3.60547975998876       -0.41069116054505        0.94031384826666
C            4.98149979687591       -0.34167657526578        0.98183274431837
C            7.62308660740762        4.16547028307052       -0.10148511443964
C            7.01050216587932        5.39942335227159       -0.00589808700234
H            5.30494651286483        6.48561866297471        0.70277870378055
H            4.25243725525209        4.50045735705695        1.72292935900152
H            5.34263563950008        2.31650596843176        1.58909123633113
H           11.69162138144953        1.37921111183557        0.49853807580569
H           13.84375681318155        0.13940278023535        0.49277406327014
H           13.85436015781004       -2.29756336220990        0.14562608157188
H           12.67223524037415       -4.38902113067378       -0.25462247417534
H           10.57148192513528       -5.60434384483929       -0.65162843068631
H            8.16663247592053       -5.61854537154810       -0.92658644505219
H            6.01040836657871       -4.42727721903508       -1.00540335136839
H            5.90790367802560       -2.02224624982397       -0.59547642221413
H            5.50764625904629        1.58629936183796       -1.75108365352933
H            3.04603641915011        1.46509927846678       -1.81670041359808
H            2.44820494076197       -2.22545493684201       -0.32106983773018
H            1.23170469029996       -4.34949252105151       -0.22210087582701
H           -1.22286377179917       -4.35340161925388        0.10742314523947
H           -2.44274700615320       -2.23294204440599        0.23294781800709
H           -3.09204784579319       -0.93940766614508       -1.76330583977103
H           -5.55382898309280       -0.82086641649796       -1.79379575978874
H           -8.55670268543190        4.05859784562667        0.64396751448226
H           -7.46536651891554        6.27319310867937        0.47382953260153
H           -5.30255044626716        6.48977865795983       -0.69625165310838
H           -4.26991796285501        4.50690519245548       -1.74089055965582
H           -5.36217061055138        2.32456817722549       -1.59923334307793
H          -11.69542548060702        1.39733315105908       -0.40002664141145
H          -13.85060814305382        0.16350017978349       -0.35821059734215
H          -13.86110777636564       -2.27578255989348       -0.02764598172702
H          -12.67708390905477       -4.37330650856498        0.33276189264413
H          -10.57178784257524       -5.59780641174260        0.67367754402900
H           -8.16167229091546       -5.62168896905945        0.89352503204395
H           -6.00075250606106       -4.43702689037665        0.93772926418275
H           -5.90023877939137       -2.02834529939323        0.55114904430315
H           -5.48457961231645        1.57682527026607        1.74141831706806
H           -3.02256253061661        1.45317951386957        1.77764855059006
H           -2.45079537571911        2.73668798402481       -0.25961583305593
H           -1.23380875293844        4.85558275465035       -0.16599160179769
H            1.22879774290213        4.85706823478654        0.12154384614875
H            2.44922773539940        2.73990422378258        0.20866591354104
H            3.07257737069432       -0.95174586037566        1.70824801566893
H            5.53410464602717       -0.83601054952845        1.76786833384813
H            8.57513251628821        4.05378136799310       -0.59649520133344
H            7.48535532606485        6.26973512262133       -0.43434216186703

 projected vibrational frequencies (cm⁻¹)
eigval :       -0.00    -0.00    -0.00     0.00     0.00     0.00
eigval :        5.24     5.90     6.75    11.21    18.09    18.28
eigval :       23.68    31.17    34.26    35.32    39.50    41.10
eigval :       49.53    61.66    69.85    70.39    72.20    75.28
eigval :       81.95    83.57    96.70    98.11   117.73   121.19
eigval :      131.46   131.53   138.00   146.52   162.99   171.20
eigval :      186.40   186.59   204.33   209.24   210.64   212.90
eigval :      216.78   217.83   225.72   226.71   233.32   251.84
eigval :      253.67   262.84   279.42   282.34   298.93   325.54
eigval :      340.51   346.40   351.68   352.97   354.00   366.34
eigval :      372.57   375.18   375.23   379.63   379.73   384.60
eigval :      393.33   397.41   402.60   403.94   408.32   412.38
eigval :      421.97   425.66   431.15   449.25   452.97   453.21
eigval :      458.38   471.11   479.05   481.24   484.80   488.03
eigval :      490.52   493.93   506.14   512.88   531.88   533.06
eigval :      535.23   535.56   555.04   555.06   565.95   569.57
eigval :      569.89   574.89   580.92   586.26   586.65   588.48
eigval :      591.16   593.43   607.08   614.97   622.18   635.45
eigval :      640.04   642.79   653.53   659.66   661.42   670.93
eigval :      672.55   676.49   676.69   679.63   682.05   682.07
eigval :      693.65   696.85   700.23   702.66   706.17   708.74
eigval :      711.20   716.53   732.84   748.23   752.28   752.48
eigval :      753.10   760.94   763.74   763.84   771.99   773.50
eigval :      775.30   775.70   798.90   798.94   819.32   823.03
eigval :      839.77   839.88   844.32   850.34   870.14   874.99
eigval :      877.97   878.25   879.76   880.88   890.24   891.53
eigval :      891.60   892.59   892.93   893.11   894.71   904.02
eigval :      904.16   905.95   906.88   910.76   912.81   918.07
eigval :      918.10   920.72   920.81   921.43   921.65   923.80
eigval :      924.86   925.97   926.01   930.16   930.18   933.00
eigval :      933.05   934.28   934.68   945.81   968.68   970.30
eigval :      992.59   995.64   996.72   997.04  1029.65  1031.54
eigval :     1082.79  1082.80  1095.84  1095.91  1102.01  1106.75
eigval :     1109.95  1110.00  1115.34  1121.04  1121.08  1123.03
eigval :     1123.28  1127.19  1132.79  1133.01  1137.94  1138.00
eigval :     1159.74  1159.76  1180.70  1180.92  1180.99  1181.02
eigval :     1181.56  1182.10  1182.95  1185.40  1185.98  1189.31
eigval :     1193.98  1194.93  1199.42  1199.48  1202.86  1202.94
eigval :     1223.63  1223.65  1232.87  1233.86  1234.19  1245.26
eigval :     1245.35  1255.06  1259.49  1266.43  1269.40  1279.57
eigval :     1279.80  1293.10  1297.35  1299.38  1299.87  1300.50
eigval :     1303.90  1307.48  1309.61  1321.31  1321.35  1324.05
eigval :     1324.59  1332.85  1336.33  1337.85  1363.27  1364.43
eigval :     1364.80  1367.91  1377.43  1377.44  1377.67  1390.63
eigval :     1391.16  1398.16  1398.20  1399.88  1399.93  1405.49
eigval :     1406.68  1409.66  1419.84  1419.90  1426.32  1431.19
eigval :     1431.26  1453.37  1453.85  1463.10  1472.02  1475.47
eigval :     1480.32  1480.91  1485.96  1488.19  1489.88  1507.97
eigval :     1508.46  1520.37  1530.03  1530.63  1531.11  1537.48
eigval :     1537.89  1542.88  1543.02  1554.00  1561.46  1561.52
eigval :     1576.37  1577.39  1577.91  1579.75  1581.33  1581.59
eigval :     1587.04  1587.52  1597.16  1597.24  1606.75  1607.61
eigval :     3064.58  3064.58  3069.55  3069.60  3071.40  3071.41
eigval :     3072.71  3072.74  3077.80  3078.10  3078.17  3078.70
eigval :     3079.44  3079.45  3079.84  3079.94  3082.08  3082.19
eigval :     3083.12  3083.58  3083.73  3083.79  3085.62  3086.27
eigval :     3089.62  3089.77  3091.43  3091.63  3093.34  3094.61
eigval :     3094.94  3095.20  3095.71  3096.03  3097.68  3098.56
eigval :     3105.57  3105.61  3106.27  3106.41  3109.12  3109.67

   temp. (K)  partition function   enthalpy   heat capacity  entropy
                                   cal/mol     cal/K/mol   cal/K/mol   J/K/mol
 298.15  VIB  0.242E+28            33911.440    217.183    211.523
         ROT  0.397E+09              888.752      2.981     42.327
         INT  0.961E+36            34800.192    220.164    253.850
         TR   0.289E+29             1481.254      4.968     46.448
         TOT                       36281.4458   225.1318   300.2984  1256.4486

       T/K    H(0)-H(T)+PV         H(T)/Eh          T*S/Eh         G(T)/Eh
   ------------------------------------------------------------------------
    298.15    0.578182E-01    0.951805E+00    0.142681E+00    0.809123E+00
   ------------------------------------------------------------------------

         :::::::::::::::::::::::::::::::::::::::::::::::::::::
         ::                  THERMODYNAMIC                  ::
         :::::::::::::::::::::::::::::::::::::::::::::::::::::
         :: total free energy        -186.581426841559 Eh   ::
         ::.................................................::
         :: total energy             -187.390550337064 Eh   ::
         :: zero point energy           0.893986803308 Eh   ::
         :: G(RRHO) w/o ZPVE           -0.084863307802 Eh   ::
         :: G(RRHO) contrib.            0.809123495505 Eh   ::
         :::::::::::::::::::::::::::::::::::::::::::::::::::::

           -------------------------------------------------
          | TOTAL ENERGY             -187.390550337064 Eh   |
          | TOTAL ENTHALPY           -186.438745369590 Eh   |
          | TOTAL FREE ENERGY        -186.581426841559 Eh   |
          | GRADIENT NORM               0.000056325376 Eh/α |
           -------------------------------------------------

 * finished run on 2025/09/08 at 10:40:29.471
