   * xtb version 6.7.1 (edcfbbe) compiled by 'albert@albert-system' on 2024-07-22

   ID    Z sym.   atoms
    1    6 C      1-5, 7-22, 24-39, 41-47, 49-76
    2    7 N      6, 23, 40, 48
    3    1 H      77-118

          program call               : xtb data2507/gas/N-BPyIA/N-BPyIA_gas_S0_finalOpt.xtbopt.xyz --gfn 2 --spinpol --tblite --uhf 2 --ohess vtight --parallel 40 --molden --ceasefiles --namespace data2507/gas/N-BPyIA/N-BPyIA_gas_T1_preOpt
 * total energy  :  -187.3818754 Eh     change       -0.5612372E-07 Eh
 * total energy  :  -187.3876608 Eh     change       -0.5785359E-02 Eh
 * total energy  :  -187.3891050 Eh     change       -0.1444206E-02 Eh
 * total energy  :  -187.3892204 Eh     change       -0.1154178E-03 Eh
 * total energy  :  -187.3893350 Eh     change       -0.1146513E-03 Eh
 * total energy  :  -187.3894010 Eh     change       -0.6595797E-04 Eh
 * total energy  :  -187.3894849 Eh     change       -0.8386833E-04 Eh
 * total energy  :  -187.3895726 Eh     change       -0.8770308E-04 Eh
 * total energy  :  -187.3896216 Eh     change       -0.4907256E-04 Eh
 * total energy  :  -187.3896523 Eh     change       -0.3065983E-04 Eh
 * total energy  :  -187.3903860 Eh     change       -0.1399532E-05 Eh
 * total energy  :  -187.3903873 Eh     change       -0.1291741E-05 Eh
 * total energy  :  -187.3903887 Eh     change       -0.1385418E-05 Eh
 * total energy  :  -187.3903901 Eh     change       -0.1439284E-05 Eh
 * total energy  :  -187.3903915 Eh     change       -0.1365136E-05 Eh
 * total energy  :  -187.3903930 Eh     change       -0.1561216E-05 Eh
 * total energy  :  -187.3903947 Eh     change       -0.1673027E-05 Eh
 * total energy  :  -187.3903965 Eh     change       -0.1844811E-05 Eh
 * total energy  :  -187.3903966 Eh     change       -0.3744472E-07 Eh
   *** GEOMETRY OPTIMIZATION CONVERGED AFTER 94 ITERATIONS ***

 final structure:
================
118
 xtb: 6.7.1 (edcfbbe)
C            5.80929671949760        5.54634303856805       -0.03819267696333
C            5.24139306207602        4.50514395386303        0.67680026665787
C            5.84892761764968        3.26370095242404        0.70567930863347
C            7.03415374811933        3.04798968487290        0.00439619967711
C            7.71063522192865        1.75925445551807       -0.01635121545792
N            9.01189014616960        1.62274242842948        0.02574413831086
C            9.25120423541770        0.28590974517327        0.00161392971495
C           10.50897061761684       -0.37880744558569        0.06340498874210
C           11.71717031980236        0.30058528831323        0.17203218289238
C           12.90668522191812       -0.40334172901953        0.25053173504010
C           12.90332692892675       -1.78358334535636        0.21762152176996
C           11.70729709466771       -2.49855056104846        0.10196847332751
C           11.69182327181001       -3.92234386645156        0.05286323699381
C           10.53172443970896       -4.60210070902001       -0.08771275518344
C            9.28184812520337       -3.92327468314421       -0.18504071971263
C            8.08917648803678       -4.63048134915870       -0.36142946588686
C            6.88929111012554       -3.96305311360329       -0.48459797614084
C            6.84051518512225       -2.58183969879386       -0.40254028612361
C            8.00005439219728       -1.83769134574282       -0.19177512935805
C            9.25502380961511       -2.50870511982202       -0.11102679259909
C           10.47984987050701       -1.79529337489445        0.02409723656264
C            8.04763256694694       -0.41868627964098       -0.07528092637714
N            7.06474018469639        0.54259482636117       -0.07795662241055
C            5.66786881445823        0.38885244678314       -0.11363022226714
C            4.93861550865418        0.97257286133317       -1.14504563024914
C            3.56127929465401        0.92060982557307       -1.12715691771793
C            2.88041036553397        0.27078768507139       -0.09386750315614
C            1.41975216586537        0.26466228682031       -0.04975452708407
C            0.71041492851405       -0.97517133220458       -0.03554878549269
C            1.37098434238867       -2.20139256227924       -0.13908188256381
C            0.67729228280398       -3.40843763733449       -0.07284954349140
C           -0.68891386452326       -3.40545527102987        0.10133309745064
C           -1.37796927442845       -2.19548471683937        0.16245884337661
C           -0.71270461890453       -0.97225922613065        0.05377810913407
C           -1.41742863647939        0.27028134155739        0.06258035624288
C           -2.87810394716574        0.28179884719870        0.10428706911333
C           -3.62611159592195       -0.33706090248764       -0.90167273561088
C           -5.00270288328625       -0.26338605893310       -0.90620022775681
C           -5.66515859049799        0.41054490890284        0.11739087106678
N           -7.06125519421052        0.57012662912049        0.07749894205878
C           -7.70156506379931        1.78938240300882        0.00911856414381
C           -7.01935773861819        3.07505233251143       -0.01474856769790
C           -7.59839771108421        4.14179438772648        0.67188873749572
C           -6.98194822166422        5.37762039851003        0.69074637566229
C           -5.78375861946431        5.56820617944707        0.02138065349410
C           -5.21853027685376        4.52178636308694       -0.68808795295425
C           -5.83138910410193        3.28289164808092       -0.71376375403316
N           -9.00326934994318        1.65847134387441       -0.03645851713250
C           -9.24858148782556        0.32280935118707       -0.00788268354068
C          -10.50909455985351       -0.33654313035243       -0.07113848250155
C          -11.71389363731176        0.34779080308373       -0.18631320546684
C          -12.90627106758690       -0.35114478084530       -0.26598356024760
C          -12.90916694875488       -1.73125004476745       -0.22772347387472
C          -11.71671658304718       -2.45107095392473       -0.10543774316728
C          -11.70773599197883       -3.87472059564214       -0.05081178508345
C          -10.55112700272955       -4.55906972804478        0.09608953405162
C           -9.29855028165023       -3.88543021006883        0.19478778578440
C           -8.10959477797046       -4.59723562960036        0.37762665856442
C           -6.90713111911764       -3.93467756067969        0.50195728910767
C           -6.85194373180453       -2.55401727313621        0.41475130030473
C           -8.00750443870607       -1.80554999175655        0.19753970440986
C           -9.26519475859205       -2.47128836299371        0.11543589703030
C          -10.48640386124614       -1.75297944021818       -0.02631310573406
C           -8.04839523926785       -0.38680083634950        0.07546323787447
C           -4.93593562160454        0.99569167690763        1.14802353190665
C           -3.55875995795354        0.93840849936972        1.13341832352069
C           -0.70949538365717        1.51171744027745        0.01612189012584
C           -1.37608787636221        2.73828292080846       -0.04003704972550
C           -0.67950964221095        3.94532743120581       -0.03264578221200
C            0.69613572633792        3.94276262798898        0.03290590524591
C            1.38796205982128        2.73302732494832        0.04443672653524
C            0.71653490928116        1.50891016900135       -0.00736859034772
C            3.62822536570472       -0.34644359544366        0.91320472489259
C            5.00511244851855       -0.27799875098297        0.91438236900114
C            7.61601095889686        4.10953845186746       -0.68789259075089
C            7.00488077698795        5.34794824553366       -0.70994996800964
H            5.32751367264064        6.51263471938280       -0.06203102793870
H            4.32180882478065        4.66103716154150        1.22235049903882
H            5.41015358354939        2.47139940659000        1.29367715530088
H           11.69944761090422        1.37885684649374        0.19853306490715
H           13.84199088833217        0.13022045253796        0.33847670732330
H           13.83364988325007       -2.33059234367618        0.27779119875397
H           12.63512863628294       -4.44539831324662        0.12349690492173
H           10.52509008649885       -5.68204985681938       -0.13427638927396
H            8.12109041758467       -5.70923184258403       -0.41405033817309
H            5.97599484231721       -4.51745022640830       -0.64562161282924
H            5.89204238733867       -2.08112961259489       -0.51635307015609
H            5.45960207461720        1.47488035665265       -1.94656902964123
H            2.99594854706789        1.37178725367726       -1.92890752519617
H            2.44108907253947       -2.21851343946383       -0.27867570271134
H            1.21932410287048       -4.33905329435935       -0.14922136867864
H           -1.23452018242462       -4.33365150368986        0.18158548557787
H           -2.44813729095436       -2.20790336008312        0.30208162175557
H           -3.11274834836739       -0.83868833668849       -1.70870354952737
H           -5.57519539790834       -0.71084485582460       -1.70589543436278
H           -8.53193994863499        3.97813896231214        1.18737886524055
H           -7.43482258427503        6.19579614923258        1.23109979902175
H           -5.29783291533440        6.53247927069937        0.04275318887714
H           -4.29685606323007        4.67155952627760       -1.23182321711277
H           -5.39453732103245        2.48642419316450       -1.29754982215607
H          -11.69127819982339        1.42586141244898       -0.21689869081509
H          -13.83889719239400        0.18622502057511       -0.35905072426954
H          -13.84171948471023       -2.27434555262576       -0.28883244504625
H          -12.65313687795642       -4.39384558316823       -0.12240840140678
H          -10.54945173231186       -5.63884716993567        0.14687218532755
H           -8.14647166096468       -5.67562495586957        0.43427155481407
H           -5.99682046800453       -4.49251102606654        0.66794054739528
H           -5.90160779545793       -2.05707733823141        0.52958374166308
H           -5.45674667760976        1.50337708805737        1.94626728411225
H           -2.99350583795609        1.39070465438426        1.93459260611594
H           -2.45400028356035        2.75850675102447       -0.09294081301491
H           -1.22709091970030        4.87527165510247       -0.06771976088467
H            1.24735455629088        4.87067061828420        0.06474749756882
H            2.46595876080098        2.74915534148301        0.09709392715543
H            3.11474011905038       -0.84261536840026        1.72352462706992
H            5.57767475274688       -0.72423638487684        1.71471182359832
H            8.54746835459956        3.93981869377823       -1.20519209603376
H            7.45988264987407        6.16205436641348       -1.25464708145990

 projected vibrational frequencies (cm⁻¹)
eigval :       -0.00    -0.00    -0.00     0.00     0.00     0.00
eigval :        5.70     5.81     6.76    11.65    18.01    18.51
eigval :       23.62    31.15    34.40    35.45    39.27    41.04
eigval :       49.00    61.16    69.36    70.55    72.64    74.60
eigval :       79.99    84.49    96.76    98.04   117.19   121.24
eigval :      129.08   133.06   134.98   146.22   161.44   171.47
eigval :      184.76   186.14   202.42   209.40   210.85   213.74
eigval :      216.94   217.95   225.71   226.31   232.60   253.37
eigval :      253.80   260.79   279.20   282.19   297.86   324.54
eigval :      338.95   346.49   350.61   352.86   354.03   365.34
eigval :      371.66   375.31   375.39   379.99   381.52   384.92
eigval :      393.65   397.50   402.46   404.05   407.29   412.56
eigval :      419.13   423.99   430.29   448.91   453.15   453.31
eigval :      458.02   470.52   478.88   481.21   485.61   488.32
eigval :      490.61   495.10   506.41   512.50   532.09   532.51
eigval :      535.47   535.86   555.18   555.21   565.39   569.25
eigval :      569.75   574.04   580.71   586.22   586.57   588.33
eigval :      591.35   593.73   606.65   615.25   621.93   635.71
eigval :      639.98   642.71   653.65   660.38   662.27   670.96
eigval :      671.56   676.77   677.08   679.90   682.15   682.17
eigval :      693.97   696.74   700.35   703.08   706.17   708.76
eigval :      711.43   715.93   733.07   746.93   752.26   752.47
eigval :      753.10   759.63   763.78   763.89   772.02   773.43
eigval :      775.63   776.04   799.11   799.14   819.06   822.54
eigval :      839.79   840.01   841.91   847.06   870.49   874.17
eigval :      878.20   878.48   880.23   881.39   888.53   890.83
eigval :      891.58   891.67   892.58   893.03   894.70   904.23
eigval :      904.34   905.68   906.25   910.82   912.78   918.00
eigval :      918.06   920.66   920.84   920.91   921.35   923.07
eigval :      923.60   925.98   925.99   930.06   930.07   932.94
eigval :      933.01   933.03   933.44   945.00   968.91   970.56
eigval :      993.13   996.07   996.67   997.25  1030.22  1031.35
eigval :     1082.74  1082.77  1095.48  1095.77  1101.06  1106.06
eigval :     1109.77  1110.16  1114.51  1120.87  1120.90  1122.98
eigval :     1123.49  1127.01  1132.60  1132.75  1138.08  1138.12
eigval :     1159.60  1159.77  1179.61  1180.91  1181.00  1181.01
eigval :     1181.49  1181.85  1182.85  1185.17  1185.78  1189.82
eigval :     1193.35  1194.53  1199.00  1199.19  1202.44  1202.92
eigval :     1223.48  1223.59  1232.32  1233.68  1234.25  1245.10
eigval :     1245.16  1255.06  1258.94  1266.03  1268.49  1279.48
eigval :     1279.74  1293.52  1296.92  1299.21  1299.60  1300.26
eigval :     1303.83  1307.97  1309.25  1320.84  1320.88  1323.29
eigval :     1324.67  1332.93  1336.41  1338.25  1362.74  1364.47
eigval :     1365.83  1370.30  1376.15  1377.41  1377.66  1390.45
eigval :     1391.26  1397.79  1397.91  1399.70  1400.12  1405.15
eigval :     1406.22  1409.05  1419.91  1419.97  1426.83  1431.19
eigval :     1431.24  1454.10  1454.35  1464.73  1472.52  1475.46
eigval :     1480.44  1480.87  1486.41  1486.65  1489.86  1508.14
eigval :     1508.55  1518.74  1530.32  1530.71  1531.16  1539.39
eigval :     1539.60  1544.59  1544.70  1554.99  1561.75  1561.94
eigval :     1576.85  1577.93  1579.21  1579.77  1581.42  1581.72
eigval :     1587.05  1587.53  1597.30  1597.44  1606.94  1607.84
eigval :     3064.64  3064.82  3069.61  3069.84  3071.46  3071.59
eigval :     3072.86  3072.90  3077.55  3078.20  3078.34  3078.72
eigval :     3079.31  3079.33  3080.17  3080.26  3082.19  3082.44
eigval :     3083.48  3083.76  3083.97  3084.17  3085.59  3086.03
eigval :     3088.69  3088.81  3091.62  3091.78  3093.45  3093.85
eigval :     3094.15  3094.48  3095.05  3095.61  3098.08  3098.57
eigval :     3104.84  3104.86  3106.71  3106.80  3109.19  3109.29

   temp. (K)  partition function   enthalpy   heat capacity  entropy
                                   cal/mol     cal/K/mol   cal/K/mol   J/K/mol
 298.15  VIB  0.237E+28            33932.885    217.209    211.617
         ROT  0.199E+09              888.752      2.981     40.951
         INT  0.470E+36            34821.637    220.190    252.567
         TR   0.289E+29             1481.254      4.968     46.448
         TOT                       36302.8914   225.1577   299.0159  1251.0825

       T/K    H(0)-H(T)+PV         H(T)/Eh          T*S/Eh         G(T)/Eh
   ------------------------------------------------------------------------
    298.15    0.578523E-01    0.951755E+00    0.142072E+00    0.809683E+00
   ------------------------------------------------------------------------

         :::::::::::::::::::::::::::::::::::::::::::::::::::::
         ::                  THERMODYNAMIC                  ::
         :::::::::::::::::::::::::::::::::::::::::::::::::::::
         :: total free energy        -186.580713677008 Eh   ::
         ::.................................................::
         :: total energy             -187.390396578415 Eh   ::
         :: zero point energy           0.893902666487 Eh   ::
         :: G(RRHO) w/o ZPVE           -0.084219765080 Eh   ::
         :: G(RRHO) contrib.            0.809682901407 Eh   ::
         :::::::::::::::::::::::::::::::::::::::::::::::::::::

           -------------------------------------------------
          | TOTAL ENERGY             -187.390396578415 Eh   |
          | TOTAL ENTHALPY           -186.438641572095 Eh   |
          | TOTAL FREE ENERGY        -186.580713677008 Eh   |
          | GRADIENT NORM               0.000073646052 Eh/α |
           -------------------------------------------------

 * finished run on 2025/09/08 at 10:25:35.418
