   * xtb version 6.7.1 (edcfbbe) compiled by 'albert@albert-system' on 2024-07-22

   ID    Z sym.   atoms
    1    6 C      1-6, 8-13, 15-19, 21-26, 28, 29
    2    8 O      7
    3    7 N      14, 20
    4   16 S      27
    5    1 H      30-45

          program call               : xtb data2507/toluene/BTaz-Ar-PXZ/BTaz-Ar-PXZ_toluene_S0_crest.xyz --gfn 2 --gbsa toluene --ohess vtight --parallel 40 --molden --ceasefiles --namespace data2507/toluene/BTaz-Ar-PXZ/BTaz-Ar-PXZ_toluene_S0_finalOpt
      * Solvation model:               GBSA
        Solvent                        toluene
        Solvent mass                       9.2140E+01 g/mol
          :  Hamiltonian                  GFN2-xTB          :
 * total energy  :   -74.9192942 Eh     change       -0.9538041E-09 Eh
 * total energy  :   -74.9193184 Eh     change       -0.2418001E-04 Eh
 * total energy  :   -74.9193262 Eh     change       -0.7810567E-05 Eh
 * total energy  :   -74.9193281 Eh     change       -0.1908366E-05 Eh
 * total energy  :   -74.9193297 Eh     change       -0.1595256E-05 Eh
 * total energy  :   -74.9193309 Eh     change       -0.1171662E-05 Eh
 * total energy  :   -74.9193320 Eh     change       -0.1122618E-05 Eh
 * total energy  :   -74.9193328 Eh     change       -0.7534315E-06 Eh
 * total energy  :   -74.9193333 Eh     change       -0.5440298E-06 Eh
 * total energy  :   -74.9193338 Eh     change       -0.5019835E-06 Eh
 * total energy  :   -74.9193342 Eh     change       -0.4017160E-06 Eh
 * total energy  :   -74.9193345 Eh     change       -0.2571938E-06 Eh
 * total energy  :   -74.9193346 Eh     change       -0.1456740E-06 Eh
 * total energy  :   -74.9193346 Eh     change       -0.2609757E-07 Eh
   *** GEOMETRY OPTIMIZATION CONVERGED AFTER 14 ITERATIONS ***

 final structure:
================
45
 xtb: 6.7.1 (edcfbbe)
C           -4.77342343270611        3.51453568652881       -0.47210548137412
C           -3.39432148644389        3.55698882328959       -0.51537512027424
C           -2.65157722294918        2.39471844961367       -0.37214600439804
C           -3.27579504899242        1.16930732331197       -0.17096437022412
C           -4.67668680736127        1.13302349429891       -0.16711834100068
C           -5.41351302029155        2.29480437031338       -0.30719265965548
O           -5.38481391909073       -0.03965998180505       -0.04472779641351
C           -4.66305958297546       -1.20320614639824        0.08625588547632
C           -5.38672109106631       -2.37443058757604        0.21599409239209
C           -4.73325559160666       -3.58593427735893        0.38878130729259
C           -3.35439192302332       -3.61068975830860        0.44978077505653
C           -2.62471947230876       -2.43891515597593        0.31706101894701
C           -3.26199877566833       -1.22142454627954        0.10895505275126
N           -2.55710435194912       -0.02125547274071       -0.02578583138106
C           -1.14773474845850       -0.01090221275255       -0.00928140136672
C           -0.46300593970662        0.67592150257794        0.99209291752296
C            0.91546222725261        0.68811817005084        1.00736321797000
C            1.64127653884751        0.01290652009109        0.02434611296379
C            3.08429724636083        0.01024226436410        0.01736199037215
N            3.80661800602260       -0.63248765471746       -0.82753435952386
C            5.13983506376737       -0.46738984310829       -0.61818652981603
C            6.16370715891400       -1.03955798417072       -1.37115914142324
C            7.47120671283983       -0.77006273518273       -1.02881126689435
C            7.77810503404174        0.05864015395089        0.04990182907090
C            6.78107056714385        0.63666818637059        0.81182609111992
C            5.46519769438895        0.37060325524353        0.47385507871074
S            4.00703794279923        0.94038755223995        1.22555222946840
C            0.94970044776363       -0.67655459390140       -0.97751939852407
C           -0.42763828606979       -0.68702960781378       -0.99426782770841
H           -5.35667633651553        4.41574532760077       -0.57736940313348
H           -2.88121824084940        4.49464257402530       -0.66482105774740
H           -1.57539900063537        2.44091642844103       -0.42473943238606
H           -6.48967238108274        2.22164390688823       -0.29042974626177
H           -6.46342220098238       -2.31494214299225        0.18531571803528
H           -5.30621711997347       -4.49461839364060        0.48592781167064
H           -2.83119852301233       -4.54180711228632        0.60485324673574
H           -1.54879765109897       -2.47176286939710        0.38303953006423
H           -1.02061417553314        1.19211301517774        1.75933358187985
H            1.44014044746023        1.21581679882793        1.79056621819301
H            5.91295661875421       -1.67902442735494       -2.20266137758311
H            8.27351287741828       -1.20715281839794       -1.60407423262357
H            8.81138135323278        0.25216890399192        0.29540323822033
H            7.01499117294949        1.27857764156430        1.64706917600391
H            1.51662132616988       -1.18937346062437       -1.73817540563451
H           -0.95906865857510       -1.21138235627855       -1.77449054387003

          :  Hamiltonian                  GFN2-xTB          :
         :: gradient norm              0.000107981427 Eh/a0 ::
         :: HOMO-LUMO gap              1.506753109924 eV    ::
         :: SCC energy               -76.196683017073 Eh    ::
         :: -> dispersion             -0.059652465377 Eh    ::
         :: -> Gsolv                  -0.032043565908 Eh    ::
         :: repulsion energy           1.277348371885 Eh    ::

    * Orbital Energies and Occupations

         #    Occupation            Energy/Eh            Energy/eV
      -------------------------------------------------------------
         1        2.0000           -0.7376179             -20.0716
       ...           ...                  ...                  ...
        57        2.0000           -0.4388441             -11.9416
        58        2.0000           -0.4366029             -11.8806
        59        2.0000           -0.4340083             -11.8100
        60        2.0000           -0.4291437             -11.6776
        61        2.0000           -0.4288462             -11.6695
        62        2.0000           -0.4219535             -11.4819
        63        2.0000           -0.4170113             -11.3475
        64        2.0000           -0.4139119             -11.2631
        65        2.0000           -0.4001199             -10.8878
        66        2.0000           -0.3979818             -10.8296
        67        2.0000           -0.3951062             -10.7514
        68        2.0000           -0.3908133             -10.6346
        69        2.0000           -0.3453862              -9.3984 (HOMO)
        70                         -0.2900142              -7.8917 (LUMO)
        71                         -0.2417210              -6.5776
        72                         -0.2395801              -6.5193
        73                         -0.2382630              -6.4835
        74                         -0.2310070              -6.2860
        75                         -0.2299394              -6.2570
        76                         -0.2162072              -5.8833
        77                         -0.2151935              -5.8557
        78                         -0.1995503              -5.4300
        79                         -0.1906300              -5.1873
        80                         -0.1333672              -3.6291
       ...                                ...                  ...
       137                          0.6739692              18.3396
      -------------------------------------------------------------
                  HL-Gap            0.0553720 Eh            1.5067 eV

     #   Z          covCN         q      C6AA      α(0)
     1   6 C        2.919    -0.041    29.007     8.832
     2   6 C        2.919    -0.039    28.962     8.825
     3   6 C        2.924    -0.060    29.496     8.906
     4   6 C        2.921     0.042    27.061     8.531
     5   6 C        2.883     0.123    25.301     8.246
     6   6 C        2.919    -0.058    29.433     8.897
     7   8 O        1.708    -0.271    18.491     5.806
     8   6 C        2.883     0.123    25.302     8.246
     9   6 C        2.919    -0.058    29.433     8.897
    10   6 C        2.919    -0.040    29.006     8.832
    11   6 C        2.919    -0.039    28.960     8.825
    12   6 C        2.924    -0.060    29.497     8.907
    13   6 C        2.921     0.042    27.061     8.531
    14   7 N        2.751    -0.069    22.572     7.056
    15   6 C        2.920     0.070    26.434     8.431
    16   6 C        2.919    -0.038    28.947     8.823
    17   6 C        2.923    -0.028    28.691     8.784
    18   6 C        2.995     0.001    27.998     8.680
    19   6 C        3.020     0.126    25.222     8.238
    20   7 N        1.929    -0.262    27.640     7.795
    21   6 C        3.192     0.079    25.769     8.278
    22   6 C        2.915    -0.042    29.041     8.837
    23   6 C        2.919    -0.033    28.831     8.805
    24   6 C        2.924    -0.032    28.799     8.801
    25   6 C        2.928    -0.040    28.993     8.830
    26   6 C        2.994     0.025    27.432     8.592
    27  16 S        2.227    -0.115   145.853    20.326
    28   6 C        2.925    -0.025    28.627     8.774
    29   6 C        2.919    -0.037    28.932     8.821
    30   1 H        0.926     0.043     2.415     2.430
    31   1 H        0.926     0.042     2.424     2.435
    32   1 H        0.926     0.040     2.446     2.446
    33   1 H        0.926     0.048     2.341     2.393
    34   1 H        0.926     0.048     2.341     2.393
    35   1 H        0.926     0.043     2.414     2.430
    36   1 H        0.926     0.042     2.422     2.434
    37   1 H        0.926     0.041     2.440     2.443
    38   1 H        0.926     0.052     2.289     2.366
    39   1 H        0.926     0.054     2.273     2.357
    40   1 H        0.926     0.051     2.306     2.375
    41   1 H        0.926     0.046     2.372     2.408
    42   1 H        0.926     0.046     2.366     2.405
    43   1 H        0.926     0.044     2.401     2.423
    44   1 H        0.926     0.062     2.178     2.308
    45   1 H        0.926     0.054     2.270     2.356

molecular dipole:
                 x           y           z       tot (Debye)
 q only:        0.320      -0.027      -0.033
   full:        0.596       0.041       0.054       1.524

 projected vibrational frequencies (cm⁻¹)
eigval :       -0.00    -0.00    -0.00    -0.00     0.00     0.00
eigval :       17.40    21.49    25.33    41.84    62.46    65.13
eigval :       81.18   115.33   138.13   143.72   184.21   189.95
eigval :      243.26   254.62   256.55   263.06   294.06   347.37
eigval :      362.75   372.91   374.21   404.74   407.09   411.68
eigval :      422.64   428.30   446.04   473.73   491.23   507.61
eigval :      519.37   522.54   541.40   548.61   583.02   595.37
eigval :      597.17   603.50   649.71   657.60   658.30   669.43
eigval :      683.29   692.47   700.32   709.82   769.14   777.10
eigval :      777.43   796.41   819.84   853.00   858.06   861.07
eigval :      861.94   865.30   870.61   895.79   896.96   898.39
eigval :      898.97   911.86   913.88   915.32   919.24   922.46
eigval :      930.19   950.72  1020.70  1049.58  1067.43  1089.29
eigval :     1090.71  1105.55  1117.00  1128.59  1144.25  1168.42
eigval :     1172.96  1176.81  1177.91  1184.84  1197.82  1212.59
eigval :     1231.86  1239.89  1241.28  1258.38  1259.77  1293.51
eigval :     1303.59  1309.64  1318.71  1332.55  1334.65  1352.12
eigval :     1400.57  1404.70  1421.77  1440.08  1450.74  1467.90
eigval :     1479.04  1501.18  1536.43  1552.59  1556.21  1565.98
eigval :     1578.44  1580.81  1588.23  1599.17  1601.18  3080.00
eigval :     3082.36  3086.03  3087.87  3088.73  3089.38  3094.07
eigval :     3095.49  3095.91  3097.68  3104.55  3104.93  3105.22
eigval :     3109.15  3109.84  3110.46

   temp. (K)  partition function   enthalpy   heat capacity  entropy
                                   cal/mol     cal/K/mol   cal/K/mol   J/K/mol
 298.15  VIB  0.947E+09            12330.418     81.383     74.617
         ROT  0.226E+08              888.752      2.981     36.634
         INT  0.214E+17            13219.171     84.364    111.251
         TR   0.752E+28             1481.254      4.968     43.774
         TOT                       14700.4245    89.3318   155.0251   648.6252

       T/K    H(0)-H(T)+PV         H(T)/Eh          T*S/Eh         G(T)/Eh
   ------------------------------------------------------------------------
    298.15    0.234266E-01    0.355562E+00    0.736574E-01    0.281905E+00
   ------------------------------------------------------------------------

         :::::::::::::::::::::::::::::::::::::::::::::::::::::
         ::                  THERMODYNAMIC                  ::
         :::::::::::::::::::::::::::::::::::::::::::::::::::::
         :: total free energy         -74.637429829899 Eh   ::
         ::.................................................::
         :: total energy              -74.919334643950 Eh   ::
         :: zero point energy           0.332135643436 Eh   ::
         :: G(RRHO) w/o ZPVE           -0.050230829385 Eh   ::
         :: G(RRHO) contrib.            0.281904814051 Eh   ::
         :::::::::::::::::::::::::::::::::::::::::::::::::::::

           -------------------------------------------------
          | TOTAL ENERGY              -74.919334643950 Eh   |
          | TOTAL ENTHALPY            -74.563772382979 Eh   |
          | TOTAL FREE ENERGY         -74.637429829899 Eh   |
          | GRADIENT NORM               0.000107981527 Eh/α |
          | HOMO-LUMO GAP               1.506749890838 eV   |
           -------------------------------------------------

 * finished run on 2025/09/04 at 13:20:22.122
