   * xtb version 6.7.1 (edcfbbe) compiled by 'albert@albert-system' on 2024-07-22

   ID    Z sym.   atoms
    1    6 C      1-6, 8-13, 15-19, 21-26, 28, 29
    2    8 O      7
    3    7 N      14, 20
    4   16 S      27
    5    1 H      30-45

          program call               : xtb data2507/toluene/BTaz-Ar-PXZ/BTaz-Ar-PXZ_toluene_S0_finalOpt.xtbopt.xyz --gfn 2 --uhf 2 --gbsa toluene --ohess vtight --parallel 40 --molden --ceasefiles --namespace data2507/toluene/BTaz-Ar-PXZ/BTaz-Ar-PXZ_toluene_T1_preOpt
      * Solvation model:               GBSA
        Solvent                        toluene
        Solvent mass                       9.2140E+01 g/mol
          :  Hamiltonian                  GFN2-xTB          :
 * total energy  :   -74.8356516 Eh     change       -0.7693458E-08 Eh
 * total energy  :   -74.8416508 Eh     change       -0.5999199E-02 Eh
 * total energy  :   -74.8434239 Eh     change       -0.1773129E-02 Eh
 * total energy  :   -74.8435008 Eh     change       -0.7687670E-04 Eh
 * total energy  :   -74.8435567 Eh     change       -0.5588368E-04 Eh
 * total energy  :   -74.8435743 Eh     change       -0.1765149E-04 Eh
 * total energy  :   -74.8435933 Eh     change       -0.1890654E-04 Eh
 * total energy  :   -74.8436145 Eh     change       -0.2122289E-04 Eh
 * total energy  :   -74.8436248 Eh     change       -0.1027518E-04 Eh
 * total energy  :   -74.8436334 Eh     change       -0.8680010E-05 Eh
 * total energy  :   -74.8436408 Eh     change       -0.8367870E-06 Eh
 * total energy  :   -74.8436413 Eh     change       -0.5493464E-06 Eh
 * total energy  :   -74.8436417 Eh     change       -0.3952434E-06 Eh
 * total energy  :   -74.8436420 Eh     change       -0.3229158E-06 Eh
 * total energy  :   -74.8436423 Eh     change       -0.2797161E-06 Eh
 * total energy  :   -74.8436425 Eh     change       -0.2118536E-06 Eh
 * total energy  :   -74.8436427 Eh     change       -0.2037983E-06 Eh
 * total energy  :   -74.8436429 Eh     change       -0.1845887E-06 Eh
 * total energy  :   -74.8436429 Eh     change       -0.6859096E-08 Eh
   *** GEOMETRY OPTIMIZATION CONVERGED AFTER 22 ITERATIONS ***

 final structure:
================
45
 xtb: 6.7.1 (edcfbbe)
C           -4.76958210719953        3.51015387538097       -0.42869203601634
C           -3.38346448603367        3.54877650411681       -0.49651374612645
C           -2.64093839938198        2.39137438386289       -0.37349745752243
C           -3.26989351863187        1.16087953841125       -0.16238987271242
C           -4.67809873178367        1.12819066242974       -0.15092732099754
C           -5.41555002582326        2.29727119804242       -0.27146807005958
O           -5.37320278929877       -0.03821999567517       -0.04931676646068
C           -4.66665007711188       -1.19657824230444        0.06552866909153
C           -5.39281908876543       -2.37414442550630        0.17103020086924
C           -4.73611652631827       -3.57958167648199        0.34042677754247
C           -3.35116096224832       -3.60233257904764        0.43464002983876
C           -2.61971188868092       -2.43625454604825        0.32794759623172
C           -3.25871420124529       -1.21289702517740        0.10587628131097
N           -2.55726564879631       -0.02171462684740       -0.01993958843483
C           -1.15428995472469       -0.01323410532689       -0.00397466354516
C           -0.45495465785355        0.75501837888613        0.95107787464012
C            0.90652626076268        0.75594544858214        0.97835601067091
C            1.66544160384285        0.01029242099025        0.02522241033982
C            3.05278883883041        0.00694231711909        0.01414737076100
N            3.82013032719093       -0.66078820530233       -0.84023844834782
C            5.11834728081691       -0.48021440668691       -0.62250749865305
C            6.16776899683155       -1.05506886373757       -1.36587362851056
C            7.46840288390993       -0.77467436917944       -1.02430345655645
C            7.77662085104635        0.06952556043828        0.04556894337995
C            6.76735694163981        0.65452329809940        0.79942344617176
C            5.45850319593020        0.38272332403304        0.47002762575015
S            4.01164173919709        0.97159298936453        1.22768326079923
C            0.93747589702326       -0.75173395237327       -0.94419194225693
C           -0.42279535593846       -0.77228927957785       -0.94448791486504
H           -5.34578503042472        4.41699889493754       -0.51871064050836
H           -2.87523739603524        4.48704806105266       -0.65429032197806
H           -1.56663915754456        2.42819619071728       -0.45066803225374
H           -6.49115628999538        2.22731029809629       -0.24805102326850
H           -6.46848835925496       -2.31645585846223        0.12645135421661
H           -5.30345839196430       -4.49308868957430        0.41850666909615
H           -2.83529507055270       -4.53491354299363        0.60102130290278
H           -1.54677833818977       -2.46101075726585        0.42597403661256
H           -1.01545866841391        1.30628219225186        1.69247382034324
H            1.43918371367411        1.31610902435897        1.73258569388141
H            5.92305612764034       -1.70600053151187       -2.19081005401958
H            8.27451198011256       -1.21516421203790       -1.59389861842589
H            8.80846879757984        0.27068933365127        0.29091530042517
H            7.00066747477336        1.30895682522530        1.62644295578044
H            1.50797340181277       -1.29700459201204       -1.67871451616779
H           -0.96031650580863       -1.33248299460640       -1.69613501300384

          :  Hamiltonian                  GFN2-xTB          :
         :: gradient norm              0.000048143990 Eh/a0 ::
         :: HOMO-LUMO gap              0.445318155147 eV    ::
         :: SCC energy               -76.106197904610 Eh    ::
         :: -> dispersion             -0.059672597260 Eh    ::
         :: -> Gsolv                  -0.040016038876 Eh    ::
         :: repulsion energy           1.262554970150 Eh    ::

    * Orbital Energies and Occupations

         #    Occupation            Energy/Eh            Energy/eV
      -------------------------------------------------------------
         1        2.0000           -0.7609033             -20.7052
       ...           ...                  ...                  ...
        58        2.0000           -0.4347038             -11.8289
        59        2.0000           -0.4334979             -11.7961
        60        2.0000           -0.4261299             -11.5956
        61        2.0000           -0.4225297             -11.4976
        62        2.0000           -0.4185356             -11.3889
        63        2.0000           -0.4165220             -11.3341
        64        2.0000           -0.4115726             -11.1995
        65        2.0000           -0.4094122             -11.1407
        66        2.0000           -0.3760293             -10.2323
        67        1.9999           -0.3759895             -10.2312
        68        1.9996           -0.3741094             -10.1800
        69        1.0005           -0.3593287              -9.7778
        70        0.9998           -0.2796310              -7.6091 (HOMO)
        71        0.0002           -0.2632652              -7.1638 (LUMO)
        72                         -0.2499109              -6.8004
        73                         -0.2367146              -6.4413
        74                         -0.2226050              -6.0574
        75                         -0.2207946              -6.0081
        76                         -0.2199288              -5.9846
        77                         -0.2090250              -5.6879
        78                         -0.1976822              -5.3792
        79                         -0.1739171              -4.7325
        80                         -0.1252003              -3.4069
        81                         -0.1165132              -3.1705
       ...                                ...                  ...
       137                          0.6872369              18.7007
      -------------------------------------------------------------
                  HL-Gap            0.0163657 Eh            0.4453 eV

     #   Z          covCN         q      C6AA      α(0)
     1   6 C        2.919    -0.026    28.641     8.776
     2   6 C        2.917    -0.028    28.688     8.783
     3   6 C        2.920    -0.046    29.149     8.854
     4   6 C        2.926     0.044    27.023     8.525
     5   6 C        2.887     0.134    25.076     8.210
     6   6 C        2.916    -0.050    29.248     8.868
     7   8 O        1.710    -0.216    17.585     5.662
     8   6 C        2.887     0.134    25.076     8.210
     9   6 C        2.916    -0.050    29.247     8.868
    10   6 C        2.919    -0.026    28.640     8.776
    11   6 C        2.918    -0.027    28.687     8.783
    12   6 C        2.920    -0.046    29.151     8.854
    13   6 C        2.926     0.044    27.023     8.525
    14   7 N        2.750     0.004    21.195     6.838
    15   6 C        2.922     0.026    27.428     8.588
    16   6 C        2.911    -0.039    28.965     8.825
    17   6 C        2.916    -0.042    29.053     8.839
    18   6 C        2.988    -0.007    28.188     8.709
    19   6 C        3.004     0.103    25.702     8.316
    20   7 N        1.899    -0.313    28.974     7.980
    21   6 C        3.155     0.093    25.654     8.282
    22   6 C        2.913    -0.060    29.494     8.905
    23   6 C        2.915    -0.037    28.917     8.818
    24   6 C        2.921    -0.045    29.127     8.850
    25   6 C        2.928    -0.050    29.239     8.868
    26   6 C        2.986     0.029    27.344     8.578
    27  16 S        2.181    -0.209   149.963    20.611
    28   6 C        2.919    -0.039    28.974     8.827
    29   6 C        2.910    -0.040    28.982     8.828
    30   1 H        0.926     0.063     2.162     2.300
    31   1 H        0.926     0.060     2.196     2.318
    32   1 H        0.926     0.062     2.172     2.304
    33   1 H        0.926     0.069     2.095     2.263
    34   1 H        0.926     0.069     2.095     2.263
    35   1 H        0.926     0.063     2.162     2.299
    36   1 H        0.926     0.060     2.194     2.316
    37   1 H        0.926     0.063     2.166     2.302
    38   1 H        0.926     0.040     2.448     2.447
    39   1 H        0.926     0.036     2.506     2.475
    40   1 H        0.926     0.032     2.556     2.500
    41   1 H        0.926     0.030     2.590     2.516
    42   1 H        0.926     0.029     2.604     2.524
    43   1 H        0.926     0.025     2.654     2.548
    44   1 H        0.926     0.044     2.401     2.423
    45   1 H        0.926     0.041     2.429     2.437

molecular dipole:
                 x           y           z       tot (Debye)
 q only:       -5.440      -0.094      -0.106
   full:       -4.999      -0.052      -0.056      12.708

 projected vibrational frequencies (cm⁻¹)
eigval :       -0.00    -0.00    -0.00     0.00     0.00     0.00
eigval :       19.08    30.38    36.73    55.77    58.38    84.79
eigval :       88.05   123.74   129.71   142.33   181.06   199.26
eigval :      236.86   237.32   257.15   266.40   303.60   313.11
eigval :      362.79   376.97   385.21   396.81   402.05   405.21
eigval :      407.07   435.99   438.09   476.79   480.50   480.85
eigval :      495.13   517.42   532.96   534.97   540.92   577.97
eigval :      588.99   595.33   632.98   639.78   641.75   664.12
eigval :      668.38   675.45   689.12   698.18   750.06   775.07
eigval :      778.55   789.79   796.32   821.42   840.84   850.03
eigval :      856.77   869.13   869.67   880.72   885.46   898.19
eigval :      901.16   907.20   907.32   910.87   911.66   912.81
eigval :      922.29   922.96   978.25  1030.27  1060.68  1081.79
eigval :     1083.36  1114.56  1118.43  1124.12  1140.21  1156.75
eigval :     1166.14  1169.14  1175.36  1184.65  1202.24  1212.03
eigval :     1218.45  1231.48  1233.88  1246.34  1250.48  1284.63
eigval :     1305.48  1316.36  1319.96  1328.91  1340.64  1351.50
eigval :     1385.54  1392.37  1404.59  1406.88  1425.81  1434.67
eigval :     1441.04  1463.52  1480.98  1501.06  1536.59  1542.49
eigval :     1548.86  1549.91  1558.83  1574.38  1594.31  3068.08
eigval :     3071.47  3073.84  3075.24  3085.37  3088.09  3096.00
eigval :     3097.64  3099.00  3105.90  3106.47  3108.07  3115.38
eigval :     3115.71  3119.24  3119.71

   temp. (K)  partition function   enthalpy   heat capacity  entropy
                                   cal/mol     cal/K/mol   cal/K/mol   J/K/mol
 298.15  VIB  0.326E+09            12440.268     83.273     74.704
         ROT  0.226E+08              888.752      2.981     36.632
         INT  0.736E+16            13329.020     86.254    111.336
         TR   0.752E+28             1481.254      4.968     43.774
         TOT                       14810.2740    91.2224   155.1094   648.9777

       T/K    H(0)-H(T)+PV         H(T)/Eh          T*S/Eh         G(T)/Eh
   ------------------------------------------------------------------------
    298.15    0.236017E-01    0.353200E+00    0.736975E-01    0.279502E+00
   ------------------------------------------------------------------------

         :::::::::::::::::::::::::::::::::::::::::::::::::::::
         ::                  THERMODYNAMIC                  ::
         :::::::::::::::::::::::::::::::::::::::::::::::::::::
         :: total free energy         -74.564140608628 Eh   ::
         ::.................................................::
         :: total energy              -74.843642934150 Eh   ::
         :: zero point energy           0.329598134173 Eh   ::
         :: G(RRHO) w/o ZPVE           -0.050095808652 Eh   ::
         :: G(RRHO) contrib.            0.279502325522 Eh   ::
         :::::::::::::::::::::::::::::::::::::::::::::::::::::

           -------------------------------------------------
          | TOTAL ENERGY              -74.843642934150 Eh   |
          | TOTAL ENTHALPY            -74.490443126125 Eh   |
          | TOTAL FREE ENERGY         -74.564140608628 Eh   |
          | GRADIENT NORM               0.000048230921 Eh/α |
          | HOMO-LUMO GAP               0.445334364712 eV   |
           -------------------------------------------------

 * finished run on 2025/09/04 at 13:20:24.292
