   * xtb version 6.7.1 (edcfbbe) compiled by 'albert@albert-system' on 2024-07-22

   ID    Z sym.   atoms
    1    6 C      1-6, 8-13, 15-19, 21-26, 28, 29
    2    8 O      7
    3    7 N      14, 20
    4   16 S      27
    5    1 H      30-45

          program call               : xtb data2507/toluene/BTaz-Ar-PXZ/BTaz-Ar-PXZ.xyz --gfn 2 --gbsa toluene --ohess vtight --parallel 40 --molden --ceasefiles --namespace data2507/toluene/BTaz-Ar-PXZ/BTaz-Ar-PXZ_toluene_S0_preOpt
      * Solvation model:               GBSA
        Solvent                        toluene
        Solvent mass                       9.2140E+01 g/mol
          :  Hamiltonian                  GFN2-xTB          :
 * total energy  :   -74.9054464 Eh     change       -0.5773444E-09 Eh
 * total energy  :   -74.9138888 Eh     change       -0.8442393E-02 Eh
 * total energy  :   -74.9170957 Eh     change       -0.3206947E-02 Eh
 * total energy  :   -74.9179113 Eh     change       -0.8155597E-03 Eh
 * total energy  :   -74.9182688 Eh     change       -0.3574558E-03 Eh
 * total energy  :   -74.9183461 Eh     change       -0.7734233E-04 Eh
 * total energy  :   -74.9183628 Eh     change       -0.1669860E-04 Eh
 * total energy  :   -74.9183668 Eh     change       -0.4022077E-05 Eh
 * total energy  :   -74.9183676 Eh     change       -0.8015958E-06 Eh
 * total energy  :   -74.9183681 Eh     change       -0.4511651E-06 Eh
 * total energy  :   -74.9183683 Eh     change       -0.1986340E-06 Eh
 * total energy  :   -74.9183685 Eh     change       -0.2377466E-06 Eh
 * total energy  :   -74.9183688 Eh     change       -0.3025346E-06 Eh
 * total energy  :   -74.9183691 Eh     change       -0.2995576E-06 Eh
 * total energy  :   -74.9183693 Eh     change       -0.1914479E-06 Eh
 * total energy  :   -74.9183694 Eh     change       -0.9432704E-07 Eh
   *** GEOMETRY OPTIMIZATION CONVERGED AFTER 16 ITERATIONS ***

 final structure:
================
45
 xtb: 6.7.1 (edcfbbe)
C           -4.59157786801195        3.57893722166046        0.08203715847365
C           -3.21383922907216        3.61188304567558        0.01085108867868
C           -2.48596186650890        2.43132340481137       -0.02967762101634
C           -3.13030313859837        1.20161775919367        0.00014223416817
C           -4.52982357463294        1.17720241120251        0.07217119004676
C           -5.24932712148515        2.35582143555111        0.11271217006984
O           -5.24527380162252       -0.00011266525818        0.10520942269228
C           -4.52973231893833       -1.17736949265000        0.07206376344648
C           -5.24914871529137       -2.35604760516970        0.11242835825311
C           -4.59130843021901       -3.57910998290819        0.08157752152106
C           -3.21356825281591       -3.61194246685454        0.01036677995812
C           -2.48577815664947       -2.43132311593178       -0.02998851467131
C           -3.13020848999901       -1.20166970436067        0.00006177201369
N           -2.42803531130685        0.00000270055297       -0.04104601546689
C           -1.00864502991538        0.00006241666214       -0.09160744332857
C           -0.27014632676056       -0.00069458391611        1.08794269146667
C            1.10828372535272       -0.00061674317433        1.03929561146027
C            1.77020820507913        0.00019599911447       -0.19218937000288
C            3.21590788697893        0.00022360220150       -0.21610044112818
N            3.95865882733111       -0.00041245858092        0.83047541409431
C            5.28636524902843       -0.00025409931096        0.53725135218688
C            6.32948873960441       -0.00085760349187        1.46185906074719
C            7.62741861415904       -0.00063445314265        0.99908065034790
C            7.90620335160572        0.00017952616539       -0.36750629241720
C            6.89004594728801        0.00080365385338       -1.30317308556179
C            5.58305377280072        0.00057427011910       -0.84579217194634
S            4.10605682643580        0.00115471895285       -1.75814681480208
C            1.02218905055832        0.00094713028017       -1.36983157067851
C           -0.35741317241370        0.00088655661310       -1.32028674009152
H           -5.16322971965751        4.49321035619256        0.11377971809528
H           -2.69059764871251        4.55561001837256       -0.01357563023378
H           -1.40860615887359        2.46178403471013       -0.08411703194034
H           -6.32524403709960        2.29827660968904        0.16810189321006
H           -6.32507095933082       -2.29859041903191        0.16780681997773
H           -5.16289278760987       -4.49343035707966        0.11317571983857
H           -2.69025882552108       -4.55562722144369       -0.01423843344967
H           -1.40842349429246       -2.46169875408641       -0.08449873133823
H           -0.78525801721875       -0.00133331844577        2.03693990854517
H            1.69595415784933       -0.00119225308576        1.94348436603754
H            6.10097643817734       -0.00148019673270        2.51581290964318
H            8.44459878255682       -0.00109308271863        1.70457290242275
H            8.93287728622644        0.00033074740254       -0.70101434101815
H            7.10207949924045        0.00142875323748       -2.36116402847199
H            1.52733683048800        0.00156225271104       -2.32465384026940
H           -0.93803073820306        0.00147295244926       -2.23059135956208

          :  Hamiltonian                  GFN2-xTB          :
         :: gradient norm              0.000054097632 Eh/a0 ::
         :: HOMO-LUMO gap              1.347303046002 eV    ::
         :: SCC energy               -76.196385819058 Eh    ::
         :: -> dispersion             -0.059524717245 Eh    ::
         :: -> Gsolv                  -0.032420001824 Eh    ::
         :: repulsion energy           1.278016422192 Eh    ::

    * Orbital Energies and Occupations

         #    Occupation            Energy/Eh            Energy/eV
      -------------------------------------------------------------
         1        2.0000           -0.7398880             -20.1334
       ...           ...                  ...                  ...
        57        2.0000           -0.4387543             -11.9391
        58        2.0000           -0.4360874             -11.8665
        59        2.0000           -0.4353085             -11.8453
        60        2.0000           -0.4301804             -11.7058
        61        2.0000           -0.4281296             -11.6500
        62        2.0000           -0.4247499             -11.5580
        63        2.0000           -0.4149894             -11.2924
        64        2.0000           -0.4123545             -11.2207
        65        2.0000           -0.4023612             -10.9488
        66        2.0000           -0.3993349             -10.8665
        67        2.0000           -0.3961489             -10.7798
        68        2.0000           -0.3904875             -10.6257
        69        2.0000           -0.3424886              -9.3196 (HOMO)
        70                         -0.2929761              -7.9723 (LUMO)
        71                         -0.2450812              -6.6690
        72                         -0.2398780              -6.5274
        73                         -0.2373479              -6.4586
        74                         -0.2306822              -6.2772
        75                         -0.2292015              -6.2369
        76                         -0.2171153              -5.9080
        77                         -0.2147011              -5.8423
        78                         -0.1963829              -5.3439
        79                         -0.1955383              -5.3209
        80                         -0.1351535              -3.6777
       ...                                ...                  ...
       137                          0.6748589              18.3638
      -------------------------------------------------------------
                  HL-Gap            0.0495125 Eh            1.3473 eV

     #   Z          covCN         q      C6AA      α(0)
     1   6 C        2.919    -0.043    29.057     8.840
     2   6 C        2.919    -0.039    28.974     8.827
     3   6 C        2.923    -0.062    29.536     8.912
     4   6 C        2.923     0.044    27.022     8.525
     5   6 C        2.880     0.121    25.331     8.251
     6   6 C        2.919    -0.059    29.455     8.900
     7   8 O        1.708    -0.276    18.573     5.819
     8   6 C        2.880     0.121    25.331     8.251
     9   6 C        2.919    -0.059    29.455     8.900
    10   6 C        2.919    -0.043    29.057     8.840
    11   6 C        2.919    -0.039    28.974     8.827
    12   6 C        2.923    -0.062    29.536     8.912
    13   6 C        2.923     0.044    27.022     8.525
    14   7 N        2.752    -0.078    22.762     7.086
    15   6 C        2.922     0.073    26.372     8.421
    16   6 C        2.919    -0.034    28.838     8.806
    17   6 C        2.925    -0.024    28.599     8.770
    18   6 C        2.995     0.005    27.898     8.664
    19   6 C        3.021     0.125    25.246     8.242
    20   7 N        1.930    -0.257    27.523     7.779
    21   6 C        3.194     0.078    25.769     8.277
    22   6 C        2.914    -0.041    29.014     8.833
    23   6 C        2.919    -0.033    28.815     8.803
    24   6 C        2.924    -0.031    28.773     8.797
    25   6 C        2.928    -0.039    28.977     8.828
    26   6 C        2.994     0.025    27.432     8.592
    27  16 S        2.228    -0.106   145.496    20.301
    28   6 C        2.923    -0.027    28.665     8.780
    29   6 C        2.919    -0.034    28.856     8.809
    30   1 H        0.926     0.040     2.444     2.445
    31   1 H        0.926     0.040     2.452     2.449
    32   1 H        0.926     0.035     2.519     2.482
    33   1 H        0.926     0.046     2.369     2.407
    34   1 H        0.926     0.046     2.369     2.407
    35   1 H        0.926     0.040     2.444     2.445
    36   1 H        0.926     0.040     2.452     2.449
    37   1 H        0.926     0.035     2.519     2.482
    38   1 H        0.926     0.055     2.253     2.347
    39   1 H        0.926     0.065     2.139     2.287
    40   1 H        0.926     0.053     2.287     2.365
    41   1 H        0.926     0.047     2.354     2.399
    42   1 H        0.926     0.048     2.347     2.396
    43   1 H        0.926     0.045     2.382     2.413
    44   1 H        0.926     0.057     2.230     2.335
    45   1 H        0.926     0.055     2.263     2.352

molecular dipole:
                 x           y           z       tot (Debye)
 q only:        0.884      -0.000      -0.001
   full:        1.148       0.000      -0.113       2.932

 projected vibrational frequencies (cm⁻¹)
eigval :       -0.00    -0.00    -0.00     0.00     0.00     0.00
eigval :      -31.12    18.33    24.46    31.38    46.14    60.21
eigval :       81.59   117.87   133.54   137.05   181.78   184.63
eigval :      248.73   248.89   250.23   264.77   290.65   346.43
eigval :      363.28   364.01   373.87   405.60   406.84   411.63
eigval :      422.44   424.79   442.62   470.99   491.77   513.44
eigval :      519.45   522.69   542.09   548.76   583.69   594.81
eigval :      596.78   602.51   651.14   661.11   662.17   670.88
eigval :      682.74   696.16   701.52   710.90   774.67   778.74
eigval :      779.50   794.99   817.26   850.57   858.92   863.17
eigval :      863.22   867.11   870.33   895.63   897.04   900.15
eigval :      906.18   914.80   914.91   915.27   921.27   923.46
eigval :      927.56   951.91  1021.30  1051.30  1069.70  1087.32
eigval :     1088.58  1104.38  1115.20  1125.47  1148.49  1169.53
eigval :     1173.87  1176.30  1178.62  1181.78  1192.76  1209.31
eigval :     1234.08  1238.95  1240.93  1255.67  1258.53  1293.53
eigval :     1305.74  1310.46  1318.65  1333.99  1339.44  1357.15
eigval :     1399.97  1400.53  1422.85  1441.30  1451.04  1469.48
eigval :     1484.41  1505.55  1541.55  1555.50  1558.39  1565.27
eigval :     1580.03  1585.04  1589.21  1599.79  1603.78  3082.50
eigval :     3084.82  3085.84  3085.92  3090.63  3090.98  3093.46
eigval :     3093.47  3096.07  3099.47  3100.21  3100.62  3106.60
eigval :     3106.79  3107.37  3111.13

   temp. (K)  partition function   enthalpy   heat capacity  entropy
                                   cal/mol     cal/K/mol   cal/K/mol   J/K/mol
 298.15  VIB  0.181E+09            11834.313     79.810     70.623
         ROT  0.226E+08              888.752      2.981     36.630
         INT  0.409E+16            12723.065     82.791    107.253
         TR   0.752E+28             1481.254      4.968     43.774
         TOT                       14204.3189    87.7593   151.0263   631.8940

       T/K    H(0)-H(T)+PV         H(T)/Eh          T*S/Eh         G(T)/Eh
   ------------------------------------------------------------------------
    298.15    0.226360E-01    0.354708E+00    0.717575E-01    0.282950E+00
   ------------------------------------------------------------------------

         :::::::::::::::::::::::::::::::::::::::::::::::::::::
         ::                  THERMODYNAMIC                  ::
         :::::::::::::::::::::::::::::::::::::::::::::::::::::
         :: total free energy         -74.635419096076 Eh   ::
         ::.................................................::
         :: total energy              -74.918369399295 Eh   ::
         :: zero point energy           0.332071740076 Eh   ::
         :: G(RRHO) w/o ZPVE           -0.049121436856 Eh   ::
         :: G(RRHO) contrib.            0.282950303220 Eh   ::
         :::::::::::::::::::::::::::::::::::::::::::::::::::::

           -------------------------------------------------
          | TOTAL ENERGY              -74.918369399295 Eh   |
          | TOTAL ENTHALPY            -74.563661636236 Eh   |
          | TOTAL FREE ENERGY         -74.635419096076 Eh   |
          | GRADIENT NORM               0.000054096366 Eh/α |
          | HOMO-LUMO GAP               1.347304219976 eV   |
           -------------------------------------------------

 * finished run on 2025/09/04 at 13:19:18.015
