   * xtb version 6.7.1 (edcfbbe) compiled by 'albert@albert-system' on 2024-07-22

   ID    Z sym.   atoms
    1    6 C      1-6, 8-13, 15-19, 21-26, 28, 29
    2    8 O      7
    3    7 N      14, 20
    4   16 S      27
    5    1 H      30-45

          program call               : xtb data2507/toluene/BTaz-Ar-PXZ/BTaz-Ar-PXZ_toluene_T1_crest.xyz --gfn 2 --uhf 2 --gbsa toluene --ohess vtight --parallel 40 --molden --ceasefiles --namespace data2507/toluene/BTaz-Ar-PXZ/BTaz-Ar-PXZ_toluene_T1_finalOpt
      * Solvation model:               GBSA
        Solvent                        toluene
        Solvent mass                       9.2140E+01 g/mol
          :  Hamiltonian                  GFN2-xTB          :
 * total energy  :   -74.8435384 Eh     change       -0.1443965E-08 Eh
 * total energy  :   -74.8436105 Eh     change       -0.7205570E-04 Eh
 * total energy  :   -74.8436362 Eh     change       -0.2570530E-04 Eh
 * total energy  :   -74.8436391 Eh     change       -0.2898269E-05 Eh
 * total energy  :   -74.8436401 Eh     change       -0.1039973E-05 Eh
 * total energy  :   -74.8436408 Eh     change       -0.6747589E-06 Eh
 * total energy  :   -74.8436415 Eh     change       -0.7035875E-06 Eh
 * total energy  :   -74.8436423 Eh     change       -0.8003839E-06 Eh
 * total energy  :   -74.8436432 Eh     change       -0.8651677E-06 Eh
 * total energy  :   -74.8436439 Eh     change       -0.7387019E-06 Eh
 * total energy  :   -74.8436444 Eh     change       -0.5239277E-06 Eh
 * total energy  :   -74.8436448 Eh     change       -0.3956408E-06 Eh
 * total energy  :   -74.8436452 Eh     change       -0.3322521E-06 Eh
 * total energy  :   -74.8436455 Eh     change       -0.3143806E-06 Eh
 * total energy  :   -74.8436458 Eh     change       -0.2776332E-06 Eh
 * total energy  :   -74.8436460 Eh     change       -0.2067254E-06 Eh
 * total energy  :   -74.8436461 Eh     change       -0.1696620E-06 Eh
 * total energy  :   -74.8436463 Eh     change       -0.1294358E-06 Eh
 * total energy  :   -74.8436464 Eh     change       -0.9418137E-07 Eh
   *** GEOMETRY OPTIMIZATION CONVERGED AFTER 19 ITERATIONS ***

 final structure:
================
45
 xtb: 6.7.1 (edcfbbe)
C           -4.72925985489747        3.57844400148615        0.38734592542177
C           -3.34456147465310        3.59667615363538        0.48632707274288
C           -2.61540108803612        2.43055786220517        0.36567030541562
C           -3.25636409196357        1.21180778703053        0.12440549264139
C           -4.66424423811947        1.19915057045163        0.08085017562450
C           -5.38810090083976        2.37688194083676        0.19975552887850
O           -5.37303847725570        0.04391571184652       -0.05021384965634
C           -4.68019592178746       -1.12239975140064       -0.16716383135983
C           -5.42002327109171       -2.28807464042285       -0.30478596401866
C           -4.77659461597069       -3.49989344983958       -0.47952874899477
C           -3.39056296779146       -3.54031392139621       -0.54793670861367
C           -2.64567415149346       -2.38640310854188       -0.40772173487706
C           -3.27204580485147       -1.15780667056223       -0.17848431565757
N           -2.55710006282672        0.02114626289850       -0.01801585499416
C           -1.15422500271551        0.01047240684578       -0.00328068642572
C           -0.45457603622701       -0.77544334656826        0.93715439543307
C            0.90693203906369       -0.77720033935946        0.96381532433786
C            1.66560228134083       -0.01337231955090        0.02501312121241
C            3.05294360703141       -0.00787615788103        0.01489034531705
N            3.81941662230275        0.67600575159628       -0.82750730743034
C            5.11785448205966        0.49492708409192       -0.61157554484229
C            6.16665002696089        1.08501322813815       -1.34381454098902
C            7.46760224873113        0.80222195737688       -1.00545038094142
C            7.77678822577620       -0.05923311390836        0.05028915554020
C            6.76816359089503       -0.65947882748289        0.79293120087472
C            5.45899736113973       -0.38547853213584        0.46659971485485
S            4.01279065777323       -0.99063506155940        1.21261980752087
C            0.93748720024739        0.76581590810413       -0.93049973114514
C           -0.42274315654684        0.78605939484721       -0.93037266763667
H           -5.29475248646934        4.49215849170757        0.47566212986838
H           -2.82706739495420        4.52562567202644        0.66731562219610
H           -1.54274376424181        2.45167397204675        0.46753309319705
H           -6.46376024188755        2.32223866153625        0.15137838718129
H           -6.49548890641485       -2.21621195299271       -0.28066007583341
H           -5.35467237615893       -4.40413675197073       -0.58270522998128
H           -2.88420169491120       -4.47716413688593       -0.71954572761960
H           -1.57148498957733       -2.42443910724463       -0.48580427126194
H           -1.01467440804373       -1.34017807143585        1.66863301712699
H            1.43982084177562       -1.35157937107485        1.70712032128003
H            5.92127082617965        1.74905973239040       -2.15806250376099
H            8.27323853230435        1.25450991534075       -1.56640623708526
H            8.80888154241977       -0.26189146571396        0.29337837363906
H            7.00213733414689       -1.32686983941688        1.60937036540801
H            1.50793038513962        1.32455224496375       -1.65487912141284
H           -0.96028274016155        1.35961625864206       -1.67183271307487

          :  Hamiltonian                  GFN2-xTB          :
         :: gradient norm              0.000060350255 Eh/a0 ::
         :: HOMO-LUMO gap              0.445458455156 eV    ::
         :: SCC energy               -76.106180579996 Eh    ::
         :: -> dispersion             -0.059674744488 Eh    ::
         :: -> Gsolv                  -0.040013500067 Eh    ::
         :: repulsion energy           1.262534220066 Eh    ::

    * Orbital Energies and Occupations

         #    Occupation            Energy/Eh            Energy/eV
      -------------------------------------------------------------
         1        2.0000           -0.7608918             -20.7049
       ...           ...                  ...                  ...
        58        2.0000           -0.4347095             -11.8290
        59        2.0000           -0.4334639             -11.7952
        60        2.0000           -0.4261365             -11.5958
        61        2.0000           -0.4225383             -11.4979
        62        2.0000           -0.4185501             -11.3893
        63        2.0000           -0.4165422             -11.3347
        64        2.0000           -0.4115651             -11.1993
        65        2.0000           -0.4093761             -11.1397
        66        2.0000           -0.3760319             -10.2323
        67        1.9999           -0.3759957             -10.2314
        68        1.9996           -0.3741422             -10.1809
        69        1.0005           -0.3592890              -9.7768
        70        0.9998           -0.2796304              -7.6091 (HOMO)
        71        0.0002           -0.2632608              -7.1637 (LUMO)
        72                         -0.2498970              -6.8000
        73                         -0.2367106              -6.4412
        74                         -0.2226032              -6.0573
        75                         -0.2208108              -6.0086
        76                         -0.2199306              -5.9846
        77                         -0.2089842              -5.6867
        78                         -0.1976788              -5.3791
        79                         -0.1739165              -4.7325
        80                         -0.1252040              -3.4070
        81                         -0.1164959              -3.1700
       ...                                ...                  ...
       137                          0.6872141              18.7000
      -------------------------------------------------------------
                  HL-Gap            0.0163695 Eh            0.4454 eV

     #   Z          covCN         q      C6AA      α(0)
     1   6 C        2.919    -0.026    28.640     8.776
     2   6 C        2.918    -0.027    28.688     8.783
     3   6 C        2.920    -0.046    29.151     8.854
     4   6 C        2.926     0.044    27.024     8.525
     5   6 C        2.887     0.134    25.076     8.210
     6   6 C        2.916    -0.050    29.248     8.868
     7   8 O        1.710    -0.216    17.585     5.662
     8   6 C        2.887     0.134    25.076     8.210
     9   6 C        2.916    -0.050    29.248     8.868
    10   6 C        2.919    -0.026    28.641     8.776
    11   6 C        2.918    -0.028    28.689     8.783
    12   6 C        2.920    -0.046    29.149     8.854
    13   6 C        2.926     0.044    27.024     8.525
    14   7 N        2.750     0.004    21.194     6.837
    15   6 C        2.922     0.026    27.427     8.588
    16   6 C        2.911    -0.039    28.965     8.825
    17   6 C        2.916    -0.042    29.053     8.839
    18   6 C        2.988    -0.007    28.188     8.709
    19   6 C        3.004     0.103    25.702     8.316
    20   7 N        1.899    -0.313    28.975     7.980
    21   6 C        3.155     0.093    25.654     8.282
    22   6 C        2.913    -0.060    29.494     8.905
    23   6 C        2.915    -0.037    28.917     8.818
    24   6 C        2.921    -0.045    29.127     8.850
    25   6 C        2.928    -0.050    29.239     8.868
    26   6 C        2.986     0.029    27.344     8.578
    27  16 S        2.181    -0.209   149.958    20.610
    28   6 C        2.919    -0.039    28.974     8.827
    29   6 C        2.910    -0.040    28.982     8.828
    30   1 H        0.926     0.063     2.162     2.299
    31   1 H        0.926     0.060     2.194     2.316
    32   1 H        0.926     0.063     2.166     2.302
    33   1 H        0.926     0.069     2.095     2.264
    34   1 H        0.926     0.069     2.095     2.263
    35   1 H        0.926     0.063     2.163     2.300
    36   1 H        0.926     0.060     2.196     2.318
    37   1 H        0.926     0.062     2.171     2.304
    38   1 H        0.926     0.040     2.447     2.446
    39   1 H        0.926     0.036     2.506     2.476
    40   1 H        0.926     0.032     2.556     2.500
    41   1 H        0.926     0.030     2.590     2.516
    42   1 H        0.926     0.029     2.604     2.524
    43   1 H        0.926     0.025     2.654     2.548
    44   1 H        0.926     0.044     2.401     2.423
    45   1 H        0.926     0.041     2.429     2.437

molecular dipole:
                 x           y           z       tot (Debye)
 q only:       -5.438       0.094      -0.106
   full:       -4.997       0.053      -0.056      12.702

 projected vibrational frequencies (cm⁻¹)
eigval :       -0.00    -0.00    -0.00    -0.00     0.00     0.00
eigval :       19.18    30.22    35.38    55.06    58.97    84.61
eigval :       87.60   123.80   130.05   142.69   181.02   198.88
eigval :      236.12   237.13   256.99   265.61   303.46   313.22
eigval :      362.85   376.39   385.71   396.67   401.68   405.22
eigval :      407.19   436.09   436.81   476.58   480.45   480.70
eigval :      493.99   517.43   532.86   534.37   540.97   578.06
eigval :      589.09   595.56   633.21   640.49   641.89   664.05
eigval :      667.56   674.11   689.03   698.18   751.07   774.52
eigval :      777.87   789.55   796.44   820.73   842.03   850.17
eigval :      856.79   869.04   869.66   880.98   887.01   897.65
eigval :      900.71   907.11   908.66   910.69   911.41   912.87
eigval :      921.51   922.23   978.12  1030.26  1060.71  1081.87
eigval :     1083.30  1114.64  1118.49  1124.05  1140.24  1156.69
eigval :     1166.15  1169.01  1175.46  1184.69  1202.22  1212.24
eigval :     1218.37  1231.48  1233.92  1246.21  1250.55  1284.54
eigval :     1305.76  1316.34  1319.81  1328.90  1340.50  1351.52
eigval :     1385.53  1392.44  1404.52  1406.65  1425.84  1434.47
eigval :     1441.03  1463.54  1481.21  1501.02  1536.58  1542.34
eigval :     1548.86  1549.61  1558.74  1574.20  1594.45  3068.07
eigval :     3071.30  3073.90  3074.99  3085.22  3088.04  3095.81
eigval :     3097.70  3099.03  3105.95  3106.52  3107.94  3115.44
eigval :     3115.78  3119.28  3119.69

   temp. (K)  partition function   enthalpy   heat capacity  entropy
                                   cal/mol     cal/K/mol   cal/K/mol   J/K/mol
 298.15  VIB  0.341E+09            12446.324     83.254     74.735
         ROT  0.226E+08              888.752      2.981     36.632
         INT  0.771E+16            13335.077     86.235    111.367
         TR   0.752E+28             1481.254      4.968     43.774
         TOT                       14816.3307    91.2032   155.1408   649.1089

       T/K    H(0)-H(T)+PV         H(T)/Eh          T*S/Eh         G(T)/Eh
   ------------------------------------------------------------------------
    298.15    0.236113E-01    0.353188E+00    0.737124E-01    0.279476E+00
   ------------------------------------------------------------------------

         :::::::::::::::::::::::::::::::::::::::::::::::::::::
         ::                  THERMODYNAMIC                  ::
         :::::::::::::::::::::::::::::::::::::::::::::::::::::
         :: total free energy         -74.564170366158 Eh   ::
         ::.................................................::
         :: total energy              -74.843646361282 Eh   ::
         :: zero point energy           0.329577047555 Eh   ::
         :: G(RRHO) w/o ZPVE           -0.050101052432 Eh   ::
         :: G(RRHO) contrib.            0.279475995123 Eh   ::
         :::::::::::::::::::::::::::::::::::::::::::::::::::::

           -------------------------------------------------
          | TOTAL ENERGY              -74.843646361282 Eh   |
          | TOTAL ENTHALPY            -74.490457987861 Eh   |
          | TOTAL FREE ENERGY         -74.564170366158 Eh   |
          | GRADIENT NORM               0.000060614010 Eh/α |
          | HOMO-LUMO GAP               0.445437869767 eV   |
           -------------------------------------------------

 * finished run on 2025/09/04 at 13:21:33.558
