   * xtb version 6.7.1 (edcfbbe) compiled by 'albert@albert-system' on 2024-07-22

   ID    Z sym.   atoms
    1    7 N      1, 6, 9, 13, 16
    2    6 C      2-5, 7, 8, 10-12, 14, 15, 17-26
    3    1 H      27-33

          program call               : xtb data2507/toluene/AQTC/AQTC_toluene_T1_crest.xyz --gfn 2 --uhf 2 --gbsa toluene --ohess vtight --parallel 40 --molden --ceasefiles --namespace data2507/toluene/AQTC/AQTC_toluene_T1_finalOpt
      * Solvation model:               GBSA
        Solvent                        toluene
        Solvent mass                       9.2140E+01 g/mol
          :  Hamiltonian                  GFN2-xTB          :
 * total energy  :   -63.0298751 Eh     change       -0.2551630E-08 Eh
 * total energy  :   -63.0299031 Eh     change       -0.2801164E-04 Eh
 * total energy  :   -63.0299073 Eh     change       -0.4220663E-05 Eh
 * total energy  :   -63.0298961 Eh     change        0.1121426E-04 Eh
 * total energy  :   -63.0299090 Eh     change       -0.1293662E-04 Eh
 * total energy  :   -63.0299022 Eh     change        0.6808865E-05 Eh
 * total energy  :   -63.0299109 Eh     change       -0.8699614E-05 Eh
 * total energy  :   -63.0299118 Eh     change       -0.8605157E-06 Eh
 * total energy  :   -63.0299120 Eh     change       -0.2330742E-06 Eh
 * total energy  :   -63.0299115 Eh     change        0.5394747E-06 Eh
 * total energy  :   -63.0299122 Eh     change       -0.6702245E-06 Eh
 * total energy  :   -63.0299121 Eh     change        0.3893665E-07 Eh
 * total energy  :   -63.0299121 Eh     change        0.3803899E-07 Eh
 * total energy  :   -63.0299122 Eh     change       -0.1218869E-06 Eh
 * total energy  :   -63.0299121 Eh     change        0.6838069E-07 Eh
 * total energy  :   -63.0299122 Eh     change       -0.9673394E-07 Eh
   *** GEOMETRY OPTIMIZATION CONVERGED AFTER 16 ITERATIONS ***

 final structure:
================
33
 xtb: 6.7.1 (edcfbbe)
N            5.67198179163305        2.62974955770257        0.00180215076891
C            4.72986151297259        1.97534237042147        0.00075345705445
C            3.55750201566896        1.18776119112684       -0.00042221161701
C            2.30669629391326        1.80888896705840       -0.00165011089653
C            1.13159511481992        1.06052015624677       -0.00218989621705
N           -0.07331803626422        1.61744591285796       -0.00238247497829
C           -1.17044478117126        0.91192943396064       -0.00213107756345
C           -1.08502186836146       -0.53362109460985       -0.00245786377163
N            0.09683983500484       -1.09776249775098       -0.00270877381280
C            1.21388880021183       -0.39706252101840       -0.00222065215777
C            2.48880451159807       -0.99963243542723       -0.00138397795124
C            2.57469699433076       -2.39966050680052       -0.00147826166114
N            2.63657893841966       -3.54766935872866       -0.00166728891821
C            3.66262915793481       -0.20921008695978       -0.00011711035001
C            4.92675837864955       -0.82726753391031        0.00192021750338
N            5.96060789614856       -1.32759018336850        0.00405174754680
C           -2.42401387936869       -1.06477482826858       -0.00119747603497
C           -2.97524653719287       -2.32719758468513       -0.00055611481816
C           -4.37818800088105       -2.43152926729302        0.00166387930555
C           -5.21461616373054       -1.33821568147455        0.00323961887455
C           -4.67901915200043       -0.02819231970852        0.00250572499733
C           -5.37040601787048        1.20610396274825        0.00413574733478
C           -4.67442200024508        2.39371319392319        0.00329918711110
C           -3.26912809062289        2.46082781980066        0.00092498167387
C           -2.56873260463088        1.27567033999317       -0.00055523608277
C           -3.28718023435717        0.05737110261151        0.00014848933768
H            2.23621349523776        2.88484709042286       -0.00185160247544
H           -2.36018456599108       -3.21374357904646       -0.00160467363614
H           -4.80883399239561       -3.42197231132254        0.00224450510814
H           -6.28531783013462       -1.47599248953456        0.00512300251526
H           -6.45003788881513        1.21125883509772        0.00614225666788
H           -5.22328655234967        3.32381921704434        0.00459814703291
H           -2.76824877656050        3.41634484609123        0.00042813471001

          :  Hamiltonian                  GFN2-xTB          :
         :: gradient norm              0.000054333705 Eh/a0 ::
         :: HOMO-LUMO gap              0.396498838633 eV    ::
         :: SCC energy               -64.269485434014 Eh    ::
         :: -> dispersion             -0.045826144887 Eh    ::
         :: -> Gsolv                  -0.041148310931 Eh    ::
         :: repulsion energy           1.239573205380 Eh    ::

    * Orbital Energies and Occupations

         #    Occupation            Energy/Eh            Energy/eV
      -------------------------------------------------------------
         1        2.0000           -0.7281127             -19.8130
       ...           ...                  ...                  ...
        47        2.0000           -0.4750156             -12.9258
        48        2.0000           -0.4677079             -12.7270
        49        2.0000           -0.4525977             -12.3158
        50        2.0000           -0.4501838             -12.2501
        51        2.0000           -0.4458430             -12.1320
        52        2.0000           -0.4447729             -12.1029
        53        2.0000           -0.4434754             -12.0676
        54        2.0000           -0.4426704             -12.0457
        55        2.0000           -0.4373060             -11.8997
        56        2.0000           -0.4317556             -11.7487
        57        1.9999           -0.4170420             -11.3483
        58        1.0001           -0.3989148             -10.8550
        59        0.9995           -0.3463827              -9.4256 (HOMO)
        60        0.0005           -0.3318116              -9.0291 (LUMO)
        61                         -0.3047319              -8.2922
        62                         -0.2834991              -7.7144
        63                         -0.2581535              -7.0247
        64                         -0.2375262              -6.4634
        65                         -0.2368365              -6.4446
        66                         -0.2328675              -6.3366
        67                         -0.2235974              -6.0844
        68                         -0.2072137              -5.6386
        69                         -0.2059631              -5.6045
        70                         -0.1861242              -5.0647
       ...                                ...                  ...
       111                          1.1683605              31.7927
      -------------------------------------------------------------
                  HL-Gap            0.0145711 Eh            0.3965 eV

     #   Z          covCN         q      C6AA      α(0)
     1   7 N        0.911    -0.240    26.265     7.412
     2   6 C        1.913     0.119    28.179     8.573
     3   6 C        2.972     0.022    27.501     8.602
     4   6 C        2.923    -0.051    29.254     8.870
     5   6 C        2.945     0.090    26.004     8.364
     6   7 N        1.844    -0.160    25.261     7.449
     7   6 C        3.029     0.084    26.110     8.382
     8   6 C        3.034     0.081    26.171     8.391
     9   7 N        1.844    -0.168    25.441     7.475
    10   6 C        2.956     0.098    25.827     8.336
    11   6 C        2.973    -0.010    28.272     8.722
    12   6 C        1.912     0.120    28.141     8.567
    13   7 N        0.911    -0.259    26.726     7.477
    14   6 C        2.979     0.017    27.634     8.623
    15   6 C        1.910     0.117    28.230     8.581
    16   7 N        0.911    -0.251    26.532     7.450
    17   6 C        3.034     0.000    27.988     8.677
    18   6 C        2.911    -0.010    28.265     8.718
    19   6 C        2.919    -0.021    28.526     8.758
    20   6 C        2.918    -0.019    28.479     8.751
    21   6 C        2.975     0.027    27.391     8.585
    22   6 C        2.918    -0.018    28.453     8.747
    23   6 C        2.919    -0.021    28.541     8.761
    24   6 C        2.911    -0.009    28.250     8.716
    25   6 C        3.034     0.001    27.977     8.676
    26   6 C        3.148    -0.008    27.943     8.647
    27   1 H        0.926     0.075     2.029     2.227
    28   1 H        0.926     0.061     2.185     2.312
    29   1 H        0.926     0.066     2.135     2.285
    30   1 H        0.926     0.069     2.101     2.267
    31   1 H        0.926     0.069     2.098     2.265
    32   1 H        0.926     0.067     2.123     2.279
    33   1 H        0.926     0.065     2.144     2.290

molecular dipole:
                 x           y           z       tot (Debye)
 q only:       -6.461       1.234       0.000
   full:       -7.002       1.567      -0.001      18.238

 projected vibrational frequencies (cm⁻¹)
eigval :       -0.00    -0.00     0.00     0.00     0.00     0.00
eigval :       31.62    36.29    56.79    81.32    97.87    99.54
eigval :      101.26   129.95   152.57   163.44   191.32   196.94
eigval :      245.90   255.90   285.51   304.53   371.03   376.33
eigval :      391.87   394.23   413.11   416.56   443.29   446.35
eigval :      476.90   484.21   497.72   513.46   527.95   548.55
eigval :      554.93   565.37   584.48   586.17   621.46   626.26
eigval :      641.91   663.25   671.28   682.42   716.06   722.56
eigval :      772.15   787.83   787.88   809.20   866.25   878.24
eigval :      889.22   896.57   919.92   926.24   971.28   998.99
eigval :     1042.60  1076.51  1090.66  1100.58  1147.60  1172.51
eigval :     1181.34  1184.60  1209.44  1223.84  1226.93  1252.63
eigval :     1272.06  1300.15  1325.36  1356.72  1364.18  1384.97
eigval :     1394.19  1408.84  1424.08  1433.00  1467.29  1476.15
eigval :     1517.15  1522.33  1561.04  1588.64  1605.08  2328.07
eigval :     2338.56  2358.60  3085.44  3086.36  3094.74  3096.08
eigval :     3102.34  3103.99  3109.39

   temp. (K)  partition function   enthalpy   heat capacity  entropy
                                   cal/mol     cal/K/mol   cal/K/mol   J/K/mol
 298.15  VIB  0.100E+08            10666.621     69.281     64.427
         ROT  0.114E+08              888.752      2.981     35.269
         INT  0.114E+15            11555.374     72.262     99.696
         TR   0.578E+28             1481.254      4.968     43.251
         TOT                       13036.6278    77.2299   142.9467   598.0889

       T/K    H(0)-H(T)+PV         H(T)/Eh          T*S/Eh         G(T)/Eh
   ------------------------------------------------------------------------
    298.15    0.207752E-01    0.234664E+00    0.679186E-01    0.166745E+00
   ------------------------------------------------------------------------

         :::::::::::::::::::::::::::::::::::::::::::::::::::::
         ::                  THERMODYNAMIC                  ::
         :::::::::::::::::::::::::::::::::::::::::::::::::::::
         :: total free energy         -62.863166945196 Eh   ::
         ::.................................................::
         :: total energy              -63.029912230255 Eh   ::
         :: zero point energy           0.213888677399 Eh   ::
         :: G(RRHO) w/o ZPVE           -0.047143392340 Eh   ::
         :: G(RRHO) contrib.            0.166745285059 Eh   ::
         :::::::::::::::::::::::::::::::::::::::::::::::::::::

           -------------------------------------------------
          | TOTAL ENERGY              -63.029912230255 Eh   |
          | TOTAL ENTHALPY            -62.795248364138 Eh   |
          | TOTAL FREE ENERGY         -62.863166945196 Eh   |
          | GRADIENT NORM               0.000054321047 Eh/α |
          | HOMO-LUMO GAP               0.396498513232 eV   |
           -------------------------------------------------

 * finished run on 2025/07/20 at 07:58:02.266
