   * xtb version 6.7.1 (edcfbbe) compiled by 'albert@albert-system' on 2024-07-22

   ID    Z sym.   atoms
    1    7 N      1, 6, 9, 13, 16
    2    6 C      2-5, 7, 8, 10-12, 14, 15, 17-26
    3    1 H      27-33

          program call               : xtb data2507/toluene/AQTC/AQTC_toluene_S0_crest.xyz --gfn 2 --gbsa toluene --ohess vtight --parallel 40 --molden --ceasefiles --namespace data2507/toluene/AQTC/AQTC_toluene_S0_finalOpt
      * Solvation model:               GBSA
        Solvent                        toluene
        Solvent mass                       9.2140E+01 g/mol
          :  Hamiltonian                  GFN2-xTB          :
 * total energy  :   -63.0784412 Eh     change       -0.8407710E-09 Eh
 * total energy  :   -63.0784662 Eh     change       -0.2497368E-04 Eh
 * total energy  :   -63.0784686 Eh     change       -0.2417341E-05 Eh
 * total energy  :   -63.0784585 Eh     change        0.1011459E-04 Eh
 * total energy  :   -63.0784689 Eh     change       -0.1043241E-04 Eh
 * total energy  :   -63.0784458 Eh     change        0.2315852E-04 Eh
 * total energy  :   -63.0784681 Eh     change       -0.2235466E-04 Eh
 * total energy  :   -63.0784702 Eh     change       -0.2069651E-05 Eh
 * total energy  :   -63.0784709 Eh     change       -0.6679158E-06 Eh
 * total energy  :   -63.0784697 Eh     change        0.1157312E-05 Eh
 * total energy  :   -63.0784710 Eh     change       -0.1273165E-05 Eh
 * total energy  :   -63.0784709 Eh     change        0.4628563E-07 Eh
 * total energy  :   -63.0784709 Eh     change        0.1110023E-07 Eh
 * total energy  :   -63.0784710 Eh     change       -0.9066713E-07 Eh
   *** GEOMETRY OPTIMIZATION CONVERGED AFTER 14 ITERATIONS ***

 final structure:
================
33
 xtb: 6.7.1 (edcfbbe)
N            5.65108522039426        2.62271263122964       -0.00266579303376
C            4.70201968622781        1.98065593155068       -0.00142660229786
C            3.51973571763792        1.20156541051212        0.00007869943025
C            2.28316158333638        1.81443762445276        0.00135405119167
C            1.10878984083664        1.04505154315568        0.00207287260898
N           -0.08752310915081        1.68624126993294        0.00234257346550
C           -1.14185824584187        0.92152282600026        0.00205628557351
C           -1.05175989438208       -0.53752295854628        0.00194621640668
N            0.09045681976979       -1.16646551222520        0.00206559734986
C            1.19229359641351       -0.38012288290355        0.00195316441745
C            2.46926466141964       -0.99371524859164        0.00116189771990
C            2.56026411357293       -2.40482510424081        0.00141106140642
N            2.63691802245368       -3.54823933226857        0.00176586716621
C            3.62125323558630       -0.21375820381147       -0.00009018294978
C            4.89593900654268       -0.82616649856280       -0.00176157325679
N            5.93097284112709       -1.31838780498531       -0.00347195976135
C           -2.39636759472984       -1.07075809520546        0.00079155253690
C           -2.95061701790885       -2.33052041634931       -0.00014667562992
C           -4.35249504500203       -2.43734140849851       -0.00216620482190
C           -5.18485190220273       -1.34041602060738       -0.00324120203109
C           -4.64894726331028       -0.03203562634942       -0.00217046950548
C           -5.34595693946574        1.19815181687869       -0.00314090361325
C           -4.65819976640190        2.39072228819297       -0.00202648989191
C           -3.25379475869899        2.46089063226038        0.00001760795812
C           -2.54481945427057        1.28174713831788        0.00094493672590
C           -3.25378859654934        0.05632836970062       -0.00006385302910
H            2.19665548319918        2.89032832031613        0.00148872405479
H           -2.33143383046690       -3.21421018114676        0.00053417712701
H           -4.78726237311929       -3.42587748949061       -0.00298414623485
H           -6.25630196971371       -1.47472439008004       -0.00493871103919
H           -6.42580598678222        1.19575118018587       -0.00485328497125
H           -5.21391553198169        3.31669606564987       -0.00284939460393
H           -2.75241699193901        3.41613455802661        0.00073349753224

          :  Hamiltonian                  GFN2-xTB          :
         :: gradient norm              0.000081303456 Eh/a0 ::
         :: HOMO-LUMO gap              1.140267980392 eV    ::
         :: SCC energy               -64.311425707655 Eh    ::
         :: -> dispersion             -0.046074893474 Eh    ::
         :: -> Gsolv                  -0.037701253140 Eh    ::
         :: repulsion energy           1.232954682175 Eh    ::

    * Orbital Energies and Occupations

         #    Occupation            Energy/Eh            Energy/eV
      -------------------------------------------------------------
         1        2.0000           -0.7191617             -19.5694
       ...           ...                  ...                  ...
        46        2.0000           -0.4716662             -12.8347
        47        2.0000           -0.4714772             -12.8295
        48        2.0000           -0.4619950             -12.5715
        49        2.0000           -0.4549500             -12.3798
        50        2.0000           -0.4541240             -12.3573
        51        2.0000           -0.4523586             -12.3093
        52        2.0000           -0.4522679             -12.3068
        53        2.0000           -0.4459046             -12.1337
        54        2.0000           -0.4425391             -12.0421
        55        2.0000           -0.4354394             -11.8489
        56        2.0000           -0.4304156             -11.7122
        57        2.0000           -0.4143944             -11.2762
        58        2.0000           -0.3869726             -10.5301 (HOMO)
        59                         -0.3450685              -9.3898 (LUMO)
        60                         -0.3305860              -8.9957
        61                         -0.3075001              -8.3675
        62                         -0.2877756              -7.8308
        63                         -0.2567328              -6.9861
        64                         -0.2449299              -6.6649
        65                         -0.2443105              -6.6480
        66                         -0.2369503              -6.4477
        67                         -0.2326080              -6.3296
        68                         -0.2151464              -5.8544
        69                         -0.2045047              -5.5649
       ...                                ...                  ...
       111                          1.1604111              31.5764
      -------------------------------------------------------------
                  HL-Gap            0.0419041 Eh            1.1403 eV

     #   Z          covCN         q      C6AA      α(0)
     1   7 N        0.911    -0.221    25.832     7.351
     2   6 C        1.911     0.120    28.143     8.567
     3   6 C        2.973     0.026    27.427     8.590
     4   6 C        2.926    -0.024    28.594     8.769
     5   6 C        2.982     0.082    26.176     8.392
     6   7 N        1.839    -0.237    27.038     7.706
     7   6 C        3.056     0.094    25.863     8.340
     8   6 C        3.061     0.097    25.790     8.328
     9   7 N        1.837    -0.249    27.341     7.749
    10   6 C        2.992     0.090    25.987     8.362
    11   6 C        2.978     0.016    27.642     8.624
    12   6 C        1.910     0.130    27.929     8.535
    13   7 N        0.911    -0.221    25.829     7.350
    14   6 C        2.981     0.026    27.407     8.587
    15   6 C        1.909     0.120    28.152     8.569
    16   7 N        0.911    -0.222    25.841     7.352
    17   6 C        3.024    -0.009    28.216     8.713
    18   6 C        2.911    -0.010    28.260     8.717
    19   6 C        2.918    -0.022    28.550     8.762
    20   6 C        2.918    -0.018    28.467     8.749
    21   6 C        2.975     0.024    27.460     8.596
    22   6 C        2.918    -0.019    28.478     8.751
    23   6 C        2.918    -0.022    28.561     8.764
    24   6 C        2.912    -0.010    28.277     8.720
    25   6 C        3.024    -0.008    28.204     8.711
    26   6 C        3.145    -0.001    27.794     8.625
    27   1 H        0.926     0.084     1.937     2.176
    28   1 H        0.926     0.062     2.176     2.307
    29   1 H        0.926     0.063     2.167     2.302
    30   1 H        0.926     0.066     2.125     2.280
    31   1 H        0.926     0.066     2.131     2.283
    32   1 H        0.926     0.063     2.166     2.301
    33   1 H        0.926     0.064     2.152     2.294

molecular dipole:
                 x           y           z       tot (Debye)
 q only:       -5.133       0.946      -0.000
   full:       -5.766       1.290       0.001      15.018

 projected vibrational frequencies (cm⁻¹)
eigval :       -0.00    -0.00    -0.00    -0.00     0.00     0.00
eigval :       28.64    35.27    58.64    82.49    98.06    99.43
eigval :      101.99   131.45   154.89   168.53   189.93   191.43
eigval :      253.72   264.22   305.92   307.00   363.56   373.20
eigval :      381.15   399.78   413.64   418.65   446.51   447.64
eigval :      477.05   483.54   498.14   527.61   528.62   559.55
eigval :      575.90   584.80   591.58   600.76   627.26   654.45
eigval :      662.27   679.21   701.93   732.82   738.37   752.22
eigval :      786.51   787.37   814.63   861.86   870.35   896.91
eigval :      897.34   902.30   924.59   930.40   970.99  1008.34
eigval :     1062.75  1079.32  1114.11  1127.60  1153.71  1172.10
eigval :     1177.70  1185.95  1226.24  1230.70  1255.89  1286.72
eigval :     1300.77  1326.47  1355.23  1358.82  1387.88  1395.90
eigval :     1403.27  1427.77  1443.44  1460.47  1476.94  1513.03
eigval :     1554.83  1575.03  1584.76  1600.65  1606.19  2364.48
eigval :     2366.80  2372.04  3084.23  3085.62  3093.90  3094.98
eigval :     3103.13  3104.23  3104.87

   temp. (K)  partition function   enthalpy   heat capacity  entropy
                                   cal/mol     cal/K/mol   cal/K/mol   J/K/mol
 298.15  VIB  0.919E+07            10514.955     68.164     63.592
         ROT  0.113E+08              888.752      2.981     35.254
         INT  0.104E+15            11403.708     71.145     98.846
         TR   0.578E+28             1481.254      4.968     43.251
         TOT                       12884.9614    76.1132   142.0968   594.5330

       T/K    H(0)-H(T)+PV         H(T)/Eh          T*S/Eh         G(T)/Eh
   ------------------------------------------------------------------------
    298.15    0.205335E-01    0.236873E+00    0.675148E-01    0.169358E+00
   ------------------------------------------------------------------------

         :::::::::::::::::::::::::::::::::::::::::::::::::::::
         ::                  THERMODYNAMIC                  ::
         :::::::::::::::::::::::::::::::::::::::::::::::::::::
         :: total free energy         -62.909113078370 Eh   ::
         ::.................................................::
         :: total energy              -63.078471026115 Eh   ::
         :: zero point energy           0.216339228514 Eh   ::
         :: G(RRHO) w/o ZPVE           -0.046981280769 Eh   ::
         :: G(RRHO) contrib.            0.169357947745 Eh   ::
         :::::::::::::::::::::::::::::::::::::::::::::::::::::

           -------------------------------------------------
          | TOTAL ENERGY              -63.078471026115 Eh   |
          | TOTAL ENTHALPY            -62.841598304520 Eh   |
          | TOTAL FREE ENERGY         -62.909113078370 Eh   |
          | GRADIENT NORM               0.000081342229 Eh/α |
          | HOMO-LUMO GAP               1.140269868148 eV   |
           -------------------------------------------------

 * finished run on 2025/07/20 at 07:57:24.257
