   * xtb version 6.7.1 (edcfbbe) compiled by 'albert@albert-system' on 2024-07-22

   ID    Z sym.   atoms
    1    7 N      1, 6, 9, 13, 16
    2    6 C      2-5, 7, 8, 10-12, 14, 15, 17-26
    3    1 H      27-33

          program call               : xtb data2507/toluene/AQTC/AQTC_toluene_S0_finalOpt.xtbopt.xyz --gfn 2 --uhf 2 --gbsa toluene --ohess vtight --parallel 40 --molden --ceasefiles --namespace data2507/toluene/AQTC/AQTC_toluene_T1_preOpt
      * Solvation model:               GBSA
        Solvent                        toluene
        Solvent mass                       9.2140E+01 g/mol
          :  Hamiltonian                  GFN2-xTB          :
 * total energy  :   -63.0225500 Eh     change       -0.5988454E-09 Eh
 * total energy  :   -63.0276587 Eh     change       -0.5108693E-02 Eh
 * total energy  :   -63.0297126 Eh     change       -0.2053950E-02 Eh
 * total energy  :   -63.0298186 Eh     change       -0.1059469E-03 Eh
 * total energy  :   -63.0297611 Eh     change        0.5747514E-04 Eh
 * total energy  :   -63.0298901 Eh     change       -0.1289738E-03 Eh
 * total energy  :   -63.0298173 Eh     change        0.7272712E-04 Eh
 * total energy  :   -63.0299112 Eh     change       -0.9386492E-04 Eh
 * total energy  :   -63.0299094 Eh     change        0.1756193E-05 Eh
 * total energy  :   -63.0299118 Eh     change       -0.2327923E-05 Eh
 * total energy  :   -63.0299119 Eh     change       -0.8448956E-07 Eh
 * total energy  :   -63.0299119 Eh     change       -0.6168969E-07 Eh
   *** GEOMETRY OPTIMIZATION CONVERGED AFTER 12 ITERATIONS ***

 final structure:
================
33
 xtb: 6.7.1 (edcfbbe)
N            5.67278575791407        2.63547260403946       -0.00194131583712
C            4.73062242916346        1.98114619775280       -0.00106981217720
C            3.55892765768059        1.19256311110878       -0.00003212421254
C            2.30741421702545        1.81226301640237        0.00065497243750
C            1.13313774515247        1.06257235249739        0.00113460855299
N           -0.07243281519283        1.61804403265031        0.00132305712199
C           -1.16876691208299        0.91125257805979        0.00118429648217
C           -1.08156345993846       -0.53420238567451        0.00121017210706
N            0.10094742096616       -1.09695265676419        0.00139522556884
C            1.21716362101456       -0.39493922615747        0.00120549392327
C            2.49274865499381       -0.99605832360038        0.00086810260372
C            2.58052517850858       -2.39596554864290        0.00116165809333
N            2.64484333692582       -3.54382847784500        0.00152138024390
C            3.66568478752519       -0.20428840190290        0.00006376482026
C            4.93042856669577       -0.82107585030032       -0.00083783292615
N            5.96453012463031       -1.32081868874763       -0.00172052469742
C           -2.41986310811760       -1.06704978339885        0.00033911934509
C           -2.96943348339767       -2.33019810732279       -0.00029272303160
C           -4.37222883926600       -2.43636718894595       -0.00171263645749
C           -5.21006364138043       -1.34412249221087       -0.00246885973938
C           -4.67616978527962       -0.03340384637929       -0.00175055295786
C           -5.36918655156936        1.19997964022093       -0.00247207294081
C           -4.67472801507176        2.38848405860270       -0.00172446880415
C           -3.26952162816186        2.45744154672468       -0.00032325002759
C           -2.56752739084706        1.27321811893159        0.00031877515684
C           -3.28443988238550        0.05399585304121       -0.00030535450630
H            2.23578572877621        2.88814634389234        0.00063039035610
H           -2.35317702388356       -3.21591512707322        0.00019789088192
H           -4.80157107226625       -3.42737424608677       -0.00229008290774
H           -6.28058705196199       -1.48327800384406       -0.00366845696943
H           -6.44882373488872        1.20372732761673       -0.00365800064038
H           -5.22480154409748        3.31787342579273       -0.00228350509931
H           -2.76995131193545        3.41364353348811        0.00014916516390

          :  Hamiltonian                  GFN2-xTB          :
         :: gradient norm              0.000102993860 Eh/a0 ::
         :: HOMO-LUMO gap              0.396443917249 eV    ::
         :: SCC energy               -64.269508894290 Eh    ::
         :: -> dispersion             -0.045826476273 Eh    ::
         :: -> Gsolv                  -0.041149594265 Eh    ::
         :: repulsion energy           1.239596962953 Eh    ::

    * Orbital Energies and Occupations

         #    Occupation            Energy/Eh            Energy/eV
      -------------------------------------------------------------
         1        2.0000           -0.7281101             -19.8129
       ...           ...                  ...                  ...
        47        2.0000           -0.4750169             -12.9259
        48        2.0000           -0.4677081             -12.7270
        49        2.0000           -0.4525951             -12.3157
        50        2.0000           -0.4501850             -12.2502
        51        2.0000           -0.4458405             -12.1319
        52        2.0000           -0.4447706             -12.1028
        53        2.0000           -0.4434762             -12.0676
        54        2.0000           -0.4426690             -12.0456
        55        2.0000           -0.4373051             -11.8997
        56        2.0000           -0.4317551             -11.7487
        57        1.9999           -0.4170418             -11.3483
        58        1.0001           -0.3989119             -10.8549
        59        0.9995           -0.3463815              -9.4255 (HOMO)
        60        0.0005           -0.3318124              -9.0291 (LUMO)
        61                         -0.3047294              -8.2921
        62                         -0.2834954              -7.7143
        63                         -0.2581536              -7.0247
        64                         -0.2375286              -6.4635
        65                         -0.2368392              -6.4447
        66                         -0.2328562              -6.3363
        67                         -0.2235776              -6.0839
        68                         -0.2072123              -5.6385
        69                         -0.2059574              -5.6044
        70                         -0.1861212              -5.0646
       ...                                ...                  ...
       111                          1.1684566              31.7953
      -------------------------------------------------------------
                  HL-Gap            0.0145690 Eh            0.3964 eV

     #   Z          covCN         q      C6AA      α(0)
     1   7 N        0.911    -0.240    26.265     7.412
     2   6 C        1.913     0.119    28.179     8.573
     3   6 C        2.972     0.022    27.501     8.602
     4   6 C        2.923    -0.051    29.254     8.870
     5   6 C        2.945     0.090    26.004     8.364
     6   7 N        1.844    -0.160    25.261     7.449
     7   6 C        3.029     0.084    26.111     8.382
     8   6 C        3.034     0.081    26.171     8.391
     9   7 N        1.844    -0.168    25.441     7.475
    10   6 C        2.956     0.098    25.828     8.336
    11   6 C        2.973    -0.010    28.272     8.722
    12   6 C        1.912     0.120    28.140     8.567
    13   7 N        0.911    -0.259    26.725     7.477
    14   6 C        2.979     0.017    27.634     8.623
    15   6 C        1.910     0.117    28.230     8.581
    16   7 N        0.911    -0.251    26.532     7.450
    17   6 C        3.034     0.000    27.988     8.678
    18   6 C        2.911    -0.010    28.265     8.718
    19   6 C        2.919    -0.021    28.526     8.758
    20   6 C        2.918    -0.019    28.479     8.751
    21   6 C        2.975     0.027    27.391     8.585
    22   6 C        2.918    -0.018    28.453     8.747
    23   6 C        2.919    -0.021    28.541     8.761
    24   6 C        2.911    -0.009    28.250     8.716
    25   6 C        3.034     0.001    27.977     8.676
    26   6 C        3.148    -0.008    27.943     8.647
    27   1 H        0.926     0.075     2.029     2.227
    28   1 H        0.926     0.061     2.185     2.312
    29   1 H        0.926     0.066     2.135     2.285
    30   1 H        0.926     0.069     2.101     2.267
    31   1 H        0.926     0.069     2.098     2.265
    32   1 H        0.926     0.067     2.123     2.279
    33   1 H        0.926     0.065     2.144     2.290

molecular dipole:
                 x           y           z       tot (Debye)
 q only:       -6.463       1.227      -0.000
   full:       -7.005       1.560       0.000      18.242

 projected vibrational frequencies (cm⁻¹)
eigval :       -0.00    -0.00    -0.00     0.00     0.00     0.00
eigval :       31.69    36.23    56.78    81.26    97.82    99.51
eigval :      101.29   129.96   152.54   163.42   191.26   196.94
eigval :      245.98   255.90   285.48   304.49   370.98   376.34
eigval :      391.84   394.22   413.08   416.58   443.27   446.40
eigval :      476.89   484.33   497.63   513.42   527.93   548.56
eigval :      554.93   565.39   584.43   586.18   621.46   626.26
eigval :      641.90   663.23   671.29   682.41   716.04   722.57
eigval :      772.24   787.77   787.82   809.13   866.28   878.24
eigval :      889.25   896.59   919.92   926.21   971.27   998.98
eigval :     1042.54  1076.58  1090.61  1100.54  1147.56  1172.46
eigval :     1181.40  1184.65  1209.38  1223.87  1226.96  1252.55
eigval :     1272.02  1300.17  1325.33  1356.69  1364.18  1385.00
eigval :     1394.17  1408.83  1424.07  1433.00  1467.29  1476.14
eigval :     1517.16  1522.29  1561.02  1588.63  1605.06  2328.17
eigval :     2338.75  2358.69  3085.50  3086.39  3094.80  3096.03
eigval :     3102.34  3104.04  3109.39

   temp. (K)  partition function   enthalpy   heat capacity  entropy
                                   cal/mol     cal/K/mol   cal/K/mol   J/K/mol
 298.15  VIB  0.100E+08            10666.919     69.281     64.429
         ROT  0.114E+08              888.752      2.981     35.269
         INT  0.114E+15            11555.671     72.262     99.699
         TR   0.578E+28             1481.254      4.968     43.251
         TOT                       13036.9250    77.2300   142.9496   598.1009

       T/K    H(0)-H(T)+PV         H(T)/Eh          T*S/Eh         G(T)/Eh
   ------------------------------------------------------------------------
    298.15    0.207757E-01    0.234664E+00    0.679199E-01    0.166744E+00
   ------------------------------------------------------------------------

         :::::::::::::::::::::::::::::::::::::::::::::::::::::
         ::                  THERMODYNAMIC                  ::
         :::::::::::::::::::::::::::::::::::::::::::::::::::::
         :: total free energy         -62.863167930011 Eh   ::
         ::.................................................::
         :: total energy              -63.029911932760 Eh   ::
         :: zero point energy           0.213888285432 Eh   ::
         :: G(RRHO) w/o ZPVE           -0.047144282682 Eh   ::
         :: G(RRHO) contrib.            0.166744002749 Eh   ::
         :::::::::::::::::::::::::::::::::::::::::::::::::::::

           -------------------------------------------------
          | TOTAL ENERGY              -63.029911932760 Eh   |
          | TOTAL ENTHALPY            -62.795247984970 Eh   |
          | TOTAL FREE ENERGY         -62.863167930011 Eh   |
          | GRADIENT NORM               0.000103036233 Eh/α |
          | HOMO-LUMO GAP               0.396443682685 eV   |
           -------------------------------------------------

 * finished run on 2025/07/20 at 07:57:25.444
