   * xtb version 6.7.1 (edcfbbe) compiled by 'albert@albert-system' on 2024-07-22

   ID    Z sym.   atoms
    1    7 N      1, 6, 9, 13, 16
    2    6 C      2-5, 7, 8, 10-12, 14, 15, 17-26
    3    1 H      27-33

          program call               : xtb data2507/toluene/AQTC/AQTC.xyz --gfn 2 --gbsa toluene --ohess vtight --parallel 40 --molden --ceasefiles --namespace data2507/toluene/AQTC/AQTC_toluene_S0_preOpt
      * Solvation model:               GBSA
        Solvent                        toluene
        Solvent mass                       9.2140E+01 g/mol
          :  Hamiltonian                  GFN2-xTB          :
 * total energy  :   -63.0662371 Eh     change       -0.9862049E-09 Eh
 * total energy  :   -63.0762365 Eh     change       -0.9999431E-02 Eh
 * total energy  :   -63.0781489 Eh     change       -0.1912385E-02 Eh
 * total energy  :   -63.0783451 Eh     change       -0.1962505E-03 Eh
 * total energy  :   -63.0784380 Eh     change       -0.9287888E-04 Eh
 * total energy  :   -63.0784469 Eh     change       -0.8891540E-05 Eh
 * total energy  :   -63.0784594 Eh     change       -0.1244646E-04 Eh
 * total energy  :   -63.0784637 Eh     change       -0.4386320E-05 Eh
 * total energy  :   -63.0784592 Eh     change        0.4499568E-05 Eh
 * total energy  :   -63.0784718 Eh     change       -0.1253530E-04 Eh
 * total energy  :   -63.0784574 Eh     change        0.1441867E-04 Eh
 * total energy  :   -63.0784726 Eh     change       -0.1523563E-04 Eh
 * total energy  :   -63.0784740 Eh     change       -0.1358673E-05 Eh
 * total energy  :   -63.0784746 Eh     change       -0.6940461E-06 Eh
 * total energy  :   -63.0784746 Eh     change        0.8532631E-07 Eh
 * total energy  :   -63.0784747 Eh     change       -0.1126297E-06 Eh
 * total energy  :   -63.0784747 Eh     change       -0.1665425E-07 Eh
   *** GEOMETRY OPTIMIZATION CONVERGED AFTER 17 ITERATIONS ***

 final structure:
================
33
 xtb: 6.7.1 (edcfbbe)
N            6.48533880050758        2.40074381931394       -0.00047700914774
C            5.52264500148737        1.77929690781261       -0.00024536536876
C            4.32392521221659        1.02570920468535       -0.00009568484315
C            3.10075423819846        1.66494352956307        0.00003255293947
C            1.91012102060250        0.92094605964367        0.00014845404647
N            0.72776135323726        1.58753154477765        0.00019400772236
C           -0.34267436787242        0.84550713486289        0.00019632362867
C           -0.28369466861713       -0.61510066960731        0.00017982780617
N            0.84480462237912       -1.26830544935907        0.00017472150360
C            1.96317542458921       -0.50567029128037        0.00014630029721
C            3.22670348572381       -1.14649452971286        0.00008481351849
C            3.28666352885525       -2.55925118635693        0.00020171487131
N            3.33778569177758       -3.70408580860440        0.00012066128439
C            4.39520466991420       -0.39150676471572       -0.00003604550307
C            5.65662257710599       -1.03093728469583       -0.00022011406026
N            6.68108876944306       -1.54487218539954       -0.00029691567857
C           -1.63930668034536       -1.11964008396411        0.00012010246073
C           -2.22010721202892       -2.36737381495174        0.00005683044671
C           -3.62392939394916       -2.44439742131853       -0.00006575083941
C           -4.43280345920180       -1.33006400665026       -0.00012312966391
C           -3.86925446809050       -0.03334421085594       -0.00003936988970
C           -4.54001956924673        1.21133639924495       -0.00007254615934
C           -3.82715962218899        2.38907424454640       -0.00000712589835
C           -2.42155053758980        2.42944857968726        0.00009763666358
C           -1.73769859619438        1.23553634239998        0.00013982630952
C           -2.47254099574567        0.02543030999931        0.00007857425196
H            3.03733891634906        2.74244463094861        0.00001135604679
H           -1.61978466377044       -3.26397004096975        0.00009932374967
H           -4.07964243692393       -3.42343433360221       -0.00011466501652
H           -5.50686662641899       -1.44159395518784       -0.00024185849055
H           -5.61967554730552        1.23160768220286       -0.00014272358198
H           -4.36318698597345        3.32661677778640       -0.00004231533427
H           -1.90003848092386        3.37386786975742        0.00013859192849

          :  Hamiltonian                  GFN2-xTB          :
         :: gradient norm              0.000065430901 Eh/a0 ::
         :: HOMO-LUMO gap              1.140233954473 eV    ::
         :: SCC energy               -64.311378748836 Eh    ::
         :: -> dispersion             -0.046074946717 Eh    ::
         :: -> Gsolv                  -0.037703880523 Eh    ::
         :: repulsion energy           1.232904056024 Eh    ::

    * Orbital Energies and Occupations

         #    Occupation            Energy/Eh            Energy/eV
      -------------------------------------------------------------
         1        2.0000           -0.7191583             -19.5693
       ...           ...                  ...                  ...
        46        2.0000           -0.4716650             -12.8347
        47        2.0000           -0.4714749             -12.8295
        48        2.0000           -0.4619949             -12.5715
        49        2.0000           -0.4549500             -12.3798
        50        2.0000           -0.4541228             -12.3573
        51        2.0000           -0.4523570             -12.3093
        52        2.0000           -0.4522659             -12.3068
        53        2.0000           -0.4459005             -12.1336
        54        2.0000           -0.4425378             -12.0421
        55        2.0000           -0.4354378             -11.8489
        56        2.0000           -0.4304139             -11.7122
        57        2.0000           -0.4143928             -11.2762
        58        2.0000           -0.3869705             -10.5300 (HOMO)
        59                         -0.3450676              -9.3898 (LUMO)
        60                         -0.3305846              -8.9957
        61                         -0.3075013              -8.3675
        62                         -0.2877729              -7.8307
        63                         -0.2567319              -6.9860
        64                         -0.2449456              -6.6653
        65                         -0.2442973              -6.6477
        66                         -0.2369467              -6.4476
        67                         -0.2326202              -6.3299
        68                         -0.2151565              -5.8547
        69                         -0.2045033              -5.5648
       ...                                ...                  ...
       111                          1.1603050              31.5735
      -------------------------------------------------------------
                  HL-Gap            0.0419029 Eh            1.1402 eV

     #   Z          covCN         q      C6AA      α(0)
     1   7 N        0.911    -0.221    25.832     7.351
     2   6 C        1.911     0.120    28.143     8.567
     3   6 C        2.973     0.026    27.427     8.590
     4   6 C        2.926    -0.024    28.594     8.769
     5   6 C        2.982     0.081    26.176     8.392
     6   7 N        1.839    -0.237    27.038     7.706
     7   6 C        3.056     0.094    25.863     8.340
     8   6 C        3.061     0.097    25.790     8.328
     9   7 N        1.837    -0.249    27.341     7.749
    10   6 C        2.992     0.090    25.987     8.362
    11   6 C        2.978     0.016    27.642     8.624
    12   6 C        1.910     0.130    27.929     8.535
    13   7 N        0.911    -0.221    25.829     7.350
    14   6 C        2.981     0.026    27.407     8.587
    15   6 C        1.909     0.120    28.153     8.569
    16   7 N        0.911    -0.222    25.841     7.352
    17   6 C        3.024    -0.009    28.216     8.713
    18   6 C        2.911    -0.010    28.260     8.717
    19   6 C        2.918    -0.022    28.550     8.762
    20   6 C        2.918    -0.018    28.467     8.749
    21   6 C        2.975     0.024    27.460     8.596
    22   6 C        2.918    -0.019    28.478     8.751
    23   6 C        2.918    -0.022    28.561     8.764
    24   6 C        2.912    -0.010    28.277     8.720
    25   6 C        3.024    -0.008    28.204     8.711
    26   6 C        3.145    -0.001    27.794     8.625
    27   1 H        0.926     0.084     1.937     2.176
    28   1 H        0.926     0.062     2.176     2.307
    29   1 H        0.926     0.063     2.167     2.302
    30   1 H        0.926     0.066     2.125     2.280
    31   1 H        0.926     0.066     2.131     2.283
    32   1 H        0.926     0.063     2.166     2.301
    33   1 H        0.926     0.064     2.152     2.294

molecular dipole:
                 x           y           z       tot (Debye)
 q only:       -5.111       1.055       0.000
   full:       -5.736       1.412       0.000      15.015

 projected vibrational frequencies (cm⁻¹)
eigval :       -0.00    -0.00    -0.00     0.00     0.00     0.00
eigval :       28.79    35.37    58.91    85.20    97.30    99.53
eigval :      103.54   128.69   155.19   168.27   190.08   191.84
eigval :      253.86   263.77   306.53   307.68   363.94   373.28
eigval :      380.57   399.66   415.67   419.05   446.38   448.09
eigval :      477.24   484.11   498.65   527.58   528.86   559.67
eigval :      575.93   584.87   591.55   600.89   627.56   654.25
eigval :      662.28   679.18   701.18   732.92   738.58   752.14
eigval :      786.81   787.59   815.37   862.56   870.38   896.83
eigval :      897.43   902.01   925.89   931.80   971.11  1008.32
eigval :     1062.95  1079.57  1114.35  1127.95  1153.70  1173.07
eigval :     1177.75  1186.62  1226.46  1230.84  1256.09  1286.72
eigval :     1300.75  1326.76  1355.23  1358.81  1387.86  1395.74
eigval :     1403.37  1427.73  1443.47  1460.41  1476.94  1513.07
eigval :     1554.87  1575.10  1584.78  1600.66  1606.17  2364.34
eigval :     2366.63  2371.95  3085.00  3086.08  3093.89  3095.13
eigval :     3103.43  3104.11  3104.44

   temp. (K)  partition function   enthalpy   heat capacity  entropy
                                   cal/mol     cal/K/mol   cal/K/mol   J/K/mol
 298.15  VIB  0.887E+07            10508.715     68.164     63.534
         ROT  0.113E+08              888.752      2.981     35.254
         INT  0.100E+15            11397.467     71.145     98.788
         TR   0.578E+28             1481.254      4.968     43.251
         TOT                       12878.7213    76.1134   142.0390   594.2913

       T/K    H(0)-H(T)+PV         H(T)/Eh          T*S/Eh         G(T)/Eh
   ------------------------------------------------------------------------
    298.15    0.205235E-01    0.236898E+00    0.674873E-01    0.169411E+00
   ------------------------------------------------------------------------

         :::::::::::::::::::::::::::::::::::::::::::::::::::::
         ::                  THERMODYNAMIC                  ::
         :::::::::::::::::::::::::::::::::::::::::::::::::::::
         :: total free energy         -62.909063809589 Eh   ::
         ::.................................................::
         :: total energy              -63.078474693339 Eh   ::
         :: zero point energy           0.216374665456 Eh   ::
         :: G(RRHO) w/o ZPVE           -0.046963781706 Eh   ::
         :: G(RRHO) contrib.            0.169410883750 Eh   ::
         :::::::::::::::::::::::::::::::::::::::::::::::::::::

           -------------------------------------------------
          | TOTAL ENERGY              -63.078474693339 Eh   |
          | TOTAL ENTHALPY            -62.841576479093 Eh   |
          | TOTAL FREE ENERGY         -62.909063809589 Eh   |
          | GRADIENT NORM               0.000065315855 Eh/α |
          | HOMO-LUMO GAP               1.140235375163 eV   |
           -------------------------------------------------

 * finished run on 2025/07/20 at 07:56:48.958
