   * xtb version 6.7.1 (edcfbbe) compiled by 'albert@albert-system' on 2024-07-22

   ID    Z sym.   atoms
    1    6 C      1-8, 10-13, 15-26
    2   35 Br     9
    3    7 N      14
    4    1 H      27-50

          program call               : xtb data2507/toluene/BuPCzBCO/BuPCzBCO_toluene_S0_crest.xyz --gfn 2 --gbsa toluene --ohess vtight --parallel 40 --molden --ceasefiles --namespace data2507/toluene/BuPCzBCO/BuPCzBCO_toluene_S0_finalOpt
      * Solvation model:               GBSA
        Solvent                        toluene
        Solvent mass                       9.2140E+01 g/mol
          :  Hamiltonian                  GFN2-xTB          :
 * total energy  :   -70.7351854 Eh     change       -0.2500968E-09 Eh
 * total energy  :   -70.7352132 Eh     change       -0.2773287E-04 Eh
 * total energy  :   -70.7352212 Eh     change       -0.8050806E-05 Eh
 * total energy  :   -70.7352241 Eh     change       -0.2888674E-05 Eh
 * total energy  :   -70.7352269 Eh     change       -0.2830351E-05 Eh
 * total energy  :   -70.7352292 Eh     change       -0.2305915E-05 Eh
 * total energy  :   -70.7352315 Eh     change       -0.2212025E-05 Eh
 * total energy  :   -70.7352329 Eh     change       -0.1466954E-05 Eh
 * total energy  :   -70.7352336 Eh     change       -0.6580869E-06 Eh
 * total energy  :   -70.7352339 Eh     change       -0.2712399E-06 Eh
 * total energy  :   -70.7352341 Eh     change       -0.1243655E-06 Eh
 * total energy  :   -70.7352343 Eh     change       -0.1566660E-06 Eh
 * total energy  :   -70.7352344 Eh     change       -0.1335521E-06 Eh
 * total energy  :   -70.7352345 Eh     change       -0.1294963E-06 Eh
 * total energy  :   -70.7352347 Eh     change       -0.1502659E-06 Eh
 * total energy  :   -70.7352348 Eh     change       -0.1675297E-06 Eh
 * total energy  :   -70.7352350 Eh     change       -0.1475142E-06 Eh
 * total energy  :   -70.7352351 Eh     change       -0.1101672E-06 Eh
 * total energy  :   -70.7352352 Eh     change       -0.7699779E-07 Eh
   *** GEOMETRY OPTIMIZATION CONVERGED AFTER 20 ITERATIONS ***

 final structure:
================
50
 xtb: 6.7.1 (edcfbbe)
C            1.63413335860442        5.56423760754260       -0.14141130242485
C            0.69801170598322        4.39383098033716       -0.09730759886534
C           -0.68432420193326        4.62036415958100       -0.08038410293400
C           -1.59048031015929        3.58247896997816       -0.05104589428099
C           -1.10976549501551        2.27826742029490       -0.02415272273776
C           -1.73282429197713        0.98659529575198       -0.00958496248246
C           -3.05174103004049        0.55605204262413        0.00515632422701
C           -3.28901562316049       -0.80251747598433        0.03637859035773
Br          -5.12374484627246       -1.38391155402540        0.04929324269201
C           -2.26934181322143       -1.76274042930681        0.06830581022578
C           -2.58464726920119       -3.22451406821408        0.11844765270885
C           -0.95399066816104       -1.32664933755257        0.05351784023365
C           -0.68571172443775        0.03388876153898        0.00018399500297
N            0.52413708469900        0.68715043932274       -0.00392274251573
C            1.79016897250899        0.07341093781498        0.00669273137611
C            2.73770086270448        0.42677494550886        0.95793466612848
C            3.98311858458479       -0.17658834412524        0.96135366590316
C            4.31895863813791       -1.15281377037126        0.03016921482884
C            5.67353833756893       -1.84409205417471        0.00485802442212
C            6.34440128241793       -1.58084536342228       -1.35174514521707
C            5.46764405281007       -3.35393086754107        0.19906622857469
C            6.61249784270354       -1.34428970265316        1.10697397796971
C            3.35369853285859       -1.49827563311357       -0.91414557594444
C            2.11116124607774       -0.89707754730850       -0.93595448833333
C            0.28425883980463        2.04713787528016       -0.01878080758676
C            1.18806749947616        3.09899736748495       -0.07006222297711
H            1.39582995287289        6.20988128221135       -0.98559398170257
H            1.53724003429727        6.15797834765245        0.76753355463313
H            2.66628476197266        5.23572322773026       -0.23251456452459
H           -1.04191624349814        5.63989458607458       -0.09920900118887
H           -2.65308129752878        3.77523179936495       -0.05272396802292
H           -3.86865249572015        1.26118179735248       -0.00445052240451
H           -1.67195198005466       -3.81314297311375        0.15129899169346
H           -3.16170975575916       -3.52014044854659       -0.75822349969083
H           -3.18358951734274       -3.45638778221505        0.99939693781542
H           -0.15042648837348       -2.04619170486522        0.09186139800824
H            2.49358693006436        1.16918867718484        1.70363299917331
H            4.68874980506188        0.12773762982162        1.71661926489658
H            6.46965329163317       -0.51124351857384       -1.50923482771003
H            5.75325854381750       -1.97909292803881       -2.17171202441686
H            7.32523770812223       -2.05071135807751       -1.38037208312728
H            6.42845615512300       -3.86428426774063        0.20177655934165
H            4.97173478487859       -3.54755894501560        1.14840309646806
H            4.86030180136317       -3.77791837756101       -0.59584388971458
H            7.56163142710898       -1.87220475637208        1.03928436569512
H            6.19486308112167       -1.53212671923864        2.09355746098792
H            6.81270852065827       -0.28063770061475        0.99927448614914
H            3.57000952332463       -2.24808706128875       -1.65964961566694
H            1.38763405563944       -1.16913429871422       -1.69055025653048
H            2.25136133525681        2.91233193071667       -0.09685969141288

          :  Hamiltonian                  GFN2-xTB          :
         :: gradient norm              0.000032922672 Eh/a0 ::
         :: HOMO-LUMO gap              3.105173974859 eV    ::
         :: SCC energy               -71.930439089555 Eh    ::
         :: -> dispersion             -0.059597068348 Eh    ::
         :: -> Gsolv                  -0.030154602454 Eh    ::
         :: repulsion energy           1.195203909395 Eh    ::

    * Orbital Energies and Occupations

         #    Occupation            Energy/Eh            Energy/eV
      -------------------------------------------------------------
         1        2.0000           -0.8323412             -22.6492
       ...           ...                  ...                  ...
        54        2.0000           -0.4369057             -11.8888
        55        2.0000           -0.4301471             -11.7049
        56        2.0000           -0.4274505             -11.6315
        57        2.0000           -0.4241894             -11.5428
        58        2.0000           -0.4206737             -11.4471
        59        2.0000           -0.4180379             -11.3754
        60        2.0000           -0.4152507             -11.2995
        61        2.0000           -0.4098313             -11.1521
        62        2.0000           -0.4042782             -11.0010
        63        2.0000           -0.4025443             -10.9538
        64        2.0000           -0.3976592             -10.8209
        65        2.0000           -0.3764983             -10.2450
        66        2.0000           -0.3643180              -9.9136 (HOMO)
        67                         -0.2502049              -6.8084 (LUMO)
        68                         -0.2348063              -6.3894
        69                         -0.2287133              -6.2236
        70                         -0.2278497              -6.2001
        71                         -0.1995184              -5.4292
        72                         -0.1983644              -5.3978
        73                         -0.1906333              -5.1874
        74                         -0.1086365              -2.9561
        75                         -0.0937078              -2.5499
        76                         -0.0681364              -1.8541
        77                          0.0066726               0.1816
       ...                                ...                  ...
       133                          0.7371971              20.0602
      -------------------------------------------------------------
                  HL-Gap            0.1141131 Eh            3.1052 eV

     #   Z          covCN         q      C6AA      α(0)
     1   6 C        3.758    -0.110    22.654     6.786
     2   6 C        2.969     0.015    27.665     8.628
     3   6 C        2.925    -0.051    29.273     8.873
     4   6 C        2.910    -0.036    28.894     8.814
     5   6 C        3.067    -0.023    28.510     8.755
     6   6 C        3.075    -0.022    28.469     8.748
     7   6 C        2.991    -0.042    29.041     8.840
     8   6 C        2.921     0.057    26.715     8.476
     9  35 Br       1.063    -0.218   191.134    22.291
    10   6 C        3.024     0.009    27.799     8.649
    11   6 C        3.762    -0.103    22.516     6.764
    12   6 C        2.919    -0.062    29.537     8.912
    13   6 C        3.074     0.046    26.889     8.502
    14   7 N        2.803    -0.043    22.075     6.978
    15   6 C        2.912     0.058    26.701     8.473
    16   6 C        2.921    -0.044    29.104     8.847
    17   6 C        2.925    -0.038    28.954     8.824
    18   6 C        2.972     0.009    27.808     8.650
    19   6 C        3.902     0.026    20.081     6.370
    20   6 C        3.761    -0.106    22.576     6.773
    21   6 C        3.761    -0.106    22.575     6.773
    22   6 C        3.761    -0.109    22.628     6.781
    23   6 C        2.927    -0.034    28.850     8.808
    24   6 C        2.920    -0.045    29.115     8.849
    25   6 C        3.080     0.047    26.860     8.497
    26   6 C        2.915    -0.061    29.514     8.908
    27   1 H        0.925     0.049     2.334     2.389
    28   1 H        0.925     0.050     2.317     2.381
    29   1 H        0.925     0.044     2.399     2.422
    30   1 H        0.926     0.032     2.563     2.503
    31   1 H        0.926     0.029     2.595     2.519
    32   1 H        0.926     0.044     2.401     2.423
    33   1 H        0.925     0.048     2.345     2.395
    34   1 H        0.924     0.056     2.241     2.341
    35   1 H        0.924     0.056     2.247     2.344
    36   1 H        0.926     0.043     2.408     2.427
    37   1 H        0.926     0.039     2.463     2.454
    38   1 H        0.926     0.047     2.354     2.399
    39   1 H        0.925     0.034     2.530     2.488
    40   1 H        0.925     0.038     2.476     2.461
    41   1 H        0.925     0.041     2.438     2.442
    42   1 H        0.925     0.041     2.438     2.442
    43   1 H        0.925     0.034     2.531     2.488
    44   1 H        0.925     0.038     2.477     2.461
    45   1 H        0.925     0.039     2.456     2.451
    46   1 H        0.925     0.037     2.485     2.465
    47   1 H        0.925     0.037     2.484     2.465
    48   1 H        0.926     0.040     2.448     2.447
    49   1 H        0.926     0.037     2.485     2.465
    50   1 H        0.926     0.033     2.541     2.493

molecular dipole:
                 x           y           z       tot (Debye)
 q only:        2.528       0.040       0.005
   full:        2.868       0.213      -0.003       7.309

 projected vibrational frequencies (cm⁻¹)
eigval :       -0.00     0.00     0.00     0.00     0.00     0.00
eigval :      -29.92    24.07    26.73    31.19    53.98    69.65
eigval :       77.83    91.60   106.11   139.02   169.03   173.15
eigval :      174.12   177.19   200.05   218.58   222.88   242.09
eigval :      251.61   261.53   284.27   315.49   319.38   327.19
eigval :      329.66   363.07   366.96   383.60   389.82   403.59
eigval :      414.32   432.98   439.33   454.92   462.22   513.12
eigval :      535.86   561.82   563.80   576.08   580.08   602.18
eigval :      623.56   664.96   665.33   695.86   702.57   728.77
eigval :      761.92   769.31   813.55   823.00   842.13   863.16
eigval :      872.00   872.96   880.41   901.87   910.96   919.79
eigval :      931.89   959.39   962.28   964.23   969.58   983.72
eigval :     1006.17  1017.24  1018.45  1028.38  1031.04  1034.36
eigval :     1035.03  1040.47  1133.83  1141.26  1144.98  1161.04
eigval :     1185.92  1193.08  1209.31  1225.39  1226.51  1231.93
eigval :     1250.11  1274.20  1278.70  1290.13  1303.15  1316.60
eigval :     1351.87  1356.62  1368.78  1396.75  1400.69  1403.28
eigval :     1404.97  1407.56  1427.25  1427.94  1439.90  1454.70
eigval :     1472.42  1472.73  1475.47  1487.26  1488.29  1489.74
eigval :     1490.97  1499.60  1500.28  1504.21  1510.88  1516.35
eigval :     1552.91  1569.76  1581.87  1596.31  1600.51  1613.04
eigval :     2995.04  2999.88  3010.65  3016.40  3021.84  3022.01
eigval :     3025.21  3026.40  3029.33  3031.96  3037.28  3043.50
eigval :     3045.00  3047.68  3048.26  3073.36  3079.11  3081.32
eigval :     3082.93  3085.96  3090.12  3092.61  3094.41  3117.17

   temp. (K)  partition function   enthalpy   heat capacity  entropy
                                   cal/mol     cal/K/mol   cal/K/mol   J/K/mol
 298.15  VIB  0.186E+10            13443.684     85.744     81.434
         ROT  0.243E+08              888.752      2.981     36.772
         INT  0.450E+17            14332.436     88.724    118.207
         TR   0.793E+28             1481.254      4.968     43.877
         TOT                       15813.6902    93.6926   162.0840   678.1597

       T/K    H(0)-H(T)+PV         H(T)/Eh          T*S/Eh         G(T)/Eh
   ------------------------------------------------------------------------
    298.15    0.252007E-01    0.429919E+00    0.770114E-01    0.352908E+00
   ------------------------------------------------------------------------

         :::::::::::::::::::::::::::::::::::::::::::::::::::::
         ::                  THERMODYNAMIC                  ::
         :::::::::::::::::::::::::::::::::::::::::::::::::::::
         :: total free energy         -70.382327042750 Eh   ::
         ::.................................................::
         :: total energy              -70.735235176257 Eh   ::
         :: zero point energy           0.404718776412 Eh   ::
         :: G(RRHO) w/o ZPVE           -0.051810642905 Eh   ::
         :: G(RRHO) contrib.            0.352908133507 Eh   ::
         :::::::::::::::::::::::::::::::::::::::::::::::::::::

           -------------------------------------------------
          | TOTAL ENERGY              -70.735235176257 Eh   |
          | TOTAL ENTHALPY            -70.305315680476 Eh   |
          | TOTAL FREE ENERGY         -70.382327042750 Eh   |
          | GRADIENT NORM               0.000032948297 Eh/α |
          | HOMO-LUMO GAP               3.105174407479 eV   |
           -------------------------------------------------

 * finished run on 2025/07/19 at 19:11:35.709
