   * xtb version 6.7.1 (edcfbbe) compiled by 'albert@albert-system' on 2024-07-22

   ID    Z sym.   atoms
    1    6 C      1-8, 10-13, 15-26
    2   35 Br     9
    3    7 N      14
    4    1 H      27-50

          program call               : xtb data2507/toluene/BuPCzBCO/BuPCzBCO_toluene_T1_crest.xyz --gfn 2 --uhf 2 --gbsa toluene --ohess vtight --parallel 40 --molden --ceasefiles --namespace data2507/toluene/BuPCzBCO/BuPCzBCO_toluene_T1_finalOpt
      * Solvation model:               GBSA
        Solvent                        toluene
        Solvent mass                       9.2140E+01 g/mol
          :  Hamiltonian                  GFN2-xTB          :
 * total energy  :   -70.6216774 Eh     change       -0.7994885E-09 Eh
 * total energy  :   -70.6217062 Eh     change       -0.2878213E-04 Eh
 * total energy  :   -70.6217148 Eh     change       -0.8572787E-05 Eh
 * total energy  :   -70.6217164 Eh     change       -0.1655013E-05 Eh
 * total energy  :   -70.6217158 Eh     change        0.6297402E-06 Eh
 * total energy  :   -70.6217172 Eh     change       -0.1399925E-05 Eh
 * total energy  :   -70.6217177 Eh     change       -0.4992120E-06 Eh
 * total energy  :   -70.6217183 Eh     change       -0.6149674E-06 Eh
 * total energy  :   -70.6217188 Eh     change       -0.5284522E-06 Eh
 * total energy  :   -70.6217191 Eh     change       -0.2536209E-06 Eh
 * total energy  :   -70.6217195 Eh     change       -0.1753844E-06 Eh
 * total energy  :   -70.6217197 Eh     change       -0.1840516E-06 Eh
 * total energy  :   -70.6217199 Eh     change       -0.2421378E-06 Eh
 * total energy  :   -70.6217202 Eh     change       -0.2463403E-06 Eh
 * total energy  :   -70.6217204 Eh     change       -0.1654692E-06 Eh
 * total energy  :   -70.6217205 Eh     change       -0.1793092E-06 Eh
 * total energy  :   -70.6217208 Eh     change       -0.2466448E-06 Eh
 * total energy  :   -70.6217209 Eh     change       -0.1033075E-06 Eh
 * total energy  :   -70.6217209 Eh     change       -0.4036448E-07 Eh
   *** GEOMETRY OPTIMIZATION CONVERGED AFTER 21 ITERATIONS ***

 final structure:
================
50
 xtb: 6.7.1 (edcfbbe)
C            1.67148003223827        5.53052442939630       -0.18553481493829
C            0.68552452954334        4.41376944514074       -0.10614962879011
C           -0.68113888491450        4.63149024732418       -0.06264846226259
C           -1.59851352279583        3.59456311791776       -0.00413271585891
C           -1.11561462203756        2.25436159256082        0.01195975838283
C           -1.72546942540980        1.00652266811911       -0.00389469495843
C           -3.07544928517632        0.56102716171868       -0.02111400492596
C           -3.30420291207734       -0.78556873283866        0.02289309877147
Br          -5.13191030591599       -1.36630539897296        0.00677950166050
C           -2.28708037242837       -1.77597226672745        0.08830465364638
C           -2.61973285153211       -3.22874522560733        0.17354781285938
C           -0.95158459943074       -1.34343221638146        0.07441820295789
C           -0.66987832328287        0.00109284581106        0.00886612608283
N            0.53359106793489        0.65017011733320        0.01839634995214
C            1.79151466057518        0.05343014797174        0.01954391591431
C            2.79064544347735        0.49661305985735        0.88789544505026
C            4.03548297538008       -0.09990467772238        0.88653847813452
C            4.33999863074837       -1.15295300765442        0.02655047504232
C            5.69727710742487       -1.83436230188785       -0.00451491634555
C            6.67797934475147       -1.24478716038443        1.01360403205574
C            6.30601243334621       -1.67287041612314       -1.40624250440754
C            5.51522105051044       -3.32656060080952        0.31329312033917
C            3.33147051057214       -1.58356662290209       -0.83922891152309
C            2.08326933787138       -1.00228776925407       -0.84850144884363
C            0.29859651444625        2.03853029269798        0.00866933333138
C            1.18931561708704        3.06112958500920       -0.07773841490998
H            2.37481787753299        5.48215279041005        0.64757569353830
H            2.25490074718929        5.45808891258397       -1.10557949126294
H            1.17176158818022        6.49549850686323       -0.16570995442704
H           -1.04673352289888        5.64905593155572       -0.07671507113312
H           -2.65884493661255        3.78698729544360        0.02753371841550
H           -3.88398188205822        1.27253396941998       -0.06296642767947
H           -3.21050392284198       -3.44231428324258        1.06687799431081
H           -1.71159791396613       -3.82474558863185        0.20952064761287
H           -3.21046457769901       -3.54586710620737       -0.68847517263955
H           -0.16323899751070       -2.07734764623739        0.13257663702369
H            2.57123763761076        1.28814977628405        1.58863199210699
H            4.77092130526553        0.26685617537039        1.58334968120460
H            6.30392858248972       -1.35715279419370        2.02874714139433
H            6.86470312057253       -0.19191908234156        0.81474025580226
H            7.62774525148011       -1.77157438505370        0.94669170648901
H            7.28658072853818       -2.14262100062354       -1.44266564222589
H            5.68078361029880       -2.13249425973921       -2.16664848394370
H            6.41943821072384       -0.61806264295915       -1.64898924457608
H            6.48080874530368       -3.82770422175557        0.31467274237917
H            4.88031414146211       -3.81523015799331       -0.42053836989685
H            5.06099078911049       -3.45025734509934        1.29456615866061
H            3.52363958978784       -2.38756646391562       -1.53300635151427
H            1.33339199835540       -1.33410586472536       -1.55091628603908
H            2.25380321258003        2.89833632059546       -0.14024306731694

          :  Hamiltonian                  GFN2-xTB          :
         :: gradient norm              0.000063689534 Eh/a0 ::
         :: HOMO-LUMO gap              0.576942669892 eV    ::
         :: SCC energy               -71.796071599398 Eh    ::
         :: -> dispersion             -0.059558870400 Eh    ::
         :: -> Gsolv                  -0.030413384619 Eh    ::
         :: repulsion energy           1.174350656355 Eh    ::

    * Orbital Energies and Occupations

         #    Occupation            Energy/Eh            Energy/eV
      -------------------------------------------------------------
         1        2.0000           -0.8361263             -22.7522
       ...           ...                  ...                  ...
        55        2.0000           -0.4306532             -11.7187
        56        2.0000           -0.4290859             -11.6760
        57        2.0000           -0.4232142             -11.5162
        58        2.0000           -0.4220827             -11.4855
        59        2.0000           -0.4174248             -11.3587
        60        2.0000           -0.4124337             -11.2229
        61        2.0000           -0.4119264             -11.2091
        62        2.0000           -0.4078319             -11.0977
        63        2.0000           -0.4041463             -10.9974
        64        2.0000           -0.3986620             -10.8481
        65        1.9606           -0.3696281             -10.0581
        66        1.0394           -0.3635585              -9.8929
        67        1.0000           -0.2566690              -6.9843 (HOMO)
        68        0.0000           -0.2354663              -6.4074 (LUMO)
        69                         -0.2294058              -6.2424
        70                         -0.2255134              -6.1365
        71                         -0.2004821              -5.4554
        72                         -0.1987220              -5.4075
        73                         -0.1873099              -5.0970
        74                         -0.1135828              -3.0907
        75                         -0.0964865              -2.6255
        76                         -0.0701497              -1.9089
        77                         -0.0003472              -0.0094
        78                          0.0372005               1.0123
       ...                                ...                  ...
       133                          0.7446190              20.2621
      -------------------------------------------------------------
                  HL-Gap            0.0212027 Eh            0.5770 eV

     #   Z          covCN         q      C6AA      α(0)
     1   6 C        3.757    -0.107    22.604     6.779
     2   6 C        2.963     0.002    27.980     8.676
     3   6 C        2.911    -0.045    29.112     8.847
     4   6 C        2.906    -0.046    29.148     8.853
     5   6 C        3.044    -0.030    28.694     8.786
     6   6 C        3.067    -0.018    28.396     8.738
     7   6 C        2.996    -0.064    29.590     8.923
     8   6 C        2.911     0.073    26.376     8.422
     9  35 Br       1.080    -0.190   190.315    22.243
    10   6 C        3.021    -0.017    28.401     8.742
    11   6 C        3.760    -0.099    22.435     6.752
    12   6 C        2.909    -0.071    29.758     8.945
    13   6 C        3.040     0.048    26.891     8.505
    14   7 N        2.793    -0.020    21.638     6.909
    15   6 C        2.912     0.056    26.748     8.481
    16   6 C        2.919    -0.044    29.094     8.845
    17   6 C        2.923    -0.037    28.928     8.820
    18   6 C        2.972     0.010    27.788     8.647
    19   6 C        3.902     0.027    20.068     6.368
    20   6 C        3.761    -0.109    22.640     6.783
    21   6 C        3.761    -0.107    22.582     6.774
    22   6 C        3.761    -0.107    22.582     6.774
    23   6 C        2.925    -0.033    28.822     8.804
    24   6 C        2.919    -0.044    29.092     8.845
    25   6 C        3.056     0.044    26.958     8.515
    26   6 C        2.908    -0.054    29.332     8.881
    27   1 H        0.924     0.052     2.294     2.368
    28   1 H        0.924     0.053     2.288     2.366
    29   1 H        0.925     0.044     2.393     2.419
    30   1 H        0.925     0.028     2.608     2.526
    31   1 H        0.926     0.025     2.663     2.552
    32   1 H        0.926     0.036     2.509     2.477
    33   1 H        0.924     0.050     2.320     2.382
    34   1 H        0.925     0.044     2.392     2.418
    35   1 H        0.924     0.051     2.305     2.374
    36   1 H        0.926     0.037     2.492     2.469
    37   1 H        0.926     0.042     2.421     2.433
    38   1 H        0.926     0.050     2.316     2.380
    39   1 H        0.925     0.038     2.476     2.461
    40   1 H        0.925     0.038     2.473     2.459
    41   1 H        0.925     0.040     2.447     2.446
    42   1 H        0.925     0.042     2.424     2.435
    43   1 H        0.925     0.039     2.469     2.457
    44   1 H        0.925     0.035     2.518     2.482
    45   1 H        0.925     0.042     2.426     2.436
    46   1 H        0.925     0.038     2.469     2.457
    47   1 H        0.925     0.034     2.524     2.484
    48   1 H        0.926     0.043     2.413     2.429
    49   1 H        0.926     0.040     2.445     2.445
    50   1 H        0.926     0.040     2.445     2.445

molecular dipole:
                 x           y           z       tot (Debye)
 q only:        2.852       0.014       0.001
   full:        3.194       0.160      -0.010       8.128

 projected vibrational frequencies (cm⁻¹)
eigval :       -0.00    -0.00     0.00     0.00     0.00     0.00
eigval :       24.64    29.40    34.02    52.85    63.70    80.65
eigval :       93.44   104.01   107.64   125.28   140.03   166.53
eigval :      168.12   170.90   189.83   215.73   217.13   223.34
eigval :      239.85   248.31   272.75   307.41   309.29   316.92
eigval :      326.09   330.18   353.25   363.78   381.88   387.35
eigval :      404.08   409.29   430.16   452.02   460.38   492.98
eigval :      517.25   530.50   542.73   548.90   571.20   596.14
eigval :      615.15   624.28   647.68   659.30   685.14   721.74
eigval :      725.17   741.33   745.50   767.64   797.11   815.76
eigval :      829.32   849.12   867.57   884.52   886.40   918.25
eigval :      928.98   938.54   947.55   959.22   962.24   963.96
eigval :      976.67   999.25  1003.91  1007.03  1012.33  1018.65
eigval :     1034.19  1034.76  1090.74  1132.31  1138.30  1148.50
eigval :     1161.88  1168.36  1189.55  1196.15  1206.50  1222.56
eigval :     1227.31  1230.01  1252.85  1271.23  1274.85  1291.47
eigval :     1319.90  1331.69  1353.29  1368.63  1371.96  1392.43
eigval :     1398.48  1400.04  1402.15  1404.59  1409.13  1426.48
eigval :     1427.92  1451.52  1464.05  1466.14  1470.71  1478.37
eigval :     1484.74  1487.50  1487.70  1489.76  1496.98  1500.49
eigval :     1510.57  1512.49  1516.93  1524.98  1565.27  1582.65
eigval :     2961.15  2964.94  2983.11  2986.58  3022.33  3022.72
eigval :     3026.16  3026.86  3030.30  3032.50  3037.71  3044.63
eigval :     3045.12  3045.69  3048.42  3065.83  3082.81  3087.19
eigval :     3093.76  3094.04  3095.21  3096.79  3103.65  3117.03

   temp. (K)  partition function   enthalpy   heat capacity  entropy
                                   cal/mol     cal/K/mol   cal/K/mol   J/K/mol
 298.15  VIB  0.847E+10            14342.621     90.042     87.656
         ROT  0.243E+08              888.752      2.981     36.777
         INT  0.206E+18            15231.373     93.022    124.434
         TR   0.793E+28             1481.254      4.968     43.877
         TOT                       16712.6271    97.9906   168.3109   704.2129

       T/K    H(0)-H(T)+PV         H(T)/Eh          T*S/Eh         G(T)/Eh
   ------------------------------------------------------------------------
    298.15    0.266333E-01    0.426185E+00    0.799700E-01    0.346215E+00
   ------------------------------------------------------------------------

         :::::::::::::::::::::::::::::::::::::::::::::::::::::
         ::                  THERMODYNAMIC                  ::
         :::::::::::::::::::::::::::::::::::::::::::::::::::::
         :: total free energy         -70.275506013249 Eh   ::
         ::.................................................::
         :: total energy              -70.621720945219 Eh   ::
         :: zero point energy           0.399551618899 Eh   ::
         :: G(RRHO) w/o ZPVE           -0.053336686930 Eh   ::
         :: G(RRHO) contrib.            0.346214931970 Eh   ::
         :::::::::::::::::::::::::::::::::::::::::::::::::::::

           -------------------------------------------------
          | TOTAL ENERGY              -70.621720945219 Eh   |
          | TOTAL ENTHALPY            -70.195536059720 Eh   |
          | TOTAL FREE ENERGY         -70.275506013249 Eh   |
          | GRADIENT NORM               0.000063319647 Eh/α |
          | HOMO-LUMO GAP               0.576954410952 eV   |
           -------------------------------------------------

 * finished run on 2025/07/19 at 19:13:46.454
