   * xtb version 6.7.1 (edcfbbe) compiled by 'albert@albert-system' on 2024-07-22

   ID    Z sym.   atoms
    1    6 C      1-8, 10-13, 15-26
    2   35 Br     9
    3    7 N      14
    4    1 H      27-50

          program call               : xtb data2507/toluene/BuPCzBCO/BuPCzBCO_toluene_S0_finalOpt.xtbopt.xyz --gfn 2 --uhf 2 --gbsa toluene --ohess vtight --parallel 40 --molden --ceasefiles --namespace data2507/toluene/BuPCzBCO/BuPCzBCO_toluene_T1_preOpt
      * Solvation model:               GBSA
        Solvent                        toluene
        Solvent mass                       9.2140E+01 g/mol
          :  Hamiltonian                  GFN2-xTB          :
 * total energy  :   -70.6150218 Eh     change       -0.6730957E-08 Eh
 * total energy  :   -70.6189022 Eh     change       -0.3880372E-02 Eh
 * total energy  :   -70.6203334 Eh     change       -0.1431178E-02 Eh
 * total energy  :   -70.6205493 Eh     change       -0.2158857E-03 Eh
 * total energy  :   -70.6206888 Eh     change       -0.1394978E-03 Eh
 * total energy  :   -70.6207735 Eh     change       -0.8474528E-04 Eh
 * total energy  :   -70.6208687 Eh     change       -0.9514617E-04 Eh
 * total energy  :   -70.6209237 Eh     change       -0.5502664E-04 Eh
 * total energy  :   -70.6209627 Eh     change       -0.3896650E-04 Eh
 * total energy  :   -70.6209729 Eh     change       -0.1019923E-04 Eh
 * total energy  :   -70.6216946 Eh     change       -0.2000467E-05 Eh
 * total energy  :   -70.6216958 Eh     change       -0.1270815E-05 Eh
 * total energy  :   -70.6216969 Eh     change       -0.1049439E-05 Eh
 * total energy  :   -70.6216979 Eh     change       -0.9645311E-06 Eh
 * total energy  :   -70.6216985 Eh     change       -0.6871836E-06 Eh
 * total energy  :   -70.6216984 Eh     change        0.1641658E-06 Eh
 * total energy  :   -70.6216990 Eh     change       -0.5788350E-06 Eh
 * total energy  :   -70.6216991 Eh     change       -0.1277924E-06 Eh
 * total energy  :   -70.6216991 Eh     change       -0.1040112E-07 Eh
   *** GEOMETRY OPTIMIZATION CONVERGED AFTER 60 ITERATIONS ***

 final structure:
================
50
 xtb: 6.7.1 (edcfbbe)
C            1.67245249149556        5.53084536147112       -0.10940839584350
C            0.68257617806439        4.41562913695011       -0.06373421334994
C           -0.68423241513500        4.63573814438276       -0.04216220177705
C           -1.60434061301588        3.60014298332890       -0.00904054544129
C           -1.12434481927989        2.25884609447224        0.00263389302624
C           -1.73614535748808        1.01245392633289       -0.03607617678691
C           -3.08650624366976        0.56990140788301       -0.08013838924249
C           -3.31845275682658       -0.77660572913364       -0.05389559453562
Br          -5.14689610948672       -1.35316949404069       -0.10636930480043
C           -2.30435860029420       -1.76971548461576        0.01761963761016
C           -2.64086681488631       -3.22271369553817        0.08089912706126
C           -0.96798844519142       -1.33974945056085        0.03021108900896
C           -0.68276772137947        0.00479786598505       -0.01671486658816
N            0.52157218531398        0.65127657698371        0.01953960889920
C            1.77884819908138        0.05329937530870        0.02753754210378
C            2.76936974568205        0.48622677723695        0.91088228155073
C            4.01520588415201       -0.10816573856281        0.91287065413836
C            4.32948095045018       -1.14889592208417        0.04150340650796
C            5.68896406177785       -1.82595623346946        0.01213096720476
C            6.30645606110092       -1.64805873229021       -1.38379700220965
C            5.50939081253336       -3.32187898707767        0.31327942762463
C            6.66130106686043       -1.24381785110545        1.04249016874566
C            3.32896758857551       -1.57072602431949       -0.83781316370868
C            2.07986286339389       -0.99147456084273       -0.85061606013673
C            0.28933082604230        2.04018610063976        0.02084945757469
C            1.18319485382809        3.06181501558990       -0.04029246414758
H            1.17343719950325        6.49622016459091       -0.12842656978056
H            2.33142086950027        5.49453649962449        0.76034234835225
H            2.30288273508633        5.44458049420420       -0.99646627921624
H           -1.04752045529620        5.65417484722823       -0.05257185019687
H           -2.66471857903492        3.79435176063399        0.00614892497090
H           -3.89291339640982        1.28344607528628       -0.12785134525180
H           -1.73443607658015       -3.82078609894088        0.12480087013591
H           -3.21791476192809       -3.52876220979245       -0.79431438231471
H           -3.24649935418655       -3.44543504112325        0.96195533942490
H           -0.18208981294848       -2.07585333388983        0.09367978215638
H            2.54275737584004        1.26825680685969        1.61993156771909
H            4.74376279713768        0.25084973441864        1.62084586020969
H            6.41626463040686       -0.59042122411016       -1.61557247616023
H            5.68894598256545       -2.10338824645188       -2.15300272983184
H            7.28962043567082       -2.11251486564800       -1.41797130037726
H            6.47612231058619       -3.82079311957229        0.31293462855747
H            5.05168799550667       -3.45712112540577        1.29139713259352
H            4.87833474301809       -3.80395131500986       -0.42818770604349
H            7.61321459673854       -1.76675301359729        0.97608520027511
H            6.28143410892470       -1.36789011924312        2.05409111828523
H            6.84566293406588       -0.18832886474796        0.85562893734186
H            3.52849212111205       -2.36563771621365       -1.53993930392337
H            1.33686069405494       -1.31580393815455       -1.56374119766672
H            2.24826429689321        2.89757803323272       -0.08695248287479

          :  Hamiltonian                  GFN2-xTB          :
         :: gradient norm              0.000141788156 Eh/a0 ::
         :: HOMO-LUMO gap              0.576674350407 eV    ::
         :: SCC energy               -71.796018364991 Eh    ::
         :: -> dispersion             -0.059559477508 Eh    ::
         :: -> Gsolv                  -0.030391544567 Eh    ::
         :: repulsion energy           1.174319267714 Eh    ::

    * Orbital Energies and Occupations

         #    Occupation            Energy/Eh            Energy/eV
      -------------------------------------------------------------
         1        2.0000           -0.8361209             -22.7520
       ...           ...                  ...                  ...
        55        2.0000           -0.4306588             -11.7188
        56        2.0000           -0.4290847             -11.6760
        57        2.0000           -0.4232246             -11.5165
        58        2.0000           -0.4220826             -11.4855
        59        2.0000           -0.4174238             -11.3587
        60        2.0000           -0.4124204             -11.2225
        61        2.0000           -0.4119205             -11.2089
        62        2.0000           -0.4078303             -11.0976
        63        2.0000           -0.4041372             -10.9971
        64        2.0000           -0.3986681             -10.8483
        65        1.9607           -0.3696273             -10.0581
        66        1.0393           -0.3635528              -9.8928
        67        1.0000           -0.2566742              -6.9845 (HOMO)
        68        0.0000           -0.2354819              -6.4078 (LUMO)
        69                         -0.2293969              -6.2422
        70                         -0.2254922              -6.1360
        71                         -0.2005001              -5.4559
        72                         -0.1987156              -5.4073
        73                         -0.1873109              -5.0970
        74                         -0.1135900              -3.0909
        75                         -0.0964747              -2.6252
        76                         -0.0701545              -1.9090
        77                         -0.0002775              -0.0076
        78                          0.0372149               1.0127
       ...                                ...                  ...
       133                          0.7446173              20.2621
      -------------------------------------------------------------
                  HL-Gap            0.0211923 Eh            0.5767 eV

     #   Z          covCN         q      C6AA      α(0)
     1   6 C        3.757    -0.107    22.604     6.779
     2   6 C        2.963     0.002    27.981     8.676
     3   6 C        2.911    -0.045    29.111     8.847
     4   6 C        2.906    -0.046    29.148     8.853
     5   6 C        3.044    -0.030    28.694     8.786
     6   6 C        3.067    -0.018    28.397     8.738
     7   6 C        2.996    -0.064    29.589     8.923
     8   6 C        2.911     0.073    26.376     8.421
     9  35 Br       1.079    -0.190   190.316    22.243
    10   6 C        3.021    -0.017    28.401     8.742
    11   6 C        3.760    -0.099    22.435     6.752
    12   6 C        2.909    -0.071    29.757     8.945
    13   6 C        3.040     0.048    26.891     8.505
    14   7 N        2.793    -0.020    21.637     6.909
    15   6 C        2.912     0.056    26.748     8.481
    16   6 C        2.919    -0.044    29.095     8.845
    17   6 C        2.923    -0.037    28.928     8.820
    18   6 C        2.972     0.010    27.788     8.647
    19   6 C        3.902     0.027    20.068     6.368
    20   6 C        3.761    -0.107    22.582     6.774
    21   6 C        3.761    -0.107    22.582     6.774
    22   6 C        3.761    -0.109    22.641     6.783
    23   6 C        2.925    -0.033    28.822     8.804
    24   6 C        2.919    -0.044    29.092     8.845
    25   6 C        3.056     0.044    26.959     8.515
    26   6 C        2.908    -0.054    29.333     8.881
    27   1 H        0.925     0.044     2.394     2.419
    28   1 H        0.924     0.052     2.290     2.367
    29   1 H        0.924     0.052     2.292     2.367
    30   1 H        0.925     0.028     2.608     2.525
    31   1 H        0.926     0.025     2.663     2.552
    32   1 H        0.926     0.036     2.509     2.477
    33   1 H        0.925     0.044     2.392     2.418
    34   1 H        0.924     0.051     2.305     2.374
    35   1 H        0.924     0.050     2.320     2.382
    36   1 H        0.926     0.037     2.492     2.469
    37   1 H        0.926     0.042     2.420     2.433
    38   1 H        0.926     0.050     2.316     2.380
    39   1 H        0.925     0.035     2.518     2.482
    40   1 H        0.925     0.039     2.468     2.457
    41   1 H        0.925     0.042     2.424     2.435
    42   1 H        0.925     0.042     2.426     2.436
    43   1 H        0.925     0.035     2.523     2.484
    44   1 H        0.925     0.038     2.470     2.457
    45   1 H        0.925     0.040     2.447     2.446
    46   1 H        0.925     0.038     2.476     2.461
    47   1 H        0.925     0.038     2.473     2.459
    48   1 H        0.926     0.043     2.413     2.429
    49   1 H        0.926     0.040     2.445     2.445
    50   1 H        0.926     0.040     2.444     2.445

molecular dipole:
                 x           y           z       tot (Debye)
 q only:        2.854       0.011       0.043
   full:        3.196       0.156       0.041       8.133

 projected vibrational frequencies (cm⁻¹)
eigval :       -0.00    -0.00    -0.00     0.00     0.00     0.00
eigval :       24.08    27.14    32.34    47.78    62.80    80.92
eigval :       86.84    95.93   104.90   125.66   149.19   165.54
eigval :      167.30   170.36   189.30   214.48   216.15   222.41
eigval :      239.55   248.08   271.88   306.26   309.07   317.06
eigval :      325.89   329.64   351.62   363.47   381.74   387.32
eigval :      403.40   409.02   430.10   451.89   459.90   493.00
eigval :      515.83   530.45   542.05   548.82   571.15   596.13
eigval :      614.87   624.11   647.16   659.18   685.17   721.73
eigval :      725.32   741.31   745.42   768.94   799.58   815.53
eigval :      829.53   849.12   867.88   884.52   885.96   919.21
eigval :      929.08   938.74   947.58   959.08   960.37   962.81
eigval :      976.66   999.30  1003.95  1006.74  1010.43  1019.57
eigval :     1033.69  1034.18  1090.56  1132.40  1138.27  1148.66
eigval :     1162.03  1168.46  1189.56  1196.34  1206.47  1222.48
eigval :     1227.50  1229.49  1253.17  1271.15  1274.88  1291.46
eigval :     1319.92  1331.51  1353.19  1368.61  1371.89  1391.99
eigval :     1398.47  1399.20  1402.18  1405.57  1409.11  1426.46
eigval :     1427.85  1451.36  1463.98  1466.10  1471.11  1478.19
eigval :     1483.54  1487.23  1488.26  1489.53  1496.89  1500.16
eigval :     1510.62  1512.41  1516.88  1524.94  1565.35  1582.64
eigval :     2961.18  2964.18  2983.00  2984.73  3022.33  3022.75
eigval :     3026.16  3026.47  3030.42  3032.49  3037.79  3044.14
eigval :     3045.30  3045.77  3048.63  3065.64  3082.82  3087.27
eigval :     3093.79  3094.05  3095.19  3096.75  3103.75  3117.19

   temp. (K)  partition function   enthalpy   heat capacity  entropy
                                   cal/mol     cal/K/mol   cal/K/mol   J/K/mol
 298.15  VIB  0.122E+11            14378.810     89.865     88.033
         ROT  0.243E+08              888.752      2.981     36.777
         INT  0.297E+18            15267.563     92.846    124.810
         TR   0.793E+28             1481.254      4.968     43.877
         TOT                       16748.8165    97.8138   168.6869   705.7858

       T/K    H(0)-H(T)+PV         H(T)/Eh          T*S/Eh         G(T)/Eh
   ------------------------------------------------------------------------
    298.15    0.266909E-01    0.426152E+00    0.801486E-01    0.346003E+00
   ------------------------------------------------------------------------

         :::::::::::::::::::::::::::::::::::::::::::::::::::::
         ::                  THERMODYNAMIC                  ::
         :::::::::::::::::::::::::::::::::::::::::::::::::::::
         :: total free energy         -70.275696066930 Eh   ::
         ::.................................................::
         :: total energy              -70.621699097934 Eh   ::
         :: zero point energy           0.399460658889 Eh   ::
         :: G(RRHO) w/o ZPVE           -0.053457627885 Eh   ::
         :: G(RRHO) contrib.            0.346003031004 Eh   ::
         :::::::::::::::::::::::::::::::::::::::::::::::::::::

           -------------------------------------------------
          | TOTAL ENERGY              -70.621699097934 Eh   |
          | TOTAL ENTHALPY            -70.195547501077 Eh   |
          | TOTAL FREE ENERGY         -70.275696066930 Eh   |
          | GRADIENT NORM               0.000141703611 Eh/α |
          | HOMO-LUMO GAP               0.576671811989 eV   |
           -------------------------------------------------

 * finished run on 2025/07/19 at 19:11:39.285
