   * xtb version 6.7.1 (edcfbbe) compiled by 'albert@albert-system' on 2024-07-22

   ID    Z sym.   atoms
    1    6 C      1-8, 10-13, 15-26
    2   35 Br     9
    3    7 N      14
    4    1 H      27-50

          program call               : xtb data2507/toluene/BuPCzBCO/BuPCzBCO.xyz --gfn 2 --gbsa toluene --ohess vtight --parallel 40 --molden --ceasefiles --namespace data2507/toluene/BuPCzBCO/BuPCzBCO_toluene_S0_preOpt
      * Solvation model:               GBSA
        Solvent                        toluene
        Solvent mass                       9.2140E+01 g/mol
          :  Hamiltonian                  GFN2-xTB          :
 * total energy  :   -70.7241410 Eh     change       -0.6423875E-09 Eh
 * total energy  :   -70.7326292 Eh     change       -0.8488276E-02 Eh
 * total energy  :   -70.7342412 Eh     change       -0.1611969E-02 Eh
 * total energy  :   -70.7345097 Eh     change       -0.2684460E-03 Eh
 * total energy  :   -70.7347280 Eh     change       -0.2183474E-03 Eh
 * total energy  :   -70.7348417 Eh     change       -0.1136765E-03 Eh
 * total energy  :   -70.7349348 Eh     change       -0.9311158E-04 Eh
 * total energy  :   -70.7349750 Eh     change       -0.4017044E-04 Eh
 * total energy  :   -70.7350016 Eh     change       -0.2666681E-04 Eh
 * total energy  :   -70.7350170 Eh     change       -0.1539021E-04 Eh
 * total energy  :   -70.7352282 Eh     change       -0.2447238E-05 Eh
 * total energy  :   -70.7352297 Eh     change       -0.1503459E-05 Eh
 * total energy  :   -70.7352297 Eh     change       -0.1813558E-07 Eh
 * total energy  :   -70.7352305 Eh     change       -0.7935084E-06 Eh
 * total energy  :   -70.7352307 Eh     change       -0.2777189E-06 Eh
 * total energy  :   -70.7352310 Eh     change       -0.2572713E-06 Eh
 * total energy  :   -70.7352312 Eh     change       -0.1848231E-06 Eh
 * total energy  :   -70.7352313 Eh     change       -0.1093260E-06 Eh
 * total energy  :   -70.7352314 Eh     change       -0.7889552E-07 Eh
   *** GEOMETRY OPTIMIZATION CONVERGED AFTER 42 ITERATIONS ***

 final structure:
================
50
 xtb: 6.7.1 (edcfbbe)
C           -2.40953146609577        4.90381596643665       -0.27747561302886
C           -2.74763958326467        3.44609994658394       -0.18319932101723
C           -4.09214048521627        3.05343315341268       -0.15703717701446
C           -4.46049029456654        1.72720387312163       -0.08974836983707
C           -3.46310338358953        0.76039578104735       -0.03285973664421
C           -3.46706656397808       -0.67248061301595        0.02529402855453
C           -4.47117688593089       -1.62871691248187        0.07221043137128
C           -4.09901349840651       -2.95519243826845        0.14145125420267
Br          -5.50381503079828       -4.26938005392460        0.19811930015601
C           -2.76482718637385       -3.38063896590786        0.18093345694475
C           -2.41876095213149       -4.83342626353331        0.27373808368608
C           -1.76628232156799       -2.42062434074214        0.13493559306101
C           -2.11126815167384       -1.07937899247446        0.04419578132046
N           -1.30226723645849        0.03195586832770        0.00636079317582
C            0.10467689256070        0.02593648647112        0.01406135256886
C            0.80878096862690        0.78543499453498        0.93880619352973
C            2.19260979580776        0.77794112872784        0.94083947419936
C            2.91548685612788        0.01076729532684        0.03433100996204
C            4.43569114851921       -0.02949742857425        0.00839215700032
C            4.92512353644074        0.47568783510640       -1.35725535439692
C            4.90251774778409       -1.47682131643442        0.22521685735671
C            5.06800220788652        0.84377350303328        1.09639145655584
C            2.19220048233741       -0.74688594977331       -0.88517244161753
C            0.81181519800018       -0.74156320954387       -0.90491257204374
C           -2.10613629369348        1.15416147589776       -0.03973760617007
C           -1.74598692836988        2.49155211730650       -0.12786228300480
H           -2.85183508593916        5.45032845060641        0.55478148042557
H           -1.33351840173535        5.05703322536433       -0.26325926717247
H           -2.80921541126922        5.32492308873868       -1.19958098746985
H           -4.85536264479959        3.81720290056811       -0.19973732186577
H           -5.50188298293339        1.44123569939092       -0.08410664312854
H           -5.51231630418666       -1.34519262582261        0.05772094316777
H           -1.34106428594951       -4.97099471886410        0.28897699413807
H           -2.83079119747255       -5.37949974780579       -0.57530630273213
H           -2.84090721963182       -5.26933263623429        1.17953808781195
H           -0.73098350403667       -2.72232932932951        0.17999902366095
H            0.26986814216291        1.37491292230239        1.66607674141693
H            2.69895240425360        1.38156494285901        1.67584648826846
H            4.55777345236514       -0.14898204393739       -2.16681962836359
H            6.01257165415415        0.46992498135845       -1.38944269874206
H            4.58043798114372        1.49374885832337       -1.52823896299820
H            5.98951784432035       -1.52019852754636        0.23639423963809
H            4.53241710431106       -1.85366745393610        1.17684925615171
H            4.54554112145642       -2.13280891938377       -0.56389111676588
H            6.15194723550610        0.77247779518266        1.03212477641206
H            4.76875553362830        0.51224976552582        2.08818886582247
H            4.79370109583532        1.88863337822781        0.96987087568218
H            2.70974207350460       -1.35341790179102       -1.61256207530837
H            0.27583514440139       -1.32364960004448       -1.64033378132236
H           -0.70657932106525        2.78228655558795       -0.16310773559666

          :  Hamiltonian                  GFN2-xTB          :
         :: gradient norm              0.000055783589 Eh/a0 ::
         :: HOMO-LUMO gap              3.104386323259 eV    ::
         :: SCC energy               -71.930419402245 Eh    ::
         :: -> dispersion             -0.059598459369 Eh    ::
         :: -> Gsolv                  -0.030146936408 Eh    ::
         :: repulsion energy           1.195188023670 Eh    ::

    * Orbital Energies and Occupations

         #    Occupation            Energy/Eh            Energy/eV
      -------------------------------------------------------------
         1        2.0000           -0.8323576             -22.6496
       ...           ...                  ...                  ...
        54        2.0000           -0.4368931             -11.8885
        55        2.0000           -0.4301493             -11.7050
        56        2.0000           -0.4274817             -11.6324
        57        2.0000           -0.4242003             -11.5431
        58        2.0000           -0.4206572             -11.4467
        59        2.0000           -0.4180275             -11.3751
        60        2.0000           -0.4152210             -11.2987
        61        2.0000           -0.4097840             -11.1508
        62        2.0000           -0.4042883             -11.0012
        63        2.0000           -0.4025758             -10.9546
        64        2.0000           -0.3976565             -10.8208
        65        2.0000           -0.3765130             -10.2454
        66        2.0000           -0.3643033              -9.9132 (HOMO)
        67                         -0.2502192              -6.8088 (LUMO)
        68                         -0.2348278              -6.3900
        69                         -0.2286896              -6.2230
        70                         -0.2278157              -6.1992
        71                         -0.1994918              -5.4284
        72                         -0.1983374              -5.3970
        73                         -0.1906467              -5.1878
        74                         -0.1086397              -2.9562
        75                         -0.0936651              -2.5488
        76                         -0.0681298              -1.8539
        77                          0.0065103               0.1772
       ...                                ...                  ...
       133                          0.7372238              20.0609
      -------------------------------------------------------------
                  HL-Gap            0.1140841 Eh            3.1044 eV

     #   Z          covCN         q      C6AA      α(0)
     1   6 C        3.758    -0.110    22.654     6.786
     2   6 C        2.969     0.015    27.665     8.627
     3   6 C        2.925    -0.051    29.273     8.873
     4   6 C        2.910    -0.036    28.894     8.814
     5   6 C        3.067    -0.023    28.510     8.755
     6   6 C        3.075    -0.022    28.468     8.748
     7   6 C        2.991    -0.042    29.041     8.840
     8   6 C        2.922     0.057    26.715     8.476
     9  35 Br       1.064    -0.218   191.133    22.291
    10   6 C        3.024     0.009    27.799     8.649
    11   6 C        3.762    -0.103    22.516     6.764
    12   6 C        2.919    -0.062    29.537     8.912
    13   6 C        3.074     0.046    26.890     8.502
    14   7 N        2.803    -0.043    22.074     6.978
    15   6 C        2.912     0.058    26.701     8.473
    16   6 C        2.921    -0.045    29.106     8.847
    17   6 C        2.925    -0.038    28.955     8.824
    18   6 C        2.972     0.009    27.809     8.650
    19   6 C        3.902     0.026    20.081     6.370
    20   6 C        3.761    -0.106    22.574     6.773
    21   6 C        3.761    -0.106    22.576     6.773
    22   6 C        3.761    -0.109    22.628     6.781
    23   6 C        2.927    -0.034    28.850     8.809
    24   6 C        2.920    -0.045    29.117     8.849
    25   6 C        3.080     0.047    26.861     8.497
    26   6 C        2.915    -0.061    29.514     8.909
    27   1 H        0.925     0.050     2.325     2.384
    28   1 H        0.925     0.044     2.399     2.422
    29   1 H        0.925     0.049     2.327     2.385
    30   1 H        0.926     0.032     2.562     2.503
    31   1 H        0.926     0.029     2.595     2.519
    32   1 H        0.926     0.044     2.401     2.423
    33   1 H        0.925     0.048     2.345     2.395
    34   1 H        0.924     0.056     2.241     2.341
    35   1 H        0.924     0.056     2.248     2.345
    36   1 H        0.926     0.043     2.408     2.426
    37   1 H        0.926     0.039     2.463     2.454
    38   1 H        0.926     0.047     2.354     2.400
    39   1 H        0.925     0.038     2.477     2.461
    40   1 H        0.925     0.041     2.437     2.441
    41   1 H        0.925     0.034     2.530     2.487
    42   1 H        0.925     0.041     2.439     2.442
    43   1 H        0.925     0.034     2.532     2.488
    44   1 H        0.925     0.038     2.476     2.461
    45   1 H        0.925     0.039     2.456     2.451
    46   1 H        0.925     0.037     2.485     2.465
    47   1 H        0.925     0.037     2.484     2.464
    48   1 H        0.926     0.040     2.449     2.447
    49   1 H        0.926     0.037     2.486     2.465
    50   1 H        0.926     0.033     2.540     2.492

molecular dipole:
                 x           y           z       tot (Debye)
 q only:        2.259       1.127      -0.039
   full:        2.491       1.429      -0.060       7.301

 projected vibrational frequencies (cm⁻¹)
eigval :       -0.00    -0.00    -0.00     0.00     0.00     0.00
eigval :       25.23    29.33    34.02    58.03    67.58    76.20
eigval :       93.08    96.05   106.91   134.36   146.09   169.51
eigval :      176.50   177.60   201.06   217.47   227.14   242.10
eigval :      252.51   263.52   284.88   318.66   320.43   328.50
eigval :      329.77   362.40   369.70   382.25   391.48   404.80
eigval :      414.66   435.11   440.25   455.76   462.74   513.11
eigval :      535.45   561.99   566.58   577.55   580.13   601.82
eigval :      623.74   665.51   668.59   694.79   704.45   729.00
eigval :      761.88   769.37   813.19   822.23   842.21   863.68
eigval :      869.95   872.56   877.49   901.98   911.91   918.68
eigval :      930.38   959.76   962.58   964.43   969.59   983.99
eigval :     1006.92  1017.48  1019.14  1029.48  1032.04  1034.76
eigval :     1035.64  1040.38  1133.54  1141.63  1143.93  1160.56
eigval :     1185.63  1192.62  1208.85  1225.46  1225.64  1232.09
eigval :     1250.22  1274.24  1278.81  1290.38  1303.46  1316.48
eigval :     1352.02  1356.89  1369.03  1396.72  1402.40  1403.08
eigval :     1403.91  1407.46  1427.34  1428.28  1440.04  1454.00
eigval :     1471.42  1474.88  1476.22  1485.99  1489.09  1489.55
eigval :     1491.03  1500.07  1500.77  1504.53  1511.73  1516.72
eigval :     1553.18  1569.54  1582.10  1596.44  1600.57  1613.22
eigval :     2994.88  3002.02  3010.80  3015.49  3021.99  3022.62
eigval :     3025.78  3026.87  3029.79  3032.24  3037.43  3043.79
eigval :     3045.65  3048.19  3048.98  3073.45  3078.35  3080.55
eigval :     3082.65  3086.08  3089.97  3092.75  3095.47  3116.18

   temp. (K)  partition function   enthalpy   heat capacity  entropy
                                   cal/mol     cal/K/mol   cal/K/mol   J/K/mol
 298.15  VIB  0.428E+10            13909.723     87.725     85.035
         ROT  0.243E+08              888.752      2.981     36.773
         INT  0.104E+18            14798.475     90.706    121.807
         TR   0.793E+28             1481.254      4.968     43.877
         TOT                       16279.7288    95.6743   165.6848   693.2252

       T/K    H(0)-H(T)+PV         H(T)/Eh          T*S/Eh         G(T)/Eh
   ------------------------------------------------------------------------
    298.15    0.259434E-01    0.430919E+00    0.787222E-01    0.352197E+00
   ------------------------------------------------------------------------

         :::::::::::::::::::::::::::::::::::::::::::::::::::::
         ::                  THERMODYNAMIC                  ::
         :::::::::::::::::::::::::::::::::::::::::::::::::::::
         :: total free energy         -70.383034323177 Eh   ::
         ::.................................................::
         :: total energy              -70.735231379992 Eh   ::
         :: zero point energy           0.404975851364 Eh   ::
         :: G(RRHO) w/o ZPVE           -0.052778794548 Eh   ::
         :: G(RRHO) contrib.            0.352197056816 Eh   ::
         :::::::::::::::::::::::::::::::::::::::::::::::::::::

           -------------------------------------------------
          | TOTAL ENERGY              -70.735231379992 Eh   |
          | TOTAL ENTHALPY            -70.304312129355 Eh   |
          | TOTAL FREE ENERGY         -70.383034323177 Eh   |
          | GRADIENT NORM               0.000055750109 Eh/α |
          | HOMO-LUMO GAP               3.104385575584 eV   |
           -------------------------------------------------

 * finished run on 2025/07/19 at 19:09:45.285
