   * xtb version 6.7.1 (edcfbbe) compiled by 'albert@albert-system' on 2024-07-22

   ID    Z sym.   atoms
    1    6 C      1-5, 7-17, 19-25
    2    7 N      6, 18
    3    1 H      26-41

          program call               : xtb data2507/gas/ImPy-1/ImPy-1_gas_S0_finalOpt.xtbopt.xyz --gfn 2 --spinpol --tblite --uhf 2 --ohess vtight --parallel 40 --molden --ceasefiles --namespace data2507/gas/ImPy-1/ImPy-1_gas_T1_preOpt
 * total energy  :   -63.1760111 Eh     change       -0.2200835E-09 Eh
 * total energy  :   -63.1821721 Eh     change       -0.6161000E-02 Eh
 * total energy  :   -63.1841528 Eh     change       -0.1980609E-02 Eh
 * total energy  :   -63.1844167 Eh     change       -0.2639753E-03 Eh
 * total energy  :   -63.1846096 Eh     change       -0.1928676E-03 Eh
 * total energy  :   -63.1846894 Eh     change       -0.7977312E-04 Eh
 * total energy  :   -63.1847790 Eh     change       -0.8959196E-04 Eh
 * total energy  :   -63.1848626 Eh     change       -0.8363341E-04 Eh
 * total energy  :   -63.1849350 Eh     change       -0.7236768E-04 Eh
 * total energy  :   -63.1850087 Eh     change       -0.7372652E-04 Eh
 * total energy  :   -63.1853145 Eh     change       -0.2039138E-05 Eh
 * total energy  :   -63.1853166 Eh     change       -0.2071015E-05 Eh
 * total energy  :   -63.1853183 Eh     change       -0.1694945E-05 Eh
 * total energy  :   -63.1853203 Eh     change       -0.1977639E-05 Eh
 * total energy  :   -63.1853217 Eh     change       -0.1477388E-05 Eh
 * total energy  :   -63.1853227 Eh     change       -0.9528333E-06 Eh
 * total energy  :   -63.1853236 Eh     change       -0.9507916E-06 Eh
 * total energy  :   -63.1853239 Eh     change       -0.2800891E-06 Eh
 * total energy  :   -63.1853239 Eh     change       -0.2402307E-07 Eh
   *** GEOMETRY OPTIMIZATION CONVERGED AFTER 31 ITERATIONS ***

 final structure:
================
41
 xtb: 6.7.1 (edcfbbe)
C           -5.82798509546848        2.17555831228708       -0.27963986119536
C           -4.60366125325508        2.81718945703021       -0.43977508022158
C           -3.43067906076438        2.10975108545821       -0.34034709798007
C           -3.44066820064471        0.71866689098519       -0.08839166025683
C           -2.19534938596530        0.04262337280427       -0.01344537251072
N           -1.02700109921980        0.76135931470037        0.04979072275860
C           -0.03811212063766       -0.09706522796021        0.14203321410559
C            1.34575305170268        0.30482406294492        0.18418008980219
C            1.64717971902392        1.55602112276920        0.77382583483493
C            2.93255628242063        2.00188068656676        0.84225898250356
C            3.99858748373531        1.23853001538949        0.31053063979725
C            5.33544829553839        1.66993670429935        0.37015718407382
C            6.34147871027690        0.91335391463005       -0.17465175651371
C            6.04976725347749       -0.30400172410977       -0.80352298369078
C            4.75858098261961       -0.75214636561238       -0.87788817357470
C            3.70123000340998        0.00038357267802       -0.32117002800652
C            2.36871125162869       -0.44290299547113       -0.37501883022404
N           -0.49980354718867       -1.40316857758370        0.16760561998095
C            0.17289414916135       -2.58238256407008        0.38250887931846
C           -0.54014390031991       -3.77995145563649        0.31121547858047
C           -1.88624770820697       -3.78035229149855        0.05714521674476
C           -2.58557091379502       -2.53510424620517       -0.07146094486406
C           -1.87445370230896       -1.36234661455783        0.02806194965540
C           -4.68950501304696        0.09063697608715        0.09290616624492
C           -5.85634501014998        0.81312121691616       -0.00333834272034
H           -6.74965315064127        2.73218887684097       -0.35886669930309
H           -4.57763556330082        3.87806102290025       -0.64335738627804
H           -2.47322862305309        2.58990937963935       -0.46407388857538
H            0.82797839881475        2.13304138506539        1.17269275575927
H            3.15842904173732        2.95143511704422        1.30571820744851
H            5.55694880806909        2.61142485218366        0.85224568933173
H            7.36557760559253        1.25299017544961       -0.12432067050450
H            6.85295027613199       -0.88677207876240       -1.23044222394060
H            4.52960387950506       -1.69147893633577       -1.36119097348644
H            2.15520198658586       -1.35554293870693       -0.91271904828890
H            1.20921829969233       -2.52423733803853        0.66005321850867
H           -0.00210858929873       -4.70284028461360        0.46035085032220
H           -2.43966596022866       -4.70107728645242       -0.02209035423833
H           -3.64305242999693       -2.53839676049353       -0.25797916736245
H           -4.73301785733347       -0.95499877178422        0.34782600071150
H           -6.80544519266320        0.31728004564119        0.14332726540817

 projected vibrational frequencies (cm⁻¹)
eigval :       -0.00    -0.00    -0.00     0.00     0.00     0.00
eigval :       25.29    32.99    40.55    44.83    69.54   104.28
eigval :      130.08   164.89   167.69   179.88   212.63   223.78
eigval :      256.45   298.56   323.04   349.61   358.98   364.83
eigval :      369.52   402.20   443.52   447.39   470.26   493.13
eigval :      531.37   537.05   552.02   571.67   584.98   588.97
eigval :      608.52   622.58   630.09   640.03   656.49   665.70
eigval :      695.09   714.27   721.17   743.28   753.95   770.16
eigval :      777.08   794.36   833.53   838.82   841.50   865.61
eigval :      875.15   878.61   879.03   889.89   907.99   917.18
eigval :      917.55   922.07   923.94   924.09   968.72   998.44
eigval :     1038.99  1070.95  1075.87  1081.67  1103.81  1114.73
eigval :     1133.95  1144.24  1155.62  1162.87  1176.99  1178.29
eigval :     1181.45  1188.22  1212.44  1222.24  1229.23  1259.05
eigval :     1271.27  1275.67  1295.98  1317.01  1326.86  1334.97
eigval :     1348.96  1367.64  1381.33  1390.25  1412.42  1418.40
eigval :     1427.01  1437.45  1446.91  1487.02  1492.36  1512.62
eigval :     1523.32  1546.49  1563.64  1568.47  1593.00  3068.20
eigval :     3071.29  3071.47  3075.01  3075.58  3077.06  3081.10
eigval :     3090.53  3091.32  3097.00  3108.53  3112.96  3113.14
eigval :     3119.87  3138.90  3148.93

   temp. (K)  partition function   enthalpy   heat capacity  entropy
                                   cal/mol     cal/K/mol   cal/K/mol   J/K/mol
 298.15  VIB  0.140E+08            10474.571     70.907     62.478
         ROT  0.123E+08              888.752      2.981     35.420
         INT  0.172E+15            11363.323     73.888     97.898
         TR   0.555E+28             1481.254      4.968     43.169
         TOT                       12844.5769    78.8560   141.0669   590.2241

       T/K    H(0)-H(T)+PV         H(T)/Eh          T*S/Eh         G(T)/Eh
   ------------------------------------------------------------------------
    298.15    0.204691E-01    0.331497E+00    0.670255E-01    0.264472E+00
   ------------------------------------------------------------------------

         :::::::::::::::::::::::::::::::::::::::::::::::::::::
         ::                  THERMODYNAMIC                  ::
         :::::::::::::::::::::::::::::::::::::::::::::::::::::
         :: total free energy         -62.920852399769 Eh   ::
         ::.................................................::
         :: total energy              -63.185323926045 Eh   ::
         :: zero point energy           0.311027847933 Eh   ::
         :: G(RRHO) w/o ZPVE           -0.046556321656 Eh   ::
         :: G(RRHO) contrib.            0.264471526277 Eh   ::
         :::::::::::::::::::::::::::::::::::::::::::::::::::::

           -------------------------------------------------
          | TOTAL ENERGY              -63.185323926045 Eh   |
          | TOTAL ENTHALPY            -62.853826941928 Eh   |
          | TOTAL FREE ENERGY         -62.920852399769 Eh   |
          | GRADIENT NORM               0.000127583832 Eh/α |
           -------------------------------------------------

 * finished run on 2025/09/04 at 13:07:13.827
