   * xtb version 6.7.1 (edcfbbe) compiled by 'albert@albert-system' on 2024-07-22

   ID    Z sym.   atoms
    1    6 C      1-5, 7-17, 19-25
    2    7 N      6, 18
    3    1 H      26-41

          program call               : xtb data2507/gas/ImPy-1/ImPy-1_gas_S0_crest.xyz --gfn 2 --ohess vtight --parallel 40 --molden --ceasefiles --namespace data2507/gas/ImPy-1/ImPy-1_gas_S0_finalOpt
          :  Hamiltonian                  GFN2-xTB          :
 * total energy  :   -63.2648161 Eh     change       -0.3601400E-08 Eh
 * total energy  :   -63.2648167 Eh     change       -0.6832566E-06 Eh
 * total energy  :   -63.2648172 Eh     change       -0.5016825E-06 Eh
 * total energy  :   -63.2648174 Eh     change       -0.2002425E-06 Eh
 * total energy  :   -63.2648175 Eh     change       -0.5272202E-07 Eh
   *** GEOMETRY OPTIMIZATION CONVERGED AFTER 5 ITERATIONS ***

 final structure:
================
41
 xtb: 6.7.1 (edcfbbe)
C           -5.85150966014678        2.12423511631085       -0.30449669560914
C           -4.67451490917613        2.69914423238163       -0.75723561833744
C           -3.48120847152312        2.01347777981053       -0.65084697283911
C           -3.44461425838204        0.73570639707790       -0.09091710307890
C           -2.16823943662244        0.04924631948805        0.00616842312635
N           -1.01326886820414        0.74307380222426        0.07036415180899
C           -0.01635101262805       -0.11696565355414        0.14243590705204
C            1.37615076150467        0.28763875634083        0.20425163042936
C            1.67927189234794        1.48990834611285        0.88636014977359
C            2.96321691235218        1.93663872532145        0.97374146238166
C            4.02489405138669        1.21648596355308        0.38286807487196
C            5.36414570323488        1.64631806260335        0.46350859639541
C            6.36487907591955        0.93338844494928       -0.13667308220425
C            6.06993687422978       -0.24103385281611       -0.84621430663471
C            4.78095948088044       -0.68502452683561       -0.94134531319381
C            3.72629318676941        0.02539001240929       -0.32947548819933
C            2.39032835212755       -0.41281646651030       -0.40909848512919
N           -0.48671287905757       -1.40146507242639        0.13807125448102
C            0.13910526754072       -2.60155688206293        0.29592577774881
C           -0.57909271582103       -3.74959976240441        0.24942538136009
C           -1.97947708677485       -3.71198644787554        0.03250305421902
C           -2.61889292212168       -2.51198029900744       -0.05986076461448
C           -1.87994115741510       -1.32045115383505        0.03597390329432
C           -4.62962197364013        0.17490067317229        0.38270909753067
C           -5.82220889229276        0.86495948269108        0.27098474262916
H           -6.78632585893883        2.65864478990789       -0.39083955244870
H           -4.69067244625293        3.68643223199309       -1.19607490416116
H           -2.55645466179234        2.44908253976781       -0.99619168149063
H            0.86144509675398        2.03660781581566        1.32895895779529
H            3.18933192424142        2.85353871355396        1.49925560843020
H            5.58553305892110        2.55294411695795        1.00874171931749
H            7.38944712269541        1.26933594078436       -0.07132112559919
H            6.87191699693221       -0.79105407234177       -1.31679845527118
H            4.55042679195739       -1.58962771950713       -1.48690504916029
H            2.17946563469667       -1.29316877152006       -1.00025346222225
H            1.20175837728562       -2.57779543487257        0.47686812857643
H           -0.08064563764996       -4.69699407566517        0.37502694369478
H           -2.52733530209496       -4.63762145564621       -0.04291301518090
H           -3.68349491171680       -2.45354940749210       -0.21628554208505
H           -4.61448309737741       -0.78938073846088        0.86792795487704
H           -6.73467278124858        0.42037755640636        0.64241922966604

          :  Hamiltonian                  GFN2-xTB          :
         :: gradient norm              0.000055049779 Eh/a0 ::
         :: HOMO-LUMO gap              2.370493887602 eV    ::
         :: SCC energy               -64.450489596485 Eh    ::
         :: -> dispersion             -0.049959053894 Eh    ::
         :: repulsion energy           1.185672103709 Eh    ::

    * Orbital Energies and Occupations

         #    Occupation            Energy/Eh            Energy/eV
      -------------------------------------------------------------
         1        2.0000           -0.6906594             -18.7938
       ...           ...                  ...                  ...
        47        2.0000           -0.4401424             -11.9769
        48        2.0000           -0.4279636             -11.6455
        49        2.0000           -0.4204352             -11.4406
        50        2.0000           -0.4192913             -11.4095
        51        2.0000           -0.4161530             -11.3241
        52        2.0000           -0.4152378             -11.2992
        53        2.0000           -0.4128436             -11.2340
        54        2.0000           -0.4067309             -11.0677
        55        2.0000           -0.3959711             -10.7749
        56        2.0000           -0.3947667             -10.7421
        57        2.0000           -0.3809737             -10.3668
        58        2.0000           -0.3756551             -10.2221
        59        2.0000           -0.3513070              -9.5596 (HOMO)
        60                         -0.2641929              -7.1891 (LUMO)
        61                         -0.2613124              -7.1107
        62                         -0.2405124              -6.5447
        63                         -0.2287206              -6.2238
        64                         -0.2130977              -5.7987
        65                         -0.2041089              -5.5541
        66                         -0.1871767              -5.0933
        67                         -0.1600320              -4.3547
        68                         -0.1273850              -3.4663
        69                         -0.1100105              -2.9935
        70                         -0.0670116              -1.8235
       ...                                ...                  ...
       116                          0.7149847              19.4557
      -------------------------------------------------------------
                  HL-Gap            0.0871141 Eh            2.3705 eV

     #   Z          covCN         q      C6AA      α(0)
     1   6 C        2.920    -0.032    28.810     8.802
     2   6 C        2.918    -0.029    28.730     8.790
     3   6 C        2.928    -0.030    28.750     8.793
     4   6 C        2.973     0.010    27.786     8.646
     5   6 C        3.132     0.047    26.737     8.465
     6   7 N        1.916    -0.278    28.052     7.853
     7   6 C        3.125     0.103    25.553     8.278
     8   6 C        2.969     0.002    27.975     8.676
     9   6 C        2.923    -0.030    28.756     8.794
    10   6 C        2.916    -0.034    28.847     8.807
    11   6 C        2.987     0.012    27.731     8.638
    12   6 C        2.918    -0.034    28.855     8.809
    13   6 C        2.916    -0.030    28.759     8.794
    14   6 C        2.916    -0.030    28.748     8.792
    15   6 C        2.919    -0.036    28.901     8.816
    16   6 C        2.986     0.012    27.735     8.639
    17   6 C        2.922    -0.046    29.143     8.853
    18   7 N        2.844     0.005    21.162     6.832
    19   6 C        2.851     0.011    27.766     8.636
    20   6 C        2.914    -0.041    29.007     8.832
    21   6 C        2.920    -0.034    28.854     8.809
    22   6 C        2.908    -0.034    28.844     8.806
    23   6 C        3.073     0.024    27.390     8.581
    24   6 C        2.923    -0.040    28.984     8.829
    25   6 C        2.919    -0.031    28.768     8.796
    26   1 H        0.926     0.027     2.631     2.536
    27   1 H        0.926     0.029     2.599     2.521
    28   1 H        0.926     0.049     2.333     2.389
    29   1 H        0.926     0.051     2.308     2.376
    30   1 H        0.926     0.035     2.513     2.479
    31   1 H        0.926     0.032     2.563     2.503
    32   1 H        0.926     0.030     2.588     2.516
    33   1 H        0.926     0.029     2.595     2.519
    34   1 H        0.925     0.028     2.614     2.528
    35   1 H        0.926     0.027     2.627     2.535
    36   1 H        0.926     0.050     2.321     2.382
    37   1 H        0.926     0.042     2.424     2.434
    38   1 H        0.926     0.036     2.498     2.472
    39   1 H        0.926     0.046     2.370     2.408
    40   1 H        0.926     0.025     2.653     2.547
    41   1 H        0.926     0.026     2.644     2.543

molecular dipole:
                 x           y           z       tot (Debye)
 q only:        0.331      -0.718       0.078
   full:        0.394      -1.193       0.081       3.201

 projected vibrational frequencies (cm⁻¹)
eigval :       -0.00    -0.00    -0.00     0.00     0.00     0.00
eigval :       27.41    31.88    44.16    49.52    76.37    93.90
eigval :      134.61   169.30   182.81   187.74   211.30   238.34
eigval :      257.00   305.54   346.70   357.00   368.84   372.59
eigval :      395.45   417.33   450.01   469.87   490.77   497.01
eigval :      549.38   558.69   565.78   575.58   590.20   597.31
eigval :      622.23   634.28   663.26   678.38   691.70   718.58
eigval :      723.69   757.48   761.78   766.56   785.35   797.56
eigval :      836.86   842.71   853.98   874.96   876.31   884.69
eigval :      892.88   898.07   902.92   911.15   914.64   923.56
eigval :      928.21   928.86   930.96   936.10   986.00  1023.49
eigval :     1064.54  1080.23  1082.90  1118.51  1121.65  1140.98
eigval :     1155.24  1168.97  1173.88  1180.07  1181.90  1187.91
eigval :     1206.78  1225.80  1229.95  1245.64  1263.65  1274.39
eigval :     1289.32  1322.76  1327.14  1330.25  1343.60  1369.44
eigval :     1392.25  1400.97  1424.33  1428.44  1433.51  1441.71
eigval :     1472.97  1496.41  1501.09  1512.29  1541.66  1564.48
eigval :     1580.18  1597.59  1604.31  1610.17  1614.69  3064.49
eigval :     3068.03  3069.09  3070.20  3073.22  3074.71  3079.54
eigval :     3084.90  3089.77  3091.77  3099.77  3103.88  3104.80
eigval :     3106.50  3114.84  3118.62

   temp. (K)  partition function   enthalpy   heat capacity  entropy
                                   cal/mol     cal/K/mol   cal/K/mol   J/K/mol
 298.15  VIB  0.753E+07            10117.433     68.769     60.504
         ROT  0.123E+08              888.752      2.981     35.419
         INT  0.924E+14            11006.185     71.750     95.923
         TR   0.555E+28             1481.254      4.968     43.169
         TOT                       12487.4391    76.7180   139.0921   581.9613

       T/K    H(0)-H(T)+PV         H(T)/Eh          T*S/Eh         G(T)/Eh
   ------------------------------------------------------------------------
    298.15    0.199000E-01    0.335828E+00    0.660871E-01    0.269741E+00
   ------------------------------------------------------------------------

         :::::::::::::::::::::::::::::::::::::::::::::::::::::
         ::                  THERMODYNAMIC                  ::
         :::::::::::::::::::::::::::::::::::::::::::::::::::::
         :: total free energy         -62.995076825890 Eh   ::
         ::.................................................::
         :: total energy              -63.264817492776 Eh   ::
         :: zero point energy           0.315927809849 Eh   ::
         :: G(RRHO) w/o ZPVE           -0.046187142963 Eh   ::
         :: G(RRHO) contrib.            0.269740666885 Eh   ::
         :::::::::::::::::::::::::::::::::::::::::::::::::::::

           -------------------------------------------------
          | TOTAL ENERGY              -63.264817492776 Eh   |
          | TOTAL ENTHALPY            -62.928989682095 Eh   |
          | TOTAL FREE ENERGY         -62.995076825890 Eh   |
          | GRADIENT NORM               0.000055046897 Eh/α |
          | HOMO-LUMO GAP               2.370494713539 eV   |
           -------------------------------------------------

 * finished run on 2025/09/04 at 13:07:10.990
