   * xtb version 6.7.1 (edcfbbe) compiled by 'albert@albert-system' on 2024-07-22

   ID    Z sym.   atoms
    1    6 C      1-5, 7-17, 19-25
    2    7 N      6, 18
    3    1 H      26-41

          program call               : xtb data2507/gas/ImPy-1/ImPy-1_gas_T1_crest.xyz --gfn 2 --spinpol --tblite --uhf 2 --ohess vtight --parallel 40 --molden --ceasefiles --namespace data2507/gas/ImPy-1/ImPy-1_gas_T1_finalOpt
 * total energy  :   -63.1851311 Eh     change        0.1422777E-08 Eh
 * total energy  :   -63.1852284 Eh     change       -0.9730806E-04 Eh
 * total energy  :   -63.1852911 Eh     change       -0.6275064E-04 Eh
 * total energy  :   -63.1852974 Eh     change       -0.6307785E-05 Eh
 * total energy  :   -63.1853016 Eh     change       -0.4222404E-05 Eh
 * total energy  :   -63.1853042 Eh     change       -0.2536171E-05 Eh
 * total energy  :   -63.1853075 Eh     change       -0.3359033E-05 Eh
 * total energy  :   -63.1853110 Eh     change       -0.3415881E-05 Eh
 * total energy  :   -63.1853136 Eh     change       -0.2660810E-05 Eh
 * total energy  :   -63.1853160 Eh     change       -0.2337428E-05 Eh
 * total energy  :   -63.1853233 Eh     change       -0.8787632E-06 Eh
 * total energy  :   -63.1853230 Eh     change        0.3315616E-06 Eh
 * total energy  :   -63.1853233 Eh     change       -0.3042225E-06 Eh
 * total energy  :   -63.1853237 Eh     change       -0.4325225E-06 Eh
 * total energy  :   -63.1853239 Eh     change       -0.2217565E-06 Eh
 * total energy  :   -63.1853239 Eh     change        0.1250397E-07 Eh
 * total energy  :   -63.1853240 Eh     change       -0.1339127E-06 Eh
 * total energy  :   -63.1853240 Eh     change        0.9891522E-08 Eh
 * total energy  :   -63.1853240 Eh     change       -0.2439627E-08 Eh
   *** GEOMETRY OPTIMIZATION CONVERGED AFTER 23 ITERATIONS ***

 final structure:
================
41
 xtb: 6.7.1 (edcfbbe)
C           -5.83417002845196        2.15254012759243        0.29484414301857
C           -4.61235848664757        2.79878456415660        0.45561089153089
C           -3.43658037985934        2.09637469545192        0.35371722162170
C           -3.44104763638201        0.70587731085470        0.09826282683244
C           -2.19298017457745        0.03546518693923        0.01909314963577
N           -1.02788085562631        0.75962435807219       -0.04452749625383
C           -0.03567901104282       -0.09409528372520       -0.14338554341839
C            1.34658790367687        0.31320238951134       -0.18899889739048
C            1.64201092789743        1.56573518139168       -0.77868182845731
C            2.92581896604449        2.01548175529685       -0.85124397293692
C            3.99588300909856        1.25517084277886       -0.32339488719165
C            5.33129018402651        1.69048586020181       -0.38768762566750
C            6.34140170441566        0.93693359951035        0.15364853299728
C            6.05541948526775       -0.28110020136195        0.78386336976293
C            4.76588328815991       -0.73317168080480        0.86249525042466
C            3.70444648954401        0.01598707322155        0.30905545297250
C            2.37352776907571       -0.43164651377381        0.36655129594411
N           -0.49166749026958       -1.40205943489068       -0.17276480704476
C            0.18567913000326       -2.57711319203599       -0.39581597986331
C           -0.52193199249121       -3.77812085273963       -0.32853688317048
C           -1.86708320415204       -3.78578433214901       -0.06968369286031
C           -2.57154602070820       -2.54429799026511        0.06778044491822
C           -1.86602053776852       -1.36795132450269       -0.02886754138339
C           -4.68749285867718        0.07301604828730       -0.08283386443964
C           -5.85719121781763        0.79051952693479        0.01593437941822
H           -6.75803928592603        2.70533800306999        0.37517702021394
H           -4.59052107598473        3.85930202586039        0.66129330320535
H           -2.48099457337144        2.58004467933952        0.47798643521405
H            0.81971485260719        2.14061504284849       -1.17430024315821
H            3.14725468913674        2.96601108041289       -1.31490836533971
H            5.54839415900315        2.63254763487115       -0.87067531145223
H            7.36431182625718        1.27961843043656        0.09966940383231
H            6.86172546166768       -0.86135152201683        1.20834332322681
H            4.54136516010255       -1.67313797047323        1.34669261738534
H            2.16431086440994       -1.34549494225894        0.90395361368319
H            1.22096204692977       -2.51276681940726       -0.67588738949832
H            0.01949755656146       -4.69786330265241       -0.48473871933675
H           -2.41611853364035       -4.70937866331709        0.00655429310317
H           -3.62832144843058       -2.55316415905471        0.25805626436220
H           -4.72690725117823       -0.97230240103411       -0.33973037844736
H           -6.80436287108253        0.29128829342245       -0.13156124819293

 projected vibrational frequencies (cm⁻¹)
eigval :       -0.00    -0.00    -0.00    -0.00     0.00     0.00
eigval :       25.34    33.05    40.39    44.92    69.70   104.18
eigval :      130.11   164.83   167.75   179.86   212.58   223.78
eigval :      256.50   298.49   323.02   349.50   359.05   364.85
eigval :      369.49   402.38   443.59   447.41   470.22   492.97
eigval :      531.44   537.11   552.11   571.57   584.96   588.92
eigval :      608.62   622.64   630.32   640.12   656.51   665.84
eigval :      695.17   714.34   721.09   743.32   754.09   770.41
eigval :      777.08   794.37   833.67   839.09   841.49   865.77
eigval :      875.28   878.80   879.13   889.93   908.12   917.25
eigval :      917.66   922.19   924.01   924.14   968.54   998.81
eigval :     1039.10  1071.28  1076.13  1081.92  1103.94  1115.03
eigval :     1133.92  1144.67  1155.93  1162.93  1176.87  1177.47
eigval :     1181.46  1188.26  1212.43  1222.10  1229.20  1259.14
eigval :     1271.25  1275.58  1296.32  1317.16  1327.13  1334.92
eigval :     1349.14  1367.69  1381.44  1390.21  1412.34  1418.13
eigval :     1426.80  1437.37  1447.10  1487.07  1492.34  1512.93
eigval :     1523.11  1546.57  1563.73  1568.57  1593.12  3068.07
eigval :     3071.36  3071.52  3075.40  3075.46  3076.94  3081.07
eigval :     3090.45  3091.45  3096.92  3108.31  3113.08  3113.38
eigval :     3119.87  3138.77  3149.00

   temp. (K)  partition function   enthalpy   heat capacity  entropy
                                   cal/mol     cal/K/mol   cal/K/mol   J/K/mol
 298.15  VIB  0.139E+08            10473.805     70.902     62.472
         ROT  0.123E+08              888.752      2.981     35.420
         INT  0.171E+15            11362.558     73.883     97.892
         TR   0.555E+28             1481.254      4.968     43.169
         TOT                       12843.8115    78.8514   141.0614   590.2007

       T/K    H(0)-H(T)+PV         H(T)/Eh          T*S/Eh         G(T)/Eh
   ------------------------------------------------------------------------
    298.15    0.204679E-01    0.331508E+00    0.670228E-01    0.264485E+00
   ------------------------------------------------------------------------

         :::::::::::::::::::::::::::::::::::::::::::::::::::::
         ::                  THERMODYNAMIC                  ::
         :::::::::::::::::::::::::::::::::::::::::::::::::::::
         :: total free energy         -62.920839029698 Eh   ::
         ::.................................................::
         :: total energy              -63.185324050117 Eh   ::
         :: zero point energy           0.311039909629 Eh   ::
         :: G(RRHO) w/o ZPVE           -0.046554889210 Eh   ::
         :: G(RRHO) contrib.            0.264485020418 Eh   ::
         :::::::::::::::::::::::::::::::::::::::::::::::::::::

           -------------------------------------------------
          | TOTAL ENERGY              -63.185324050117 Eh   |
          | TOTAL ENTHALPY            -62.853816224081 Eh   |
          | TOTAL FREE ENERGY         -62.920839029698 Eh   |
          | GRADIENT NORM               0.000076924217 Eh/α |
           -------------------------------------------------

 * finished run on 2025/09/04 at 13:08:47.894
