   * xtb version 6.7.1 (edcfbbe) compiled by 'albert@albert-system' on 2024-07-22

   ID    Z sym.   atoms
    1    6 C      1-5, 7-17, 19-25
    2    7 N      6, 18
    3    1 H      26-41

          program call               : xtb data2507/gas/ImPy-1/ImPy-1.xyz --gfn 2 --ohess vtight --parallel 40 --molden --ceasefiles --namespace data2507/gas/ImPy-1/ImPy-1_gas_S0_preOpt
          :  Hamiltonian                  GFN2-xTB          :
 * total energy  :   -63.2540636 Eh     change       -0.7470263E-08 Eh
 * total energy  :   -63.2611081 Eh     change       -0.7044509E-02 Eh
 * total energy  :   -63.2627694 Eh     change       -0.1661307E-02 Eh
 * total energy  :   -63.2630405 Eh     change       -0.2711021E-03 Eh
 * total energy  :   -63.2632910 Eh     change       -0.2504831E-03 Eh
 * total energy  :   -63.2633997 Eh     change       -0.1087285E-03 Eh
 * total energy  :   -63.2635365 Eh     change       -0.1368227E-03 Eh
 * total energy  :   -63.2636850 Eh     change       -0.1484905E-03 Eh
 * total energy  :   -63.2638085 Eh     change       -0.1234985E-03 Eh
 * total energy  :   -63.2639209 Eh     change       -0.1123317E-03 Eh
 * total energy  :   -63.2643406 Eh     change       -0.1100130E-05 Eh
 * total energy  :   -63.2643415 Eh     change       -0.9353829E-06 Eh
 * total energy  :   -63.2643421 Eh     change       -0.5120836E-06 Eh
 * total energy  :   -63.2643422 Eh     change       -0.1491093E-06 Eh
 * total energy  :   -63.2643420 Eh     change        0.2166543E-06 Eh
 * total energy  :   -63.2643423 Eh     change       -0.3494829E-06 Eh
 * total energy  :   -63.2643425 Eh     change       -0.1103162E-06 Eh
 * total energy  :   -63.2643425 Eh     change        0.2492726E-09 Eh
 * total energy  :   -63.2643425 Eh     change       -0.6974111E-07 Eh
   *** GEOMETRY OPTIMIZATION CONVERGED AFTER 39 ITERATIONS ***

 final structure:
================
41
 xtb: 6.7.1 (edcfbbe)
C           -5.38447105231118        2.68724144462461        0.29557821183927
C           -4.14280099160044        3.14308423458788       -0.11821713194132
C           -3.07425454221036        2.27277523147492       -0.19565924432396
C           -3.22970336557778        0.92629926605883        0.13651256667860
C           -2.08145098361304        0.04254824904852        0.03913642386938
N           -0.82559364557512        0.52169687968245        0.16141141300147
C            0.01321235539726       -0.49018674690257        0.06587548049313
C            1.45290453556796       -0.35425652259679        0.20267555026051
C            2.22506700715542       -1.31873181437446        0.88977241765112
C            3.57475345913844       -1.16398067944704        1.01667954082292
C            4.23393408890472       -0.04000920622493        0.47553624527847
C            5.62764727103623        0.13928458853347        0.58381024514384
C            6.23056099959898        1.25009702968231        0.06296858656027
C            5.46631924781518        2.23215879927387       -0.58757181953682
C            4.11311076837625        2.08759854744671       -0.70845691624495
C            3.45976674276300        0.95121489008595       -0.18442023887782
C            2.07090124324273        0.76787863723620       -0.30273875296106
N           -0.66189293216626       -1.65835433770655       -0.15854343710701
C           -0.22536798264958       -2.91757046524800       -0.44184815998986
C           -1.12076360234038       -3.90066741555224       -0.70256193607661
C           -2.51031790664290       -3.62178104482783       -0.71368707307737
C           -2.95048405091265       -2.35457996970964       -0.47209090065750
C           -2.02408652590776       -1.33889488585591       -0.18112251424313
C           -4.47633493518938        0.48214536161813        0.57451658629655
C           -5.54361491220961        1.35750982821194        0.64806615359388
H           -6.22216427777704        3.36687844979651        0.35280338156825
H           -4.01068511772998        4.18259955193857       -0.38196449571362
H           -2.10096367780768        2.61439830640028       -0.51172429573205
H            1.73524613438685       -2.16258681434769        1.35444316459005
H            4.15958186014843       -1.90166133712804        1.54836554973535
H            6.21126676265016       -0.61847811554881        1.08761333546784
H            7.29936229983964        1.38156403950061        0.14897141042660
H            5.96015510338719        3.10385605956280       -0.99177650360782
H            3.51999792024495        2.84013019617145       -1.20780528300009
H            1.47388028191189        1.51684601413016       -0.80037783110745
H            0.84182177132815       -3.06876581422942       -0.47457664550853
H           -0.77145814255358       -4.89588637638454       -0.92463656642347
H           -3.20570623252849       -4.41434767392655       -0.93940153445644
H           -3.99763847046827       -2.10577977307527       -0.52373837960775
H           -4.60448828488646       -0.54283634674431        0.88837576903430
H           -6.50524922023878        1.00155173477006        0.98980962788342

          :  Hamiltonian                  GFN2-xTB          :
         :: gradient norm              0.000046805805 Eh/a0 ::
         :: HOMO-LUMO gap              2.371158736455 eV    ::
         :: SCC energy               -64.450067401658 Eh    ::
         :: -> dispersion             -0.049934076889 Eh    ::
         :: repulsion energy           1.185724880838 Eh    ::

    * Orbital Energies and Occupations

         #    Occupation            Energy/Eh            Energy/eV
      -------------------------------------------------------------
         1        2.0000           -0.6903874             -18.7864
       ...           ...                  ...                  ...
        47        2.0000           -0.4419462             -12.0260
        48        2.0000           -0.4274803             -11.6323
        49        2.0000           -0.4201437             -11.4327
        50        2.0000           -0.4181574             -11.3786
        51        2.0000           -0.4162625             -11.3271
        52        2.0000           -0.4144536             -11.2779
        53        2.0000           -0.4131975             -11.2437
        54        2.0000           -0.4054210             -11.0321
        55        2.0000           -0.3965797             -10.7915
        56        2.0000           -0.3949695             -10.7477
        57        2.0000           -0.3804610             -10.3529
        58        2.0000           -0.3751734             -10.2090
        59        2.0000           -0.3505700              -9.5395 (HOMO)
        60                         -0.2634315              -7.1683 (LUMO)
        61                         -0.2607177              -7.0945
        62                         -0.2408716              -6.5545
        63                         -0.2290347              -6.2324
        64                         -0.2126949              -5.7877
        65                         -0.2030787              -5.5261
        66                         -0.1869024              -5.0859
        67                         -0.1598083              -4.3486
        68                         -0.1291976              -3.5156
        69                         -0.1100595              -2.9949
        70                         -0.0671152              -1.8263
       ...                                ...                  ...
       116                          0.7126455              19.3921
      -------------------------------------------------------------
                  HL-Gap            0.0871385 Eh            2.3712 eV

     #   Z          covCN         q      C6AA      α(0)
     1   6 C        2.920    -0.033    28.815     8.803
     2   6 C        2.918    -0.029    28.732     8.790
     3   6 C        2.928    -0.030    28.748     8.793
     4   6 C        2.973     0.010    27.781     8.646
     5   6 C        3.134     0.047    26.731     8.463
     6   7 N        1.915    -0.278    28.059     7.854
     7   6 C        3.128     0.103    25.540     8.275
     8   6 C        2.969     0.001    28.009     8.681
     9   6 C        2.918    -0.038    28.952     8.824
    10   6 C        2.917    -0.036    28.901     8.816
    11   6 C        2.987     0.012    27.742     8.640
    12   6 C        2.918    -0.035    28.868     8.811
    13   6 C        2.916    -0.030    28.750     8.793
    14   6 C        2.916    -0.029    28.731     8.790
    15   6 C        2.918    -0.034    28.852     8.808
    16   6 C        2.985     0.015    27.673     8.629
    17   6 C        2.927    -0.036    28.892     8.815
    18   7 N        2.844     0.006    21.155     6.831
    19   6 C        2.851     0.011    27.763     8.636
    20   6 C        2.914    -0.041    29.009     8.832
    21   6 C        2.919    -0.034    28.855     8.809
    22   6 C        2.907    -0.034    28.844     8.806
    23   6 C        3.072     0.024    27.400     8.583
    24   6 C        2.923    -0.040    28.984     8.829
    25   6 C        2.919    -0.031    28.768     8.795
    26   1 H        0.926     0.027     2.633     2.537
    27   1 H        0.926     0.029     2.602     2.523
    28   1 H        0.926     0.048     2.348     2.396
    29   1 H        0.926     0.027     2.631     2.536
    30   1 H        0.926     0.031     2.570     2.507
    31   1 H        0.926     0.030     2.582     2.513
    32   1 H        0.926     0.030     2.586     2.515
    33   1 H        0.926     0.031     2.575     2.509
    34   1 H        0.926     0.034     2.524     2.485
    35   1 H        0.926     0.048     2.340     2.392
    36   1 H        0.926     0.049     2.327     2.386
    37   1 H        0.926     0.042     2.427     2.436
    38   1 H        0.926     0.036     2.501     2.473
    39   1 H        0.926     0.046     2.372     2.409
    40   1 H        0.926     0.025     2.655     2.548
    41   1 H        0.926     0.026     2.645     2.543

molecular dipole:
                 x           y           z       tot (Debye)
 q only:        0.276      -0.748      -0.271
   full:        0.258      -1.225      -0.307       3.277

 projected vibrational frequencies (cm⁻¹)
eigval :       -0.00    -0.00    -0.00    -0.00    -0.00     0.00
eigval :       25.42    33.62    38.60    60.68    76.70    89.08
eigval :      134.58   168.27   181.09   187.58   209.38   240.16
eigval :      273.44   291.35   339.93   362.54   371.06   375.31
eigval :      400.66   410.75   446.48   477.70   484.05   497.59
eigval :      541.32   562.60   567.75   578.29   591.21   595.76
eigval :      621.65   631.68   663.67   677.83   691.55   721.39
eigval :      726.32   757.27   760.95   766.28   786.00   798.54
eigval :      829.84   836.69   859.27   871.40   875.64   880.01
eigval :      892.03   895.56   897.91   909.49   915.90   928.06
eigval :      928.19   930.34   931.75   936.51   986.93  1028.44
eigval :     1064.01  1078.51  1082.82  1118.23  1120.52  1144.12
eigval :     1153.12  1172.37  1179.29  1181.77  1182.20  1185.55
eigval :     1206.38  1221.65  1231.76  1250.96  1257.09  1274.03
eigval :     1288.30  1323.04  1328.67  1331.10  1345.69  1366.96
eigval :     1391.66  1399.07  1421.77  1432.58  1434.71  1444.07
eigval :     1472.32  1496.27  1497.55  1523.04  1541.66  1559.33
eigval :     1580.22  1597.65  1600.56  1610.08  1614.96  3065.01
eigval :     3067.91  3068.64  3072.79  3073.02  3079.58  3081.37
eigval :     3084.83  3090.15  3091.63  3097.11  3099.64  3104.15
eigval :     3104.83  3115.04  3119.08

   temp. (K)  partition function   enthalpy   heat capacity  entropy
                                   cal/mol     cal/K/mol   cal/K/mol   J/K/mol
 298.15  VIB  0.758E+07            10118.112     68.857     60.543
         ROT  0.128E+08              888.752      2.981     35.502
         INT  0.970E+14            11006.865     71.838     96.046
         TR   0.555E+28             1481.254      4.968     43.169
         TOT                       12488.1185    76.8059   139.2148   582.4747

       T/K    H(0)-H(T)+PV         H(T)/Eh          T*S/Eh         G(T)/Eh
   ------------------------------------------------------------------------
    298.15    0.199011E-01    0.335816E+00    0.661454E-01    0.269670E+00
   ------------------------------------------------------------------------

         :::::::::::::::::::::::::::::::::::::::::::::::::::::
         ::                  THERMODYNAMIC                  ::
         :::::::::::::::::::::::::::::::::::::::::::::::::::::
         :: total free energy         -62.994672164498 Eh   ::
         ::.................................................::
         :: total energy              -63.264342520820 Eh   ::
         :: zero point energy           0.315914712552 Eh   ::
         :: G(RRHO) w/o ZPVE           -0.046244356230 Eh   ::
         :: G(RRHO) contrib.            0.269670356322 Eh   ::
         :::::::::::::::::::::::::::::::::::::::::::::::::::::

           -------------------------------------------------
          | TOTAL ENERGY              -63.264342520820 Eh   |
          | TOTAL ENTHALPY            -62.928526724609 Eh   |
          | TOTAL FREE ENERGY         -62.994672164498 Eh   |
          | GRADIENT NORM               0.000046873824 Eh/α |
          | HOMO-LUMO GAP               2.371158167580 eV   |
           -------------------------------------------------

 * finished run on 2025/09/04 at 13:06:04.057
