   * xtb version 6.7.1 (edcfbbe) compiled by 'albert@albert-system' on 2024-07-22

   ID    Z sym.   atoms
    1    6 C      1-9, 11-25, 27-44
    2   15 P      10, 26
    3    1 H      45-92

          program call               : xtb data2507/gas/LiPr/LiPr.xyz --gfn 2 --ohess vtight --parallel 40 --molden --ceasefiles --namespace data2507/gas/LiPr/LiPr_gas_S0_preOpt
          :  Hamiltonian                  GFN2-xTB          :
 * total energy  :  -119.4026655 Eh     change       -0.1501846E-08 Eh
 * total energy  :  -119.4230274 Eh     change       -0.2036193E-01 Eh
 * total energy  :  -119.4306115 Eh     change       -0.7584068E-02 Eh
 * total energy  :  -119.4343158 Eh     change       -0.3704292E-02 Eh
 * total energy  :  -119.4371045 Eh     change       -0.2788783E-02 Eh
 * total energy  :  -119.4385718 Eh     change       -0.1467228E-02 Eh
 * total energy  :  -119.4392801 Eh     change       -0.7083092E-03 Eh
 * total energy  :  -119.4397196 Eh     change       -0.4394794E-03 Eh
 * total energy  :  -119.4400714 Eh     change       -0.3518820E-03 Eh
 * total energy  :  -119.4403850 Eh     change       -0.3135673E-03 Eh
 * total energy  :  -119.4459298 Eh     change       -0.1838683E-05 Eh
 * total energy  :  -119.4459313 Eh     change       -0.1491030E-05 Eh
 * total energy  :  -119.4459323 Eh     change       -0.1031098E-05 Eh
 * total energy  :  -119.4459332 Eh     change       -0.9452134E-06 Eh
 * total energy  :  -119.4459341 Eh     change       -0.8118972E-06 Eh
 * total energy  :  -119.4459347 Eh     change       -0.6497129E-06 Eh
 * total energy  :  -119.4459351 Eh     change       -0.3828009E-06 Eh
 * total energy  :  -119.4459352 Eh     change       -0.1464362E-06 Eh
 * total energy  :  -119.4459352 Eh     change       -0.7133565E-08 Eh
   *** GEOMETRY OPTIMIZATION CONVERGED AFTER 540 ITERATIONS ***

 final structure:
================
92
 xtb: 6.7.1 (edcfbbe)
C            5.47648245901113        0.89056577674026       -1.48154913092499
C            5.10882980301163        1.78732826617087       -0.29849029140212
C            4.97749849108319        0.99754451847075        1.00217178042206
C            3.86090551554484        2.59840676888955       -0.56472761065355
C            4.00782925923734        3.98179679572278       -0.61585752546853
C            2.94153210662240        4.82917906919964       -0.84492717411809
C            1.67979341762579        4.29267676921158       -1.02303493710007
C            1.51271927192483        2.92340138964400       -0.97452662643326
C            2.58249507741487        2.05569655590472       -0.74828058619079
P            2.27149735225914        0.22607623782997       -0.80764712731401
C            1.60838051213851       -0.09961026329993        0.88143899775846
C            1.15567184368334        0.96704828137941        1.65670006512736
C            0.72940089455017        0.78610349349947        2.95688074132479
C            0.77242746699463       -0.47774235963488        3.51479942839232
C            1.27251070631883       -1.52972396258874        2.77179797654956
C            1.70905102534281       -1.37512743935086        1.45986251584805
C            2.30998801098067       -2.59850258475752        0.79825906330684
C            1.64163018396449       -2.97084767790053       -0.52063898543999
C            3.82318082044123       -2.45577424551836        0.61462749951171
C            0.83625976296417        0.32319383563866       -1.97084341229417
C            1.31667974618048        0.67179461684330       -3.23758010373783
C            0.47682223661915        0.85087672683488       -4.31484836612066
C           -0.88674643391781        0.67122323317963       -4.14326229022298
C           -1.37453779651181        0.29373916630047       -2.90871058970749
C           -0.53424440414368        0.09493381197256       -1.81097358150173
P           -1.26216546125337       -0.43335355573816       -0.19913173122606
C           -1.72653564138942       -2.17312159911097       -0.58952651417866
C           -1.49529038085529       -2.75283040456807       -1.83474651778628
C           -1.85645015138640       -4.06286343829262       -2.08675940047400
C           -2.45412567003659       -4.81409551717042       -1.09048166496951
C           -2.66613610892291       -4.25327020207133        0.15554833204258
C           -2.30172504773001       -2.94163093888164        0.43175661144436
C           -2.53278817578789       -2.37346686337412        1.80981835454243
C           -1.87102265798691       -3.24224313541196        2.87978922786331
C           -4.02603636033011       -2.20901850753645        2.09569230377681
C           -2.95081469909861        0.30828157504600       -0.37238848507473
C           -4.00763765695703       -0.40190532761591       -0.94172372058176
C           -5.27440178734991        0.14390049453779       -1.02250809790284
C           -5.50917419787791        1.41213045784564       -0.52122813346923
C           -4.47034155017305        2.12135110006314        0.04969648440796
C           -3.18786461586638        1.59116934222402        0.12990573337217
C           -2.08573192518516        2.39923192697550        0.76325911762487
C           -2.35222113312000        2.58596373162331        2.25680908350238
C           -1.90793127884699        3.74744541751622        0.06582820806418
H            5.59147228904947        1.48978864849551       -2.38282935572359
H            4.70935236471561        0.14164297758299       -1.66163045429641
H            6.41626448035683        0.37978908116043       -1.28288452213127
H            5.93443556478336        2.49797112137596       -0.16815421939050
H            4.13344213413804        0.31510912417615        0.95719661557684
H            5.88168459802998        0.42158322083049        1.18751863434646
H            4.81916013505378        1.67604861922059        1.83859421000089
H            4.99306159472013        4.40573081789721       -0.47630498256311
H            3.09535275679658        5.89761954442522       -0.88473508523260
H            0.82987193206502        4.93451778862177       -1.20427412787790
H            0.52235996195312        2.51704954788748       -1.12003014473024
H            1.14656371444537        1.96184237418716        1.23674701152702
H            0.37715851875331        1.62846307001624        3.53344677691761
H            0.44169578673176       -0.64146086142308        4.53009036145039
H            1.34681941193716       -2.50477315069635        3.23421063207270
H            2.14904357982783       -3.43703035892442        1.48756472286813
H            1.72933570346425       -2.16713085426987       -1.24971467603901
H            0.58793666801965       -3.18138446736659       -0.36173664679308
H            2.11189589535355       -3.85979529709678       -0.93667966136188
H            4.24676185430684       -3.41042475194452        0.30928757700176
H            4.05218253571702       -1.72275108797307       -0.15403289034508
H            4.29506788491137       -2.15121209986370        1.54652510981399
H            2.38395489152680        0.81885619710810       -3.35977188041703
H            0.87719058487737        1.12977452217202       -5.27856297988474
H           -1.56708905840645        0.81629370148907       -4.96990773615321
H           -2.43847582778634        0.14658121254250       -2.78837548451854
H           -1.02406202003656       -2.17820280434144       -2.61864128433853
H           -1.67303357793513       -4.49275477545454       -3.06073005649034
H           -2.74940551881864       -5.83562951583703       -1.28108902503721
H           -3.12630913085364       -4.85075328683531        0.92877592291405
H           -2.06425665826398       -1.38003380489271        1.84851839009004
H           -1.90689844719661       -2.73879167747959        3.84324104216263
H           -2.37726766693331       -4.19962916310945        2.97698305812563
H           -0.83081475010801       -3.42395084111224        2.62250220014936
H           -4.17245001351972       -1.78769388811505        3.08802987857518
H           -4.48428275457551       -1.54308068589800        1.36785285313134
H           -4.53370802332239       -3.17019747883861        2.05122720862621
H           -3.84256686889941       -1.39696166178089       -1.33018191967964
H           -6.07584800165387       -0.42356984608430       -1.47344399493971
H           -6.49731760328451        1.84541463698710       -0.57471595346283
H           -4.66194499361255        3.10941660779708        0.44198347257383
H           -1.15201451774765        1.83242004094413        0.65702187029167
H           -3.29251373106347        3.10760131190322        2.42092095691458
H           -2.40358545863824        1.61821780854427        2.75131288475314
H           -1.55290997136348        3.16766886826790        2.71045951285973
H           -2.77719228968601        4.38348953765642        0.21586067405506
H           -1.03712833015928        4.26171592201511        0.46699920475411
H           -1.76865345685265        3.60667371972927       -1.00469362066532

          :  Hamiltonian                  GFN2-xTB          :
         :: gradient norm              0.000028749783 Eh/a0 ::
         :: HOMO-LUMO gap              2.898230800670 eV    ::
         :: SCC energy              -121.528363878318 Eh    ::
         :: -> dispersion             -0.142018926455 Eh    ::
         :: repulsion energy           2.082428634388 Eh    ::

    * Orbital Energies and Occupations

         #    Occupation            Energy/Eh            Energy/eV
      -------------------------------------------------------------
         1        2.0000           -0.6605624             -17.9748
       ...           ...                  ...                  ...
       101        2.0000           -0.4038958             -10.9906
       102        2.0000           -0.4019270             -10.9370
       103        2.0000           -0.4001158             -10.8877
       104        2.0000           -0.3979639             -10.8291
       105        2.0000           -0.3961993             -10.7811
       106        2.0000           -0.3944887             -10.7346
       107        2.0000           -0.3933414             -10.7034
       108        2.0000           -0.3924319             -10.6786
       109        2.0000           -0.3913418             -10.6490
       110        2.0000           -0.3897664             -10.6061
       111        2.0000           -0.3882667             -10.5653
       112        2.0000           -0.3561948              -9.6926
       113        2.0000           -0.3485031              -9.4833 (HOMO)
       114                         -0.2419950              -6.5850 (LUMO)
       115                         -0.2372465              -6.4558
       116                         -0.2335501              -6.3552
       117                         -0.2301236              -6.2620
       118                         -0.2230487              -6.0695
       119                         -0.2220739              -6.0429
       120                         -0.2203008              -5.9947
       121                         -0.2179615              -5.9310
       122                         -0.2172620              -5.9120
       123                         -0.2153640              -5.8604
       124                         -0.1516896              -4.1277
       ...                                ...                  ...
       234                          1.1223919              30.5418
      -------------------------------------------------------------
                  HL-Gap            0.1065080 Eh            2.8982 eV

     #   Z          covCN         q      C6AA      α(0)
     1   6 C        3.754    -0.101    22.491     6.762
     2   6 C        3.856    -0.010    20.722     6.474
     3   6 C        3.755    -0.101    22.483     6.761
     4   6 C        3.010     0.010    27.786     8.647
     5   6 C        2.929    -0.040    28.986     8.829
     6   6 C        2.918    -0.031    28.775     8.797
     7   6 C        2.918    -0.036    28.900     8.816
     8   6 C        2.988    -0.029    28.713     8.790
     9   6 C        2.914     0.019    27.594     8.614
    10  15 P        3.224    -0.180   168.483    23.317
    11   6 C        2.921     0.031    27.313     8.570
    12   6 C        2.988    -0.026    28.633     8.778
    13   6 C        2.919    -0.032    28.788     8.799
    14   6 C        2.918    -0.028    28.708     8.786
    15   6 C        2.930    -0.036    28.889     8.815
    16   6 C        3.020     0.012    27.714     8.635
    17   6 C        3.856    -0.009    20.701     6.471
    18   6 C        3.755    -0.096    22.390     6.747
    19   6 C        3.755    -0.103    22.521     6.767
    20   6 C        2.960     0.023    27.499     8.601
    21   6 C        3.123    -0.028    28.511     8.744
    22   6 C        2.916    -0.030    28.746     8.792
    23   6 C        2.919    -0.033    28.813     8.802
    24   6 C        2.987    -0.028    28.692     8.787
    25   6 C        2.924     0.021    27.538     8.606
    26  15 P        3.145    -0.174   168.201    23.298
    27   6 C        2.918     0.016    27.654     8.623
    28   6 C        2.966    -0.030    28.747     8.795
    29   6 C        2.919    -0.035    28.876     8.812
    30   6 C        2.918    -0.033    28.818     8.803
    31   6 C        2.925    -0.036    28.896     8.815
    32   6 C        3.049     0.009    27.772     8.643
    33   6 C        3.859    -0.011    20.726     6.475
    34   6 C        3.756    -0.100    22.464     6.758
    35   6 C        3.756    -0.098    22.432     6.753
    36   6 C        2.917     0.011    27.771     8.642
    37   6 C        2.968    -0.030    28.747     8.795
    38   6 C        2.918    -0.036    28.902     8.816
    39   6 C        2.918    -0.032    28.798     8.800
    40   6 C        2.925    -0.035    28.884     8.814
    41   6 C        3.036     0.010    27.769     8.643
    42   6 C        3.859    -0.012    20.757     6.479
    43   6 C        3.756    -0.098    22.424     6.752
    44   6 C        3.755    -0.096    22.383     6.746
    45   1 H        0.925     0.030     2.583     2.513
    46   1 H        0.925     0.054     2.272     2.357
    47   1 H        0.925     0.035     2.517     2.481
    48   1 H        0.924     0.028     2.618     2.530
    49   1 H        0.925     0.060     2.199     2.319
    50   1 H        0.925     0.035     2.511     2.478
    51   1 H        0.925     0.028     2.608     2.525
    52   1 H        0.925     0.026     2.640     2.541
    53   1 H        0.926     0.027     2.634     2.538
    54   1 H        0.926     0.026     2.640     2.541
    55   1 H        0.926     0.040     2.451     2.448
    56   1 H        0.926     0.041     2.431     2.438
    57   1 H        0.926     0.028     2.612     2.528
    58   1 H        0.926     0.027     2.635     2.538
    59   1 H        0.925     0.025     2.652     2.547
    60   1 H        0.924     0.026     2.642     2.542
    61   1 H        0.925     0.054     2.267     2.355
    62   1 H        0.925     0.035     2.523     2.484
    63   1 H        0.925     0.032     2.553     2.499
    64   1 H        0.925     0.034     2.527     2.486
    65   1 H        0.925     0.056     2.248     2.345
    66   1 H        0.925     0.032     2.565     2.504
    67   1 H        0.925     0.039     2.463     2.454
    68   1 H        0.926     0.028     2.610     2.526
    69   1 H        0.926     0.027     2.632     2.537
    70   1 H        0.926     0.040     2.454     2.450
    71   1 H        0.926     0.034     2.530     2.488
    72   1 H        0.926     0.026     2.643     2.542
    73   1 H        0.926     0.026     2.640     2.541
    74   1 H        0.926     0.030     2.586     2.515
    75   1 H        0.926     0.052     2.298     2.370
    76   1 H        0.925     0.034     2.526     2.485
    77   1 H        0.925     0.036     2.497     2.471
    78   1 H        0.925     0.036     2.497     2.471
    79   1 H        0.925     0.034     2.527     2.486
    80   1 H        0.925     0.033     2.541     2.493
    81   1 H        0.925     0.035     2.511     2.478
    82   1 H        0.926     0.033     2.538     2.491
    83   1 H        0.926     0.025     2.656     2.548
    84   1 H        0.926     0.027     2.635     2.538
    85   1 H        0.926     0.030     2.581     2.512
    86   1 H        0.925     0.057     2.230     2.335
    87   1 H        0.925     0.035     2.511     2.478
    88   1 H        0.925     0.035     2.511     2.478
    89   1 H        0.925     0.036     2.506     2.476
    90   1 H        0.925     0.035     2.516     2.481
    91   1 H        0.925     0.036     2.502     2.473
    92   1 H        0.925     0.029     2.595     2.519

molecular dipole:
                 x           y           z       tot (Debye)
 q only:        0.199       0.006       0.377
   full:       -0.338       0.203       0.118       1.047

 projected vibrational frequencies (cm⁻¹)
eigval :       -0.00    -0.00    -0.00     0.00     0.00     0.00
eigval :        7.76    20.81    28.64    30.66    37.68    39.97
eigval :       45.25    46.48    54.13    60.64    67.26    73.74
eigval :       74.69    83.25    86.35    97.52   102.38   117.21
eigval :      118.06   123.99   134.23   139.61   144.22   156.41
eigval :      163.14   167.42   179.64   188.07   190.00   195.76
eigval :      201.92   210.29   212.54   218.74   221.31   222.66
eigval :      236.72   246.11   251.19   258.75   262.08   265.93
eigval :      278.96   285.21   304.21   309.53   317.03   318.62
eigval :      323.07   326.04   328.68   337.81   381.53   394.45
eigval :      396.75   402.63   411.18   433.64   442.32   456.98
eigval :      460.43   467.86   480.50   488.26   492.62   500.31
eigval :      509.89   514.49   523.30   525.05   527.37   527.69
eigval :      559.21   563.37   564.74   566.98   626.37   651.31
eigval :      658.66   664.28   667.78   675.18   688.77   692.12
eigval :      693.43   695.02   715.03   762.60   763.21   766.27
eigval :      766.69   768.92   775.39   775.82   779.22   780.10
eigval :      875.28   880.88   881.29   887.54   888.98   913.15
eigval :      916.25   917.05   921.20   922.46   927.26   928.38
eigval :      929.64   932.35   934.49   937.90   938.07   939.31
eigval :      939.53   940.11   944.25   946.04   947.67   983.85
eigval :      985.87   986.93   988.12   994.99  1016.29  1017.80
eigval :     1022.69  1025.42  1071.61  1072.87  1083.75  1086.90
eigval :     1094.45  1111.36  1112.09  1112.54  1113.90  1123.65
eigval :     1134.26  1137.69  1141.32  1142.89  1143.72  1146.74
eigval :     1150.92  1151.88  1152.39  1165.94  1166.90  1177.29
eigval :     1178.55  1182.19  1186.30  1186.74  1186.97  1188.56
eigval :     1223.37  1223.79  1225.04  1226.37  1244.97  1251.92
eigval :     1260.50  1264.96  1267.12  1290.22  1294.70  1297.32
eigval :     1299.40  1301.47  1306.45  1308.98  1318.85  1323.50
eigval :     1333.42  1333.78  1357.81  1363.87  1390.95  1395.79
eigval :     1397.09  1402.87  1403.82  1408.35  1411.87  1416.56
eigval :     1417.11  1419.34  1420.31  1423.85  1425.52  1432.84
eigval :     1452.10  1455.90  1456.56  1459.87  1474.67  1485.36
eigval :     1488.84  1489.64  1491.00  1492.07  1494.34  1496.08
eigval :     1497.47  1497.87  1503.10  1503.57  1505.80  1506.59
eigval :     1508.52  1508.81  1550.00  1566.64  1569.10  1569.27
eigval :     1571.44  1575.63  1586.55  1587.24  1587.32  1588.52
eigval :     2881.98  2905.32  2908.19  2912.09  3013.18  3021.54
eigval :     3021.84  3022.33  3025.76  3025.98  3026.17  3026.58
eigval :     3027.73  3027.80  3029.23  3029.59  3029.83  3030.42
eigval :     3030.69  3031.44  3033.33  3036.17  3038.01  3038.26
eigval :     3040.20  3043.82  3048.41  3052.35  3057.66  3060.78
eigval :     3060.85  3068.32  3070.19  3070.45  3071.99  3073.87
eigval :     3074.36  3076.56  3078.63  3081.01  3082.46  3082.94
eigval :     3084.74  3086.80  3088.04  3089.14  3090.20  3091.67

   temp. (K)  partition function   enthalpy   heat capacity  entropy
                                   cal/mol     cal/K/mol   cal/K/mol   J/K/mol
 298.15  VIB  0.173E+21            26934.771    163.049    169.074
         ROT  0.414E+08              888.752      2.981     37.836
         INT  0.718E+28            27823.523    166.030    206.909
         TR   0.147E+29             1481.254      4.968     45.111
         TOT                       29304.7772   170.9981   252.0201  1054.4523

       T/K    H(0)-H(T)+PV         H(T)/Eh          T*S/Eh         G(T)/Eh
   ------------------------------------------------------------------------
    298.15    0.467001E-01    0.813277E+00    0.119743E+00    0.693534E+00
   ------------------------------------------------------------------------

         :::::::::::::::::::::::::::::::::::::::::::::::::::::
         ::                  THERMODYNAMIC                  ::
         :::::::::::::::::::::::::::::::::::::::::::::::::::::
         :: total free energy        -118.752401026171 Eh   ::
         ::.................................................::
         :: total energy             -119.445935243929 Eh   ::
         :: zero point energy           0.766576985961 Eh   ::
         :: G(RRHO) w/o ZPVE           -0.073042768202 Eh   ::
         :: G(RRHO) contrib.            0.693534217759 Eh   ::
         :::::::::::::::::::::::::::::::::::::::::::::::::::::

           -------------------------------------------------
          | TOTAL ENERGY             -119.445935243929 Eh   |
          | TOTAL ENTHALPY           -118.632658122952 Eh   |
          | TOTAL FREE ENERGY        -118.752401026171 Eh   |
          | GRADIENT NORM               0.000028760836 Eh/α |
          | HOMO-LUMO GAP               2.898231446187 eV   |
           -------------------------------------------------

 * finished run on 2025/09/12 at 21:52:00.705
