   * xtb version 6.7.1 (edcfbbe) compiled by 'albert@albert-system' on 2024-07-22

   ID    Z sym.   atoms
    1    6 C      1-9, 11-25, 27-44
    2   15 P      10, 26
    3    1 H      45-92

          program call               : xtb data2507/gas/LiPr/LiPr_gas_T1_crest.xyz --gfn 2 --spinpol --tblite --uhf 2 --ohess vtight --parallel 40 --molden --ceasefiles --namespace data2507/gas/LiPr/LiPr_gas_T1_finalOpt
 * total energy  :  -119.3586683 Eh     change       -0.1365548E-07 Eh
 * total energy  :  -119.3587779 Eh     change       -0.1095929E-03 Eh
 * total energy  :  -119.3588798 Eh     change       -0.1018831E-03 Eh
 * total energy  :  -119.3588971 Eh     change       -0.1734546E-04 Eh
 * total energy  :  -119.3589224 Eh     change       -0.2531591E-04 Eh
 * total energy  :  -119.3589308 Eh     change       -0.8330934E-05 Eh
 * total energy  :  -119.3589394 Eh     change       -0.8632002E-05 Eh
 * total energy  :  -119.3589432 Eh     change       -0.3850464E-05 Eh
 * total energy  :  -119.3589469 Eh     change       -0.3655788E-05 Eh
 * total energy  :  -119.3589498 Eh     change       -0.2901375E-05 Eh
 * total energy  :  -119.3589659 Eh     change       -0.1947743E-06 Eh
 * total energy  :  -119.3589661 Eh     change       -0.2268725E-06 Eh
 * total energy  :  -119.3589663 Eh     change       -0.2329345E-06 Eh
 * total energy  :  -119.3589666 Eh     change       -0.2670463E-06 Eh
 * total energy  :  -119.3589669 Eh     change       -0.2566419E-06 Eh
 * total energy  :  -119.3589671 Eh     change       -0.2067462E-06 Eh
 * total energy  :  -119.3589673 Eh     change       -0.2133726E-06 Eh
 * total energy  :  -119.3589674 Eh     change       -0.1392371E-06 Eh
 * total energy  :  -119.3589675 Eh     change       -0.8349772E-07 Eh
   *** GEOMETRY OPTIMIZATION CONVERGED AFTER 35 ITERATIONS ***

 final structure:
================
92
 xtb: 6.7.1 (edcfbbe)
C            0.27244761723685        2.27337498310929       -2.90595275831673
C            0.03451190744988        2.68554804373162       -1.45170241987610
C           -0.93983554993012        3.85744032431264       -1.38447165935432
C            1.35310771337392        2.95516239802499       -0.78243451598870
C            1.93497909666386        4.20755342737727       -0.78016778371827
C            3.18317699139602        4.42631309665591       -0.20924421126249
C            3.86922378336927        3.36574034150446        0.36886014326762
C            3.31716367824202        2.10599554606458        0.37404116395317
C            2.05296901758188        1.87523438965753       -0.20507134791640
P            1.21133947484156        0.31198647418376        0.20449253317023
C            2.62936393120586       -0.81288125158312        0.48460071616558
C            2.82523799103778       -1.34505415335452        1.76028405549561
C            3.89971151767989       -2.16745091328800        2.02658346115549
C            4.77169904845620       -2.51029369779802        1.00265144298849
C            4.54334660151595       -2.04115959007446       -0.27848871407449
C            3.47157974349004       -1.20727802593781       -0.56872427715928
C            3.23450408916230       -0.74419937986941       -1.98287535043510
C            4.23116863814013        0.34139341569909       -2.39437673370968
C            3.31476334352593       -1.90712445710552       -2.97514319194739
C            0.40700481540830        0.46313772522613        1.79694026952850
C            1.11477157997678        1.24584338776287        2.75132387556120
C            0.55125648840895        1.61050275258951        3.94045655208272
C           -0.77361407292150        1.25898917160553        4.24198823581526
C           -1.49564167713453        0.54178329972411        3.31059103093944
C           -0.95637664815523        0.18270603100773        2.07847075517611
P           -2.10213692303154       -0.78873810181208        1.05998621223935
C           -1.12600002344545       -1.29969959965064       -0.39735334755689
C           -1.28916728990141       -0.66704942582892       -1.63265885187174
C           -0.71699946448424       -1.18642178977839       -2.77581370489284
C            0.01482815739921       -2.36031121760903       -2.70133277699848
C            0.18183586512894       -2.99746918610505       -1.48415807788779
C           -0.38483652960742       -2.49471936099794       -0.32167161694020
C           -0.33043717546516       -3.26303863916651        0.97441387108801
C            0.91983466226847       -4.12663648662989        1.12871562690690
C           -1.57875373395201       -4.14619112851299        1.08134560372292
C           -3.19094954399518        0.51018464159793        0.34041641716658
C           -2.98825625593082        1.85743455894241        0.62603989355328
C           -3.88205077684288        2.81544623134687        0.18680447990089
C           -4.99752068145017        2.43405546848569       -0.53844180435851
C           -5.21399338912095        1.09547259203863       -0.81242090834049
C           -4.33018596589044        0.11825852039048       -0.37607828848034
C           -4.61140919828678       -1.33750646895094       -0.65488909470447
C           -4.71811305969464       -1.62221397525443       -2.15244399626189
C           -5.87652765547086       -1.78185469772145        0.08087127905605
H            0.76638552929836        3.07866268215244       -3.44653245062635
H           -0.67304610177729        2.05414561501131       -3.39745782159970
H            0.90410743579531        1.38906456572553       -2.95286722191231
H           -0.41215870832501        1.82853187862817       -0.91980401248136
H           -0.62696193490489        4.66490340262735       -2.04264983866848
H           -1.92998561681323        3.53301721429339       -1.69831427169386
H           -1.00851079919511        4.24028143152167       -0.36890486588783
H            1.41935950548071        5.03773768586243       -1.23829027337343
H            3.61797254800844        5.41405913793331       -0.22178994330730
H            4.84149366714911        3.52487658406594        0.81361820936144
H            3.86126786267195        1.28139596623066        0.81523862992363
H            2.13828554089923       -1.08605440000627        2.55292312740340
H            4.05720715455069       -2.54245179131748        3.02703938114742
H            5.61569436396270       -3.15444752021253        1.19987975537094
H            5.21618905269668       -2.33387152727099       -1.07053018325516
H            2.21647301265545       -0.32694588102614       -2.01876511516739
H            4.13280899494458        1.22246977890337       -1.76649624047412
H            4.05574006764770        0.63339320178168       -3.42774863362438
H            5.25013746540041       -0.03063325078884       -2.30879330857451
H            2.75954214643483       -2.76528194016660       -2.60742997896706
H            2.89866798711862       -1.60490392449921       -3.93357836900153
H            4.34723962460964       -2.20662125567744       -3.13878158366558
H            2.13628351204890        1.52536236847099        2.52942112645930
H            1.13616486230348        2.16723934042476        4.65878868935591
H           -1.21793450103472        1.55068804455676        5.18046675116735
H           -2.52264942438195        0.26394940750634        3.51805466658974
H           -1.88863538098577        0.22993664023546       -1.69385750804993
H           -0.85802523924374       -0.69200877432386       -3.72591089986535
H            0.43731560607325       -2.78986985383716       -3.59761461103778
H            0.73876796596283       -3.92135009406402       -1.44820181393216
H           -0.35317251872418       -2.53401244118683        1.79579201341748
H            1.81594041395034       -3.56862005083771        0.87185048027246
H            1.00847030153232       -4.46107778410886        2.15991367258102
H            0.86241204115469       -5.01052971714041        0.49697720094238
H           -1.62291484108349       -4.83816158927637        0.24235339034147
H           -1.55360395756095       -4.71833230206109        2.00572413977858
H           -2.48258126634483       -3.53979590654084        1.07716907108582
H           -2.12072341461891        2.15781176852279        1.19639803135957
H           -3.71016517962879        3.85746272592112        0.41406289100484
H           -5.70222152669673        3.17665761293318       -0.88371327000190
H           -6.09417270382692        0.80784267031049       -1.36903590866352
H           -3.77016320107296       -1.92567297192304       -0.26401640235930
H           -5.55095254620403       -1.08100444550753       -2.59480426708823
H           -3.80278762206089       -1.32767635768111       -2.66113152815336
H           -4.87508297854237       -2.68591183262439       -2.31856759427131
H           -6.04619151686725       -2.84576165010456       -0.07024617043746
H           -5.77465967048873       -1.59501655445552        1.14788872370433
H           -6.74662039081588       -1.23937023838664       -0.28118457840978

 projected vibrational frequencies (cm⁻¹)
eigval :       -0.00    -0.00    -0.00    -0.00     0.00     0.00
eigval :       16.13    20.42    32.09    33.61    36.54    41.81
eigval :       46.52    49.74    53.96    58.29    59.95    67.68
eigval :       74.18    77.22    89.33   100.59   105.64   114.65
eigval :      116.70   123.07   131.92   133.69   134.14   142.36
eigval :      150.57   158.55   167.30   179.48   189.80   199.92
eigval :      201.37   204.14   209.82   213.44   220.17   231.44
eigval :      242.46   245.37   251.99   254.34   257.54   271.34
eigval :      275.29   284.43   298.90   301.56   315.68   316.92
eigval :      324.32   335.15   348.75   350.84   353.77   370.17
eigval :      385.00   386.59   396.99   403.04   408.39   417.02
eigval :      439.59   451.27   458.11   476.48   480.55   486.19
eigval :      491.47   492.91   513.30   516.12   519.97   523.81
eigval :      557.88   559.36   562.56   563.91   592.41   626.25
eigval :      641.84   655.43   660.56   666.82   669.17   672.68
eigval :      681.68   689.35   720.31   729.84   753.87   761.53
eigval :      762.28   763.85   765.88   769.44   776.98   778.43
eigval :      824.93   860.05   876.11   883.40   884.04   886.78
eigval :      889.70   893.57   910.01   914.50   916.73   918.98
eigval :      919.06   929.43   930.03   935.80   936.96   938.51
eigval :      938.76   940.53   942.76   943.92   944.67   979.83
eigval :      985.33   986.15   986.35   987.16   993.41  1006.20
eigval :     1020.39  1022.20  1040.51  1069.65  1070.26  1070.85
eigval :     1072.85  1077.17  1098.44  1102.62  1104.21  1107.28
eigval :     1108.05  1122.80  1123.33  1129.82  1134.97  1135.99
eigval :     1137.46  1140.34  1141.44  1164.18  1170.01  1172.31
eigval :     1172.84  1176.31  1179.09  1180.90  1185.12  1185.79
eigval :     1203.33  1208.34  1215.80  1218.45  1220.60  1260.24
eigval :     1260.61  1262.20  1262.78  1276.62  1283.77  1284.65
eigval :     1291.87  1299.22  1299.47  1306.78  1308.38  1320.73
eigval :     1331.51  1333.59  1334.30  1335.79  1346.28  1378.22
eigval :     1394.75  1398.45  1400.21  1402.44  1403.04  1408.29
eigval :     1411.92  1416.17  1417.02  1418.00  1419.83  1423.74
eigval :     1427.86  1437.55  1438.23  1447.83  1450.30  1488.35
eigval :     1489.99  1491.13  1491.79  1491.90  1492.70  1495.29
eigval :     1495.61  1496.16  1502.04  1504.31  1504.66  1505.67
eigval :     1505.78  1508.44  1509.92  1513.05  1528.78  1535.25
eigval :     1539.23  1548.84  1562.60  1564.32  1566.60  1581.27
eigval :     2824.29  2856.76  2889.21  2890.74  3017.89  3021.86
eigval :     3023.22  3024.73  3025.13  3025.57  3025.75  3026.65
eigval :     3028.13  3029.41  3029.60  3030.14  3030.71  3033.31
eigval :     3033.66  3034.04  3035.05  3037.98  3038.12  3038.31
eigval :     3039.08  3040.38  3052.59  3054.13  3054.70  3056.90
eigval :     3059.22  3068.58  3069.35  3070.31  3070.45  3071.96
eigval :     3073.33  3077.51  3078.46  3079.35  3084.66  3085.57
eigval :     3085.80  3087.48  3093.18  3094.94  3095.60  3096.27

   temp. (K)  partition function   enthalpy   heat capacity  entropy
                                   cal/mol     cal/K/mol   cal/K/mol   J/K/mol
 298.15  VIB  0.153E+21            27330.191    165.244    171.137
         ROT  0.406E+08              888.752      2.981     37.797
         INT  0.620E+28            28218.943    168.225    208.934
         TR   0.147E+29             1481.254      4.968     45.111
         TOT                       29700.1970   173.1932   254.0453  1062.9257

       T/K    H(0)-H(T)+PV         H(T)/Eh          T*S/Eh         G(T)/Eh
   ------------------------------------------------------------------------
    298.15    0.473303E-01    0.809099E+00    0.120705E+00    0.688394E+00
   ------------------------------------------------------------------------

         :::::::::::::::::::::::::::::::::::::::::::::::::::::
         ::                  THERMODYNAMIC                  ::
         :::::::::::::::::::::::::::::::::::::::::::::::::::::
         :: total free energy        -118.670573566772 Eh   ::
         ::.................................................::
         :: total energy             -119.358967551115 Eh   ::
         :: zero point energy           0.761768847628 Eh   ::
         :: G(RRHO) w/o ZPVE           -0.073374863285 Eh   ::
         :: G(RRHO) contrib.            0.688393984343 Eh   ::
         :::::::::::::::::::::::::::::::::::::::::::::::::::::

           -------------------------------------------------
          | TOTAL ENERGY             -119.358967551115 Eh   |
          | TOTAL ENTHALPY           -118.549868426861 Eh   |
          | TOTAL FREE ENERGY        -118.670573566772 Eh   |
          | GRADIENT NORM               0.000063997892 Eh/α |
           -------------------------------------------------

 * finished run on 2025/09/12 at 22:16:19.414
