   * xtb version 6.7.1 (edcfbbe) compiled by 'albert@albert-system' on 2024-07-22

   ID    Z sym.   atoms
    1    6 C      1-9, 11-25, 27-44
    2   15 P      10, 26
    3    1 H      45-92

          program call               : xtb data2507/gas/LiPr/LiPr_gas_S0_finalOpt.xtbopt.xyz --gfn 2 --spinpol --tblite --uhf 2 --ohess vtight --parallel 40 --molden --ceasefiles --namespace data2507/gas/LiPr/LiPr_gas_T1_preOpt
 * total energy  :  -119.3467746 Eh     change       -0.9870007E-08 Eh
 * total energy  :  -119.3533397 Eh     change       -0.6565108E-02 Eh
 * total energy  :  -119.3551036 Eh     change       -0.1763892E-02 Eh
 * total energy  :  -119.3554876 Eh     change       -0.3839486E-03 Eh
 * total energy  :  -119.3558633 Eh     change       -0.3757138E-03 Eh
 * total energy  :  -119.3560738 Eh     change       -0.2105363E-03 Eh
 * total energy  :  -119.3563282 Eh     change       -0.2544257E-03 Eh
 * total energy  :  -119.3565564 Eh     change       -0.2281758E-03 Eh
 * total energy  :  -119.3567633 Eh     change       -0.2068473E-03 Eh
 * total energy  :  -119.3569858 Eh     change       -0.2225362E-03 Eh
 * total energy  :  -119.3589638 Eh     change       -0.2190945E-06 Eh
 * total energy  :  -119.3589640 Eh     change       -0.2083072E-06 Eh
 * total energy  :  -119.3589643 Eh     change       -0.2242630E-06 Eh
 * total energy  :  -119.3589644 Eh     change       -0.1624927E-06 Eh
 * total energy  :  -119.3589646 Eh     change       -0.2078767E-06 Eh
 * total energy  :  -119.3589647 Eh     change       -0.1097893E-06 Eh
 * total energy  :  -119.3589649 Eh     change       -0.1694339E-06 Eh
 * total energy  :  -119.3589650 Eh     change       -0.1156626E-06 Eh
 * total energy  :  -119.3589651 Eh     change       -0.9626879E-07 Eh
   *** GEOMETRY OPTIMIZATION CONVERGED AFTER 90 ITERATIONS ***

 final structure:
================
92
 xtb: 6.7.1 (edcfbbe)
C            0.57333325854484        2.12576946963067       -2.94595813754681
C            0.34161465931955        2.60587244661569       -1.51167275903311
C           -0.51444956350654        3.86853473619980       -1.50588338624872
C            1.66374827267028        2.76720593087549       -0.81511627185575
C            2.36597820033759        3.95612907870724       -0.83473429004052
C            3.61573149677627        4.07015383109597       -0.23729266238208
C            4.18010327841793        2.96680847977311        0.39024943691201
C            3.50650549522521        1.76796137490856        0.41852908394318
C            2.23966117602856        1.64341818263936       -0.18677370669833
P            1.23755528855820        0.18539306203974        0.24890856852187
C            2.52919887801848       -1.06389361550787        0.60285929366325
C            2.64130006861654       -1.56791467878399        1.89994655734559
C            3.62056580178497       -2.48428509809672        2.22079195968898
C            4.47612034615138       -2.94891301030095        1.23156542544953
C            4.32568226388005       -2.50424785889583       -0.06967950437106
C            3.35088031896626       -1.57745671714961       -0.41475077919440
C            3.19441306583470       -1.14184114574556       -1.84871320552725
C            4.30359512445718       -0.17440511106563       -2.26706018183138
C            3.18209532418825       -2.33982928373169       -2.80163116027777
C            0.41509745573239        0.47037979582665        1.81346244938286
C            1.17381225042128        1.21349997201801        2.76035431368925
C            0.62123007108964        1.67281043149007        3.92148811605648
C           -0.73838191651392        1.46252655070031        4.19902256363959
C           -1.50532774912680        0.78657505043444        3.27268310928236
C           -0.97537555411931        0.33393136957086        2.06763983379500
P           -2.18737284507476       -0.55636106312842        1.05165037323198
C           -1.23537261120863       -1.20579498519914       -0.36602993867570
C           -1.30958705447226       -0.59955948735977       -1.62293898355648
C           -0.76634980226344       -1.20753371730139       -2.73612190868382
C           -0.15461014427637       -2.44403689193493       -2.60967649259427
C           -0.07748825941501       -3.05614533693157       -1.37083945538768
C           -0.61678880197898       -2.46438314734028       -0.23761647771475
C           -0.66527502529180       -3.19334949409273        1.08122500210862
C            0.49046352140160       -4.16980225528575        1.29017614023275
C           -1.99630511103514       -3.94665295248406        1.18409381285866
C           -3.12934327701710        0.81714084676798        0.26623971771518
C           -2.79974238782938        2.14729861814126        0.51071152872888
C           -3.58545650049745        3.17212542792141        0.01881671500739
C           -4.71881172281100        2.87642472750062       -0.71861751176682
C           -5.06139613870571        1.55665105750517       -0.95213970317766
C           -4.28736737303700        0.51360527479799       -0.46281944186998
C           -4.70525613743471       -0.91654944542996       -0.69946608520532
C           -4.80604753732737       -1.24295998025626       -2.18889433518539
C           -6.02414903654012       -1.20799579857620        0.01805638366555
H            1.15728117058325        2.86111494380435       -3.49638251333644
H           -0.37682041979052        1.98420097730915       -3.45658408130940
H            1.11581268848449        1.18294445641537       -2.94916274797425
H           -0.19971095896475        1.81393907534003       -0.96698227559000
H           -0.10807492445751        4.62007370927090       -2.17903607390116
H           -1.52377077311193        3.63200216908090       -1.83676570104175
H           -0.56977671060708        4.28883771745632       -0.50440875626381
H            1.94570747225224        4.81745539272533       -1.33116687435634
H            4.14587918682484        5.00977189805293       -0.26756784943991
H            5.15257704754959        3.04442359195880        0.85577405496139
H            3.95594004002736        0.90880503567107        0.89868708968571
H            1.96641531379128       -1.21346424135507        2.66555620077580
H            3.71665340551648       -2.83786304854233        3.23670852209755
H            5.24561422233764       -3.66755739641081        1.47154178383196
H            4.98317337732990       -2.89072875021287       -0.83391813904967
H            2.22406178430513       -0.62759906639420       -1.92505112578000
H            4.27811308585541        0.73310318196411       -1.67041565641472
H            4.18301599099106        0.09781512208687       -3.31360620358082
H            5.27820713804182       -0.64182133914155       -2.14180086071236
H            2.53531896543462       -3.12597740543115       -2.42273822766634
H            2.82143992478616       -2.03040695101854       -3.78002486321303
H            4.18318221853884       -2.74533113586029       -2.92765142458193
H            2.22271964366327        1.38434581768116        2.55676980873430
H            1.24102744332522        2.19498051798046        4.63651339404449
H           -1.17370137022232        1.82882523119341        5.11530193301124
H           -2.55917058222221        0.61727187355967        3.46174336352988
H           -1.81706620165035        0.34899422426264       -1.72502054866701
H           -0.83776313581107       -0.73171502989041       -3.70333675953852
H            0.24345904792764       -2.94029262332482       -3.48237898416304
H            0.38490828101379       -4.02844534567402       -1.29445236702048
H           -0.63323867551862       -2.44019695638845        1.88023120189077
H            1.44222876780983       -3.71074564579431        1.03771122998418
H            0.52490052191409       -4.47826712305497        2.33263817578876
H            0.35892084976962       -5.06352105716184        0.68384550094364
H           -2.09124319496041       -4.65616331892789        0.36417357853164
H           -2.04631024803991       -4.49016974549585        2.12459378211424
H           -2.83586095721647       -3.25529895169494        1.14184003802259
H           -1.91804176279469        2.38119500714983        1.09039725716996
H           -3.31561693592857        4.19969366892366        0.21447974954609
H           -5.33951887396552        3.67183441666752       -1.10503523447998
H           -5.95453527806843        1.33709934797314       -1.51903454991445
H           -3.93516185382788       -1.56992353944890       -0.26759901855068
H           -5.57082058614645       -0.63850108455828       -2.67053014924209
H           -3.85474325610077       -1.05843621987991       -2.68320082280960
H           -5.06415039902263       -2.29129380214032       -2.32331870062904
H           -6.29462148464980       -2.25494735556011       -0.10133492366444
H           -5.92817371260407       -0.99357139839203        1.08042273604837
H           -6.82817407391958       -0.59644020572926       -0.38439536510820

 projected vibrational frequencies (cm⁻¹)
eigval :       -0.00    -0.00     0.00     0.00     0.00     0.00
eigval :       16.12    20.09    32.09    33.38    36.51    41.57
eigval :       46.47    49.46    53.74    58.19    60.04    67.69
eigval :       74.12    77.07    89.41   100.34   105.76   114.52
eigval :      116.68   123.03   131.85   133.57   134.20   142.07
eigval :      150.68   158.67   167.27   179.59   189.85   199.88
eigval :      201.15   204.11   209.69   213.29   220.03   231.33
eigval :      242.30   245.05   252.14   254.28   257.44   271.06
eigval :      275.33   284.46   298.95   301.52   315.76   317.04
eigval :      324.34   334.99   348.68   350.48   353.72   370.14
eigval :      385.16   386.69   397.01   403.07   408.39   416.86
eigval :      439.69   451.32   458.05   476.66   480.39   486.26
eigval :      491.55   492.82   513.31   515.87   520.01   523.68
eigval :      557.92   559.42   562.65   564.06   592.47   626.10
eigval :      641.93   655.43   660.79   666.65   669.17   672.61
eigval :      681.65   689.11   720.36   729.58   753.71   761.43
eigval :      762.23   763.94   766.02   769.36   776.77   778.30
eigval :      824.86   859.91   875.83   883.35   883.93   886.60
eigval :      889.55   893.54   909.78   914.36   916.66   918.77
eigval :      918.91   929.24   929.81   935.89   936.93   938.54
eigval :      938.77   940.48   942.74   944.00   944.71   979.83
eigval :      985.13   986.15   986.22   987.21   993.34  1006.20
eigval :     1020.49  1022.36  1040.64  1069.88  1069.94  1071.21
eigval :     1073.00  1077.25  1098.14  1102.60  1104.25  1107.29
eigval :     1108.08  1122.70  1123.33  1129.87  1134.85  1136.03
eigval :     1137.51  1140.32  1141.46  1164.03  1170.00  1172.33
eigval :     1172.82  1176.33  1179.06  1180.88  1185.15  1185.83
eigval :     1203.49  1208.27  1215.78  1218.57  1220.54  1260.31
eigval :     1260.73  1262.29  1262.86  1276.29  1283.98  1284.87
eigval :     1292.01  1299.19  1299.56  1306.69  1308.62  1320.80
eigval :     1331.72  1333.60  1334.49  1335.90  1346.27  1377.99
eigval :     1395.01  1398.38  1400.21  1402.35  1402.93  1408.28
eigval :     1411.94  1416.16  1416.81  1418.11  1419.71  1423.94
eigval :     1427.78  1437.57  1438.32  1447.74  1450.42  1487.85
eigval :     1489.56  1491.28  1491.68  1491.89  1492.34  1494.76
eigval :     1495.00  1495.90  1502.00  1503.73  1504.04  1505.12
eigval :     1505.39  1508.03  1509.45  1513.21  1528.40  1535.22
eigval :     1539.14  1548.70  1562.63  1564.40  1566.68  1581.42
eigval :     2825.21  2857.16  2889.79  2891.33  3018.26  3021.96
eigval :     3023.54  3024.93  3025.29  3025.60  3026.04  3026.84
eigval :     3028.44  3029.70  3029.99  3030.36  3030.89  3033.90
eigval :     3033.93  3034.16  3035.27  3038.39  3038.62  3038.81
eigval :     3039.69  3040.89  3052.82  3054.27  3054.84  3057.16
eigval :     3059.73  3068.73  3069.45  3070.46  3070.65  3072.09
eigval :     3073.37  3077.61  3078.54  3079.64  3084.67  3085.78
eigval :     3085.87  3087.58  3093.44  3095.16  3095.73  3096.23

   temp. (K)  partition function   enthalpy   heat capacity  entropy
                                   cal/mol     cal/K/mol   cal/K/mol   J/K/mol
 298.15  VIB  0.160E+21            27334.660    165.229    171.179
         ROT  0.406E+08              888.752      2.981     37.798
         INT  0.650E+28            28223.412    168.210    208.976
         TR   0.147E+29             1481.254      4.968     45.111
         TOT                       29704.6661   173.1782   254.0874  1063.1017

       T/K    H(0)-H(T)+PV         H(T)/Eh          T*S/Eh         G(T)/Eh
   ------------------------------------------------------------------------
    298.15    0.473374E-01    0.809110E+00    0.120725E+00    0.688385E+00
   ------------------------------------------------------------------------

         :::::::::::::::::::::::::::::::::::::::::::::::::::::
         ::                  THERMODYNAMIC                  ::
         :::::::::::::::::::::::::::::::::::::::::::::::::::::
         :: total free energy        -118.670580178894 Eh   ::
         ::.................................................::
         :: total energy             -119.358965131162 Eh   ::
         :: zero point energy           0.761772675941 Eh   ::
         :: G(RRHO) w/o ZPVE           -0.073387723673 Eh   ::
         :: G(RRHO) contrib.            0.688384952268 Eh   ::
         :::::::::::::::::::::::::::::::::::::::::::::::::::::

           -------------------------------------------------
          | TOTAL ENERGY             -119.358965131162 Eh   |
          | TOTAL ENTHALPY           -118.549855056680 Eh   |
          | TOTAL FREE ENERGY        -118.670580178894 Eh   |
          | GRADIENT NORM               0.000031504491 Eh/α |
           -------------------------------------------------

 * finished run on 2025/09/12 at 22:02:59.507
