   * xtb version 6.7.1 (edcfbbe) compiled by 'albert@albert-system' on 2024-07-22

   ID    Z sym.   atoms
    1    6 C      1-9, 11-25, 27-44
    2   15 P      10, 26
    3    1 H      45-92

          program call               : xtb data2507/gas/LiPr/LiPr_gas_S0_crest.xyz --gfn 2 --ohess vtight --parallel 40 --molden --ceasefiles --namespace data2507/gas/LiPr/LiPr_gas_S0_finalOpt
          :  Hamiltonian                  GFN2-xTB          :
 * total energy  :  -119.4567847 Eh     change       -0.3795876E-08 Eh
 * total energy  :  -119.4567855 Eh     change       -0.8598013E-06 Eh
 * total energy  :  -119.4567864 Eh     change       -0.8867781E-06 Eh
 * total energy  :  -119.4567884 Eh     change       -0.1981062E-05 Eh
 * total energy  :  -119.4567897 Eh     change       -0.1281896E-05 Eh
 * total energy  :  -119.4567906 Eh     change       -0.8746703E-06 Eh
 * total energy  :  -119.4567915 Eh     change       -0.9506240E-06 Eh
 * total energy  :  -119.4567924 Eh     change       -0.9289664E-06 Eh
 * total energy  :  -119.4567931 Eh     change       -0.6214452E-06 Eh
 * total energy  :  -119.4567936 Eh     change       -0.5080302E-06 Eh
 * total energy  :  -119.4567957 Eh     change       -0.4972402E-06 Eh
 * total energy  :  -119.4567961 Eh     change       -0.3936793E-06 Eh
 * total energy  :  -119.4567965 Eh     change       -0.3466993E-06 Eh
 * total energy  :  -119.4567968 Eh     change       -0.3652344E-06 Eh
 * total energy  :  -119.4567971 Eh     change       -0.2953734E-06 Eh
 * total energy  :  -119.4567974 Eh     change       -0.2269561E-06 Eh
 * total energy  :  -119.4567975 Eh     change       -0.1566943E-06 Eh
 * total energy  :  -119.4567976 Eh     change       -0.1391351E-06 Eh
 * total energy  :  -119.4567977 Eh     change       -0.1462396E-08 Eh
   *** GEOMETRY OPTIMIZATION CONVERGED AFTER 22 ITERATIONS ***

 final structure:
================
92
 xtb: 6.7.1 (edcfbbe)
C            0.43015169005237        2.49133990527041       -2.95949769830471
C            0.41987513793136        2.77871294358878       -1.45787996725840
C           -0.33714873345637        4.06886861780818       -1.14967017716223
C            1.83307480479211        2.80000120608977       -0.93239310763201
C            2.66108807749325        3.88709204932413       -1.18085980355168
C            3.96014565429658        3.92315051700290       -0.70882365828467
C            4.45425298626502        2.85858133429875        0.02383114058555
C            3.65021554304101        1.75981218925511        0.26372204170032
C            2.34114396726499        1.71637700542843       -0.20927821662112
P            1.25327340685372        0.24561922371250        0.03876626268921
C            2.48552818715910       -0.94942077361288        0.69325193319701
C            2.47377109429105       -1.36100319421500        2.02317736809099
C            3.37852850558866       -2.29822866911484        2.48540285501491
C            4.30656881313295       -2.84285302121932        1.61632264571659
C            4.30392991057364       -2.46358987678908        0.28594420407475
C            3.39572904049009       -1.53250441187836       -0.20066514486138
C            3.39610485342562       -1.18084494069663       -1.66829992882999
C            4.70118524588286       -0.50478521028700       -2.08964121392617
C            3.14147206791139       -2.42498341001839       -2.52032168247261
C            0.44965320932472        0.79260192948340        1.60632992295183
C            1.15607173393271        1.59941220003787        2.50029244324897
C            0.58959836623940        2.04948731708615        3.67559668003836
C           -0.71181030872619        1.69160663358160        3.99352606994293
C           -1.41875961757409        0.89076608492949        3.12325149696834
C           -0.86801521332331        0.45014531965351        1.91516951564509
P           -2.07884369354386       -0.61907177797193        1.03537700183529
C           -1.32509369744670       -1.18104283097907       -0.54506771810141
C           -1.50731738157629       -0.47156455068436       -1.72884249868256
C           -1.08596894828350       -0.99481965262662       -2.93598453668713
C           -0.52081279126135       -2.25654677790086       -2.97548598241090
C           -0.35906862436224       -2.97724452982828       -1.80491978280686
C           -0.73900627616315       -2.45362963926305       -0.57801687892829
C           -0.57219563030572       -3.24407813812803        0.69699635711935
C            0.67057759237555       -4.13207397473471        0.70316123019636
C           -1.82373863924523       -4.09059477055103        0.94172071773354
C           -3.20351160953952        0.68570038069496        0.38473945673840
C           -2.91085966598870        2.04251163865138        0.49174423071058
C           -3.80265292741801        2.99823370685529        0.04244337448399
C           -5.00368428958711        2.60729472088859       -0.52183934114122
C           -5.30290416257829        1.26155285376920       -0.62999276424405
C           -4.42151326453755        0.28715771419406       -0.18129879769749
C           -4.78268896984694       -1.17106865378863       -0.31079563612700
C           -4.94009812068654       -1.57602394661299       -1.77615976758913
C           -6.04412154631811       -1.49459593935303        0.49026458315279
H            0.98975967180367        3.25714688220053       -3.49275337803713
H           -0.58624455939236        2.47016525558496       -3.34653163954764
H            0.89468193139044        1.52600510445444       -3.15109606368993
H           -0.10990886578942        1.95468169589810       -0.96126247917387
H            0.06366711542844        4.90743509293117       -1.71395914242256
H           -1.38577363284687        3.95297638348999       -1.41528350664015
H           -0.27165040869448        4.30377347074377       -0.08889949824646
H            2.28685018002166        4.72313546564145       -1.75291226382118
H            4.58504873186619        4.78113079976766       -0.91009673366534
H            5.46518256070526        2.87972078242768        0.40545443897381
H            4.04447281271641        0.92803515883138        0.83182841238246
H            1.75117764811769       -0.94411117988830        2.70974000103996
H            3.35857672865771       -2.59936225943353        3.52275724980066
H            5.02480062218476       -3.56830874178095        1.96969697169199
H            5.02291356908683       -2.90707241483854       -0.38751240836854
H            2.57060116914657       -0.47802361289815       -1.84802597000309
H            4.85644055299905        0.41465864981990       -1.53054958937495
H            4.66718119520794       -0.25936502291885       -3.14906844769680
H            5.54987498014999       -1.16279938166124       -1.91702151100313
H            2.21990336902142       -2.90882566854717       -2.20889424733274
H            3.04817202644982       -2.14641552960017       -3.56776642641761
H            3.95863740442728       -3.13635260533539       -2.42707480207440
H            2.17432522341664        1.87675143272380        2.26820343147882
H            1.16401380467051        2.67294253149043        4.34541646738617
H           -1.16430782144772        2.03021488162985        4.91415462993393
H           -2.43481402605802        0.59726000620589        3.36105457312722
H           -1.97576568960206        0.50179149685152       -1.70545064190047
H           -1.21614338568294       -0.42632185934807       -3.84560678507655
H           -0.20998520781453       -2.68395630296033       -3.91796678168564
H            0.06045652608861       -3.97107613136312       -1.85413169272607
H           -0.47427114016399       -2.52204493753118        1.52007228412602
H            1.54522537237036       -3.57774496060404        0.37323829093477
H            0.85799610713931       -4.49520107025879        1.71136990342923
H            0.53716871409263       -4.99684042752834        0.05695763618056
H           -1.99580378366820       -4.76080672506021        0.10175591215003
H           -1.70604026324214       -4.68481303966136        1.84505697920058
H           -2.69861789725713       -3.45427931274738        1.06003945916024
H           -1.97506303340234        2.36021493385414        0.92759352209036
H           -3.55863131715054        4.04690093017118        0.13516018271303
H           -5.70613037182121        3.34788989532690       -0.87592601041491
H           -6.24362931011615        0.96547344226100       -1.07096563780255
H           -3.95652215744622       -1.76031279145633        0.10881614528422
H           -5.75366167635096       -1.02830765282014       -2.24593425988687
H           -4.02229874377342       -1.37298798913090       -2.32402306127152
H           -5.15545409353547       -2.63995438064100       -1.84838412321168
H           -6.25235825341303       -2.56150830178950        0.44721851970486
H           -5.91205661352913       -1.20922994904699        1.53180613259631
H           -6.90507383531190       -0.96136897270612        0.09445059339542

          :  Hamiltonian                  GFN2-xTB          :
         :: gradient norm              0.000028018657 Eh/a0 ::
         :: HOMO-LUMO gap              2.889243473735 eV    ::
         :: SCC energy              -121.544181220384 Eh    ::
         :: -> dispersion             -0.141493822194 Eh    ::
         :: repulsion energy           2.087383569212 Eh    ::

    * Orbital Energies and Occupations

         #    Occupation            Energy/Eh            Energy/eV
      -------------------------------------------------------------
         1        2.0000           -0.6612746             -17.9942
       ...           ...                  ...                  ...
       101        2.0000           -0.4054560             -11.0330
       102        2.0000           -0.4034642             -10.9788
       103        2.0000           -0.4022736             -10.9464
       104        2.0000           -0.3974077             -10.8140
       105        2.0000           -0.3969053             -10.8003
       106        2.0000           -0.3946089             -10.7379
       107        2.0000           -0.3933008             -10.7023
       108        2.0000           -0.3923390             -10.6761
       109        2.0000           -0.3910524             -10.6411
       110        2.0000           -0.3889766             -10.5846
       111        2.0000           -0.3881623             -10.5624
       112        2.0000           -0.3566610              -9.7052
       113        2.0000           -0.3483190              -9.4782 (HOMO)
       114                         -0.2421413              -6.5890 (LUMO)
       115                         -0.2359095              -6.4194
       116                         -0.2332125              -6.3460
       117                         -0.2294227              -6.2429
       118                         -0.2230216              -6.0687
       119                         -0.2223703              -6.0510
       120                         -0.2192724              -5.9667
       121                         -0.2182112              -5.9378
       122                         -0.2173454              -5.9143
       123                         -0.2145581              -5.8384
       124                         -0.1489254              -4.0525
       ...                                ...                  ...
       234                          1.1360992              30.9148
      -------------------------------------------------------------
                  HL-Gap            0.1061778 Eh            2.8892 eV

     #   Z          covCN         q      C6AA      α(0)
     1   6 C        3.757    -0.097    22.397     6.748
     2   6 C        3.860    -0.011    20.732     6.475
     3   6 C        3.755    -0.097    22.415     6.751
     4   6 C        3.047     0.009    27.764     8.642
     5   6 C        2.924    -0.036    28.894     8.815
     6   6 C        2.918    -0.032    28.805     8.801
     7   6 C        2.918    -0.036    28.901     8.816
     8   6 C        2.967    -0.029    28.731     8.792
     9   6 C        2.919     0.013    27.734     8.636
    10  15 P        3.174    -0.181   168.517    23.319
    11   6 C        2.918     0.017    27.627     8.619
    12   6 C        2.974    -0.028    28.693     8.787
    13   6 C        2.918    -0.034    28.842     8.807
    14   6 C        2.918    -0.033    28.813     8.802
    15   6 C        2.925    -0.036    28.903     8.817
    16   6 C        3.044     0.009    27.770     8.643
    17   6 C        3.858    -0.009    20.702     6.471
    18   6 C        3.755    -0.100    22.460     6.757
    19   6 C        3.757    -0.102    22.493     6.762
    20   6 C        2.930     0.023    27.494     8.599
    21   6 C        2.985    -0.028    28.683     8.785
    22   6 C        2.919    -0.032    28.794     8.799
    23   6 C        2.916    -0.030    28.747     8.792
    24   6 C        3.110    -0.027    28.513     8.748
    25   6 C        2.965     0.026    27.423     8.590
    26  15 P        3.266    -0.192   169.059    23.357
    27   6 C        2.930     0.028    27.370     8.580
    28   6 C        2.975    -0.023    28.581     8.769
    29   6 C        2.918    -0.032    28.807     8.801
    30   6 C        2.919    -0.030    28.740     8.791
    31   6 C        2.924    -0.035    28.862     8.810
    32   6 C        3.049     0.014    27.662     8.626
    33   6 C        3.860    -0.007    20.667     6.465
    34   6 C        3.755    -0.100    22.457     6.757
    35   6 C        3.758    -0.098    22.432     6.753
    36   6 C        2.918     0.018    27.600     8.615
    37   6 C        2.969    -0.029    28.725     8.791
    38   6 C        2.919    -0.035    28.875     8.812
    39   6 C        2.918    -0.033    28.817     8.803
    40   6 C        2.925    -0.035    28.881     8.813
    41   6 C        3.048     0.010    27.754     8.640
    42   6 C        3.859    -0.011    20.731     6.475
    43   6 C        3.755    -0.100    22.463     6.758
    44   6 C        3.756    -0.101    22.476     6.760
    45   1 H        0.925     0.035     2.517     2.481
    46   1 H        0.925     0.036     2.501     2.473
    47   1 H        0.925     0.037     2.485     2.465
    48   1 H        0.926     0.058     2.222     2.331
    49   1 H        0.925     0.036     2.509     2.477
    50   1 H        0.925     0.036     2.498     2.471
    51   1 H        0.925     0.030     2.590     2.517
    52   1 H        0.926     0.031     2.572     2.508
    53   1 H        0.926     0.026     2.637     2.539
    54   1 H        0.926     0.025     2.663     2.552
    55   1 H        0.925     0.033     2.551     2.498
    56   1 H        0.926     0.032     2.554     2.499
    57   1 H        0.926     0.026     2.644     2.543
    58   1 H        0.926     0.026     2.641     2.541
    59   1 H        0.926     0.029     2.598     2.521
    60   1 H        0.925     0.049     2.327     2.385
    61   1 H        0.925     0.034     2.525     2.485
    62   1 H        0.925     0.034     2.533     2.489
    63   1 H        0.925     0.036     2.501     2.473
    64   1 H        0.925     0.039     2.460     2.453
    65   1 H        0.925     0.034     2.536     2.491
    66   1 H        0.925     0.036     2.502     2.474
    67   1 H        0.926     0.040     2.454     2.450
    68   1 H        0.926     0.028     2.620     2.531
    69   1 H        0.926     0.029     2.598     2.521
    70   1 H        0.925     0.040     2.445     2.445
    71   1 H        0.926     0.037     2.493     2.469
    72   1 H        0.926     0.027     2.634     2.538
    73   1 H        0.926     0.027     2.632     2.537
    74   1 H        0.926     0.031     2.575     2.509
    75   1 H        0.923     0.049     2.329     2.387
    76   1 H        0.925     0.036     2.507     2.476
    77   1 H        0.925     0.032     2.563     2.504
    78   1 H        0.925     0.035     2.518     2.482
    79   1 H        0.925     0.035     2.522     2.484
    80   1 H        0.925     0.038     2.472     2.459
    81   1 H        0.925     0.044     2.392     2.419
    82   1 H        0.926     0.035     2.518     2.482
    83   1 H        0.926     0.026     2.647     2.544
    84   1 H        0.926     0.026     2.644     2.543
    85   1 H        0.926     0.030     2.588     2.515
    86   1 H        0.926     0.054     2.274     2.358
    87   1 H        0.925     0.037     2.492     2.468
    88   1 H        0.925     0.034     2.525     2.485
    89   1 H        0.925     0.035     2.517     2.481
    90   1 H        0.925     0.036     2.500     2.473
    91   1 H        0.925     0.035     2.510     2.478
    92   1 H        0.925     0.037     2.486     2.465

molecular dipole:
                 x           y           z       tot (Debye)
 q only:       -0.204      -0.233      -0.404
   full:        0.171       0.175      -0.270       0.925

 projected vibrational frequencies (cm⁻¹)
eigval :       -0.00    -0.00    -0.00    -0.00     0.00     0.00
eigval :       12.74    20.55    26.87    34.38    35.90    40.69
eigval :       44.02    44.22    48.26    56.18    57.45    57.73
eigval :       66.59    75.43    87.02    93.33    98.49   111.45
eigval :      116.01   123.68   128.83   130.59   132.94   152.33
eigval :      161.09   162.39   180.39   183.20   194.97   197.03
eigval :      204.60   205.82   210.11   212.52   214.39   216.49
eigval :      236.08   241.52   246.16   253.65   254.95   259.35
eigval :      275.29   286.40   302.85   314.26   317.51   319.66
eigval :      327.47   334.51   342.09   346.54   377.42   391.71
eigval :      399.07   405.75   411.75   433.46   440.95   457.54
eigval :      459.98   469.08   475.18   484.68   492.26   495.16
eigval :      502.29   510.85   521.99   523.57   526.53   527.56
eigval :      563.18   563.63   563.65   564.01   629.74   662.80
eigval :      664.57   667.15   673.64   677.87   691.70   693.21
eigval :      693.71   695.32   718.73   763.22   763.61   766.20
eigval :      766.99   767.46   775.06   778.46   778.99   780.43
eigval :      876.31   880.20   883.41   886.39   888.34   913.77
eigval :      915.12   917.48   918.03   920.70   927.60   928.13
eigval :      930.23   930.72   932.96   936.05   938.87   939.25
eigval :      940.60   941.66   944.60   944.76   945.62   986.15
eigval :      986.31   986.77   989.27   998.96  1023.15  1024.56
eigval :     1024.94  1026.67  1070.07  1071.45  1073.04  1073.69
eigval :     1095.16  1109.27  1110.01  1110.75  1111.36  1124.02
eigval :     1131.56  1134.48  1137.23  1138.43  1142.39  1142.83
eigval :     1144.81  1145.67  1151.81  1174.42  1176.38  1177.34
eigval :     1177.85  1181.50  1185.91  1186.24  1186.34  1186.54
eigval :     1221.68  1222.38  1223.90  1224.50  1241.70  1263.66
eigval :     1264.39  1265.10  1265.22  1284.48  1288.90  1290.15
eigval :     1290.96  1298.10  1298.92  1302.39  1305.79  1306.25
eigval :     1330.96  1333.56  1333.73  1335.11  1391.89  1399.78
eigval :     1403.13  1403.19  1403.60  1415.02  1416.88  1417.33
eigval :     1417.69  1424.49  1425.01  1426.00  1426.56  1434.03
eigval :     1451.45  1451.77  1452.92  1455.04  1489.47  1491.01
eigval :     1492.66  1492.88  1493.08  1495.41  1496.08  1496.93
eigval :     1501.45  1502.48  1504.76  1505.63  1505.90  1507.50
eigval :     1509.11  1512.84  1551.95  1569.25  1570.49  1570.85
eigval :     1572.09  1575.13  1585.80  1586.29  1586.76  1587.23
eigval :     2879.52  2884.59  2892.84  2894.16  3021.39  3023.80
eigval :     3024.37  3025.67  3025.95  3026.60  3027.78  3027.95
eigval :     3029.74  3029.86  3030.48  3031.03  3031.42  3031.51
eigval :     3031.59  3033.04  3034.78  3036.48  3038.06  3038.78
eigval :     3038.96  3040.40  3045.97  3053.88  3056.89  3062.59
eigval :     3067.51  3067.72  3069.23  3070.53  3071.25  3074.01
eigval :     3074.08  3074.56  3078.90  3079.77  3081.71  3082.64
eigval :     3083.68  3086.98  3088.30  3088.68  3088.92  3089.53

   temp. (K)  partition function   enthalpy   heat capacity  entropy
                                   cal/mol     cal/K/mol   cal/K/mol   J/K/mol
 298.15  VIB  0.327E+21            27082.941    162.471    170.307
         ROT  0.416E+08              888.752      2.981     37.843
         INT  0.136E+29            27971.693    165.452    208.150
         TR   0.147E+29             1481.254      4.968     45.111
         TOT                       29452.9474   170.4205   253.2609  1059.6437

       T/K    H(0)-H(T)+PV         H(T)/Eh          T*S/Eh         G(T)/Eh
   ------------------------------------------------------------------------
    298.15    0.469363E-01    0.813025E+00    0.120332E+00    0.692692E+00
   ------------------------------------------------------------------------

         :::::::::::::::::::::::::::::::::::::::::::::::::::::
         ::                  THERMODYNAMIC                  ::
         :::::::::::::::::::::::::::::::::::::::::::::::::::::
         :: total free energy        -118.764105391841 Eh   ::
         ::.................................................::
         :: total energy             -119.456797651170 Eh   ::
         :: zero point energy           0.766088438082 Eh   ::
         :: G(RRHO) w/o ZPVE           -0.073396178752 Eh   ::
         :: G(RRHO) contrib.            0.692692259329 Eh   ::
         :::::::::::::::::::::::::::::::::::::::::::::::::::::

           -------------------------------------------------
          | TOTAL ENERGY             -119.456797651170 Eh   |
          | TOTAL ENTHALPY           -118.643772953751 Eh   |
          | TOTAL FREE ENERGY        -118.764105391841 Eh   |
          | GRADIENT NORM               0.000028020028 Eh/α |
          | HOMO-LUMO GAP               2.889243713030 eV   |
           -------------------------------------------------

 * finished run on 2025/09/12 at 22:02:42.243
