   * xtb version 6.7.1 (edcfbbe) compiled by 'albert@albert-system' on 2024-07-22

   ID    Z sym.   atoms
    1    6 C      1-6, 8-13, 15-19, 22-26, 28-33, 35-42, 44, 45
    2    8 O      7, 34, 43
    3    7 N      14, 20, 21, 27
    4    1 H      46-69

          program call               : xtb data2507/toluene/2PXZ-OXD/2PXZ-OXD.xyz --gfn 2 --gbsa toluene --ohess vtight --parallel 40 --molden --ceasefiles --namespace data2507/toluene/2PXZ-OXD/2PXZ-OXD_toluene_S0_preOpt
      * Solvation model:               GBSA
        Solvent                        toluene
        Solvent mass                       9.2140E+01 g/mol
          :  Hamiltonian                  GFN2-xTB          :
 * total energy  :  -117.5823949 Eh     change       -0.6460567E-08 Eh
 * total energy  :  -117.5940307 Eh     change       -0.1163583E-01 Eh
 * total energy  :  -117.5977791 Eh     change       -0.3748428E-02 Eh
 * total energy  :  -117.5990447 Eh     change       -0.1265582E-02 Eh
 * total energy  :  -117.5997909 Eh     change       -0.7462176E-03 Eh
 * total energy  :  -117.6001398 Eh     change       -0.3488746E-03 Eh
 * total energy  :  -117.6003022 Eh     change       -0.1624299E-03 Eh
 * total energy  :  -117.6003709 Eh     change       -0.6868224E-04 Eh
 * total energy  :  -117.6004096 Eh     change       -0.3869588E-04 Eh
 * total energy  :  -117.6004254 Eh     change       -0.1578967E-04 Eh
 * total energy  :  -117.6027541 Eh     change       -0.2174064E-05 Eh
 * total energy  :  -117.6027561 Eh     change       -0.1917684E-05 Eh
 * total energy  :  -117.6027576 Eh     change       -0.1556311E-05 Eh
 * total energy  :  -117.6027589 Eh     change       -0.1298857E-05 Eh
 * total energy  :  -117.6027601 Eh     change       -0.1205770E-05 Eh
 * total energy  :  -117.6027614 Eh     change       -0.1271698E-05 Eh
 * total energy  :  -117.6027628 Eh     change       -0.1382197E-05 Eh
 * total energy  :  -117.6027640 Eh     change       -0.1267535E-05 Eh
 * total energy  :  -117.6027640 Eh     change       -0.5449976E-08 Eh
   *** GEOMETRY OPTIMIZATION CONVERGED AFTER 94 ITERATIONS ***

 final structure:
================
69
 xtb: 6.7.1 (edcfbbe)
C           -8.03617873627205       -3.70817825686478       -1.27147045569089
C           -6.74847874483523       -3.66427837463431       -0.77586973356310
C           -6.18737767730385       -2.45752696840076       -0.38584418604365
C           -6.90127532731296       -1.27004113335878       -0.49499827025721
C           -8.22043274938778       -1.33199126228147       -0.96384919791488
C           -8.77508001660993       -2.53708472926713       -1.35465961531503
O           -9.02965381337096       -0.22311387961887       -1.04160473469496
C           -8.49171382799888        0.98102225922415       -0.65196833716458
C           -9.31152695934196        2.09060636330403       -0.74932658292352
C           -8.83229616954982        3.34757068217457       -0.41090383666720
C           -7.52308017005398        3.48531055444274        0.00468225724184
C           -6.69841381455953        2.37503054546513        0.10592604785209
C           -7.17290061954236        1.10375383794893       -0.19462193445697
N           -6.36703948155119       -0.03696506597559       -0.10665161020755
C           -5.03890260628392        0.05980680303086        0.35230506931082
C           -4.77412981101075        0.50829233660918        1.64741341806120
C           -3.47480187768693        0.61937296666797        2.09256883586007
C           -2.41485483351781        0.28222203783656        1.24754722287848
C           -1.05840979345200        0.43025841384425        1.71401171598166
N           -0.67237442962480        0.86760645281799        2.87933475506884
N            0.66819278114821        0.87160473578593        2.88088333733299
C            1.05953529565956        0.43596361998199        1.71682885853067
C            2.41804625270984        0.29024678844737        1.25511492159294
C            2.68812623915115       -0.22102922918864       -0.01534689708669
C            3.99116192828442       -0.33417916593756       -0.45237598656572
C            5.04441791065714        0.06257227932925        0.37044357142519
N            6.37370165104233       -0.04065946652959       -0.08574213694861
C            7.15880403511354        1.10439418533566       -0.25838004102814
C            6.67508118074834        2.38341203426181       -0.01040658231571
C            7.47871187244600        3.49758453568083       -0.20019273786508
C            8.77523108263903        3.35524148601341       -0.65217735411995
C            9.26370067505537        2.08792629054716       -0.93456592526627
C            8.46547629849275        0.97421936004708       -0.74781286455751
O            9.01225295925772       -0.24305298979916       -1.08146802452696
C            8.22823244769893       -1.35863982500695       -0.90414200825751
C            8.79477196408664       -2.57830727654555       -1.22635084010071
C            8.07928028374104       -3.75282241057609       -1.04406474354090
C            6.80308656060477       -3.69664670362525       -0.52070703093672
C            6.23017788622032       -2.47550255365028       -0.19855006381811
C            6.92058970479920       -1.28728768996722       -0.40572271888994
C            4.77407098409963        0.56594115744086        1.64355870002367
C            3.47299355153124        0.67838850373886        2.08410776065230
O            0.00240798393979        0.13323550109201        0.92394014293537
C           -2.67893510947702       -0.17628629640963       -0.04414130602337
C           -3.98038105450011       -0.28519690072717       -0.48714069464212
H           -8.47636827225803       -4.64286143892089       -1.58119624311962
H           -6.16776473997033       -4.56924430729696       -0.68367494715007
H           -5.18702186358129       -2.44184146267153        0.01678399429777
H           -9.79135481630027       -2.53697208814220       -1.71644653385710
H          -10.32215278434131        1.94876500383290       -1.09893245247931
H           -9.48021818299940        4.20654318966720       -0.48676996678367
H           -7.12719911498780        4.45861169003926        0.25084533701606
H           -5.67316291770952        2.50206609245120        0.41514264194209
H           -5.59656416876997        0.76345791714199        2.29860554023055
H           -3.25411583090677        0.96121310728579        3.09110814402884
H            1.87240966770060       -0.51745064915312       -0.65728755188037
H            4.20323950540797       -0.72150842500565       -1.43775302180621
H            5.65882810123515        2.51313437084853        0.32626574585464
H            7.07634216910504        4.47751099354999        0.00597731685032
H            9.40635519581654        4.21762419349096       -0.79826525861544
H           10.26487211549418        1.94092228944750       -1.30838087085581
H            9.80126323699936       -2.58697575293132       -1.61440867090927
H            8.52869220528238       -4.69910181101021       -1.30082855772042
H            6.24124091911450       -4.60271618954796       -0.35316739312428
H            5.23876933172620       -2.44744441197073        0.22530319768243
H            5.59279787646931        0.86163506253615        2.28208691857708
H            3.24745868058614        1.06135957444631        3.06649104780753
H           -1.85960141335367       -0.43231437142715       -0.69874460164695
H           -4.18655480565108       -0.62720812934230       -1.49036397767116

          :  Hamiltonian                  GFN2-xTB          :
         :: gradient norm              0.000059051163 Eh/a0 ::
         :: HOMO-LUMO gap              1.500658364645 eV    ::
         :: SCC energy              -119.547573548258 Eh    ::
         :: -> dispersion             -0.092269961187 Eh    ::
         :: -> Gsolv                  -0.048998395234 Eh    ::
         :: repulsion energy           1.944809501263 Eh    ::

    * Orbital Energies and Occupations

         #    Occupation            Energy/Eh            Energy/eV
      -------------------------------------------------------------
         1        2.0000           -0.7752164             -21.0947
       ...           ...                  ...                  ...
        95        2.0000           -0.4281593             -11.6508
        96        2.0000           -0.4253359             -11.5740
        97        2.0000           -0.4252093             -11.5705
        98        2.0000           -0.4186433             -11.3919
        99        2.0000           -0.4185265             -11.3887
       100        2.0000           -0.4156712             -11.3110
       101        2.0000           -0.4156029             -11.3091
       102        2.0000           -0.4050110             -11.0209
       103        2.0000           -0.3958075             -10.7705
       104        2.0000           -0.3935790             -10.7098
       105        2.0000           -0.3928437             -10.6898
       106        2.0000           -0.3478832              -9.4664
       107        2.0000           -0.3468940              -9.4395 (HOMO)
       108                         -0.2917458              -7.9388 (LUMO)
       109                         -0.2687669              -7.3135
       110                         -0.2465511              -6.7090
       111                         -0.2463491              -6.7035
       112                         -0.2413772              -6.5682
       113                         -0.2412219              -6.5640
       114                         -0.2327063              -6.3323
       115                         -0.2325986              -6.3293
       116                         -0.2200454              -5.9877
       117                         -0.2191081              -5.9622
       118                         -0.2045024              -5.5648
       ...                                ...                  ...
       204                          0.6707731              18.2527
      -------------------------------------------------------------
                  HL-Gap            0.0551482 Eh            1.5007 eV

     #   Z          covCN         q      C6AA      α(0)
     1   6 C        2.919    -0.040    28.998     8.831
     2   6 C        2.919    -0.039    28.962     8.825
     3   6 C        2.924    -0.060    29.499     8.907
     4   6 C        2.921     0.041    27.071     8.532
     5   6 C        2.883     0.123    25.294     8.245
     6   6 C        2.919    -0.057    29.426     8.895
     7   8 O        1.708    -0.270    18.470     5.803
     8   6 C        2.883     0.123    25.295     8.245
     9   6 C        2.920    -0.057    29.424     8.895
    10   6 C        2.919    -0.040    28.993     8.830
    11   6 C        2.919    -0.038    28.955     8.824
    12   6 C        2.924    -0.060    29.496     8.906
    13   6 C        2.921     0.041    27.074     8.533
    14   7 N        2.750    -0.068    22.556     7.054
    15   6 C        2.920     0.072    26.400     8.426
    16   6 C        2.920    -0.036    28.892     8.815
    17   6 C        2.923    -0.027    28.670     8.781
    18   6 C        2.974    -0.011    28.295     8.725
    19   6 C        3.163     0.217    23.155     7.865
    20   7 N        2.044    -0.214    26.406     7.622
    21   7 N        2.044    -0.214    26.401     7.622
    22   6 C        3.163     0.217    23.155     7.865
    23   6 C        2.974    -0.011    28.288     8.724
    24   6 C        2.922    -0.026    28.643     8.777
    25   6 C        2.920    -0.038    28.945     8.823
    26   6 C        2.920     0.072    26.396     8.425
    27   7 N        2.751    -0.069    22.569     7.056
    28   6 C        2.921     0.041    27.070     8.532
    29   6 C        2.924    -0.060    29.503     8.907
    30   6 C        2.919    -0.038    28.956     8.824
    31   6 C        2.919    -0.040    28.998     8.831
    32   6 C        2.919    -0.057    29.424     8.895
    33   6 C        2.883     0.123    25.298     8.246
    34   8 O        1.708    -0.270    18.476     5.803
    35   6 C        2.882     0.123    25.295     8.245
    36   6 C        2.919    -0.057    29.428     8.896
    37   6 C        2.919    -0.040    29.001     8.831
    38   6 C        2.919    -0.039    28.962     8.825
    39   6 C        2.924    -0.060    29.496     8.906
    40   6 C        2.921     0.042    27.070     8.532
    41   6 C        2.920    -0.036    28.888     8.814
    42   6 C        2.923    -0.027    28.669     8.781
    43   8 O        1.721    -0.231    17.829     5.701
    44   6 C        2.922    -0.026    28.645     8.777
    45   6 C        2.920    -0.038    28.954     8.824
    46   1 H        0.926     0.043     2.405     2.425
    47   1 H        0.926     0.042     2.420     2.433
    48   1 H        0.926     0.040     2.452     2.449
    49   1 H        0.926     0.049     2.331     2.387
    50   1 H        0.926     0.049     2.329     2.386
    51   1 H        0.926     0.044     2.402     2.423
    52   1 H        0.926     0.043     2.413     2.429
    53   1 H        0.926     0.040     2.444     2.445
    54   1 H        0.926     0.058     2.223     2.331
    55   1 H        0.926     0.064     2.152     2.294
    56   1 H        0.926     0.054     2.271     2.357
    57   1 H        0.926     0.055     2.260     2.351
    58   1 H        0.926     0.040     2.446     2.446
    59   1 H        0.926     0.043     2.416     2.430
    60   1 H        0.926     0.043     2.404     2.425
    61   1 H        0.926     0.049     2.331     2.387
    62   1 H        0.926     0.049     2.332     2.388
    63   1 H        0.926     0.043     2.407     2.426
    64   1 H        0.926     0.042     2.422     2.434
    65   1 H        0.926     0.039     2.460     2.453
    66   1 H        0.926     0.058     2.217     2.329
    67   1 H        0.926     0.064     2.150     2.293
    68   1 H        0.926     0.054     2.273     2.358
    69   1 H        0.926     0.055     2.256     2.349

molecular dipole:
                 x           y           z       tot (Debye)
 q only:       -0.026      -0.207      -0.577
   full:       -0.025      -0.402      -1.064       2.892

 projected vibrational frequencies (cm⁻¹)
eigval :       -0.00    -0.00    -0.00     0.00     0.00     0.00
eigval :        5.98    12.36    15.52    25.09    27.81    37.30
eigval :       43.51    50.11    60.03    65.87    69.47    93.55
eigval :      105.71   107.72   118.16   121.93   125.40   178.33
eigval :      186.67   193.62   202.95   242.86   249.16   253.21
eigval :      254.77   270.09   274.39   281.23   333.03   353.84
eigval :      368.71   371.59   373.82   376.61   388.86   399.68
eigval :      401.51   422.03   423.50   429.30   431.06   432.56
eigval :      445.30   449.02   465.75   488.81   499.01   501.56
eigval :      509.47   510.04   522.11   523.00   548.36   551.56
eigval :      586.59   586.98   590.41   602.16   608.34   609.09
eigval :      652.75   658.13   660.34   661.14   661.90   665.76
eigval :      677.10   679.77   709.11   715.24   722.91   727.76
eigval :      776.75   777.46   778.36   780.19   799.20   800.85
eigval :      820.49   825.10   853.38   853.57   861.56   862.41
eigval :      864.70   865.74   869.00   875.56   896.67   897.01
eigval :      897.81   898.03   908.18   912.45   912.92   913.88
eigval :      914.61   915.86   916.47   917.37   923.34   924.51
eigval :      930.03   933.83   970.24   973.11  1007.97  1017.63
eigval :     1081.17  1089.94  1090.30  1091.13  1091.26  1094.30
eigval :     1106.23  1106.47  1117.58  1117.68  1126.41  1127.73
eigval :     1168.83  1169.32  1173.65  1174.37  1174.98  1177.98
eigval :     1180.18  1185.60  1187.37  1198.59  1198.69  1216.71
eigval :     1219.02  1241.60  1241.71  1256.58  1258.58  1260.00
eigval :     1260.43  1273.67  1295.03  1303.71  1303.74  1312.36
eigval :     1314.09  1317.56  1322.45  1333.08  1333.34  1352.08
eigval :     1352.28  1405.20  1406.00  1422.03  1422.23  1440.06
eigval :     1440.20  1457.80  1458.22  1478.99  1479.24  1500.13
eigval :     1500.80  1530.21  1532.71  1555.30  1557.65  1566.42
eigval :     1566.80  1578.60  1578.76  1580.42  1580.78  1588.33
eigval :     1588.57  1601.13  1601.30  3087.80  3087.91  3088.57
eigval :     3089.15  3089.32  3089.40  3094.31  3095.04  3096.11
eigval :     3097.07  3097.13  3097.17  3099.03  3100.12  3104.23
eigval :     3105.37  3105.99  3106.17  3109.05  3109.87  3110.79
eigval :     3111.33  3113.65  3114.42

   temp. (K)  partition function   enthalpy   heat capacity  entropy
                                   cal/mol     cal/K/mol   cal/K/mol   J/K/mol
 298.15  VIB  0.970E+16            20002.288    127.340    124.616
         ROT  0.108E+09              888.752      2.981     39.736
         INT  0.105E+25            20891.041    130.321    164.353
         TR   0.137E+29             1481.254      4.968     44.961
         TOT                       22372.2945   135.2895   209.3137   875.7686

       T/K    H(0)-H(T)+PV         H(T)/Eh          T*S/Eh         G(T)/Eh
   ------------------------------------------------------------------------
    298.15    0.356525E-01    0.547396E+00    0.994517E-01    0.447944E+00
   ------------------------------------------------------------------------

         :::::::::::::::::::::::::::::::::::::::::::::::::::::
         ::                  THERMODYNAMIC                  ::
         :::::::::::::::::::::::::::::::::::::::::::::::::::::
         :: total free energy        -117.154820017532 Eh   ::
         ::.................................................::
         :: total energy             -117.602764048575 Eh   ::
         :: zero point energy           0.511743214935 Eh   ::
         :: G(RRHO) w/o ZPVE           -0.063799183892 Eh   ::
         :: G(RRHO) contrib.            0.447944031044 Eh   ::
         :::::::::::::::::::::::::::::::::::::::::::::::::::::

           -------------------------------------------------
          | TOTAL ENERGY             -117.602764048575 Eh   |
          | TOTAL ENTHALPY           -117.055368313005 Eh   |
          | TOTAL FREE ENERGY        -117.154820017532 Eh   |
          | GRADIENT NORM               0.000059046896 Eh/α |
          | HOMO-LUMO GAP               1.500658856078 eV   |
           -------------------------------------------------

 * finished run on 2025/07/17 at 02:02:04.606
