   * xtb version 6.7.1 (edcfbbe) compiled by 'albert@albert-system' on 2024-07-22

   ID    Z sym.   atoms
    1    6 C      1-6, 8-13, 15-19, 22-26, 28-33, 35-42, 44, 45
    2    8 O      7, 34, 43
    3    7 N      14, 20, 21, 27
    4    1 H      46-69

          program call               : xtb data2507/toluene/2PXZ-OXD/2PXZ-OXD_toluene_S0_crest.xyz --gfn 2 --gbsa toluene --ohess vtight --parallel 40 --molden --ceasefiles --namespace data2507/toluene/2PXZ-OXD/2PXZ-OXD_toluene_S0_finalOpt
      * Solvation model:               GBSA
        Solvent                        toluene
        Solvent mass                       9.2140E+01 g/mol
          :  Hamiltonian                  GFN2-xTB          :
 * total energy  :  -117.6027863 Eh     change       -0.5293316E-08 Eh
 * total energy  :  -117.6028293 Eh     change       -0.4301129E-04 Eh
 * total energy  :  -117.6028447 Eh     change       -0.1544215E-04 Eh
 * total energy  :  -117.6028489 Eh     change       -0.4152052E-05 Eh
 * total energy  :  -117.6028524 Eh     change       -0.3494694E-05 Eh
 * total energy  :  -117.6028549 Eh     change       -0.2521475E-05 Eh
 * total energy  :  -117.6028577 Eh     change       -0.2862032E-05 Eh
 * total energy  :  -117.6028609 Eh     change       -0.3201975E-05 Eh
 * total energy  :  -117.6028638 Eh     change       -0.2894552E-05 Eh
 * total energy  :  -117.6028657 Eh     change       -0.1906678E-05 Eh
 * total energy  :  -117.6028715 Eh     change       -0.1771384E-05 Eh
 * total energy  :  -117.6028732 Eh     change       -0.1740191E-05 Eh
 * total energy  :  -117.6028745 Eh     change       -0.1292428E-05 Eh
 * total energy  :  -117.6028756 Eh     change       -0.1128645E-05 Eh
 * total energy  :  -117.6028768 Eh     change       -0.1111376E-05 Eh
 * total energy  :  -117.6028777 Eh     change       -0.8958079E-06 Eh
 * total energy  :  -117.6028783 Eh     change       -0.6381358E-06 Eh
 * total energy  :  -117.6028788 Eh     change       -0.5178130E-06 Eh
 * total energy  :  -117.6028788 Eh     change       -0.5921237E-08 Eh
   *** GEOMETRY OPTIMIZATION CONVERGED AFTER 22 ITERATIONS ***

 final structure:
================
69
 xtb: 6.7.1 (edcfbbe)
C           -7.90644697328760       -4.01362362331124       -0.06281906908479
C           -6.61511889318422       -3.77061370836191        0.36039924284743
C           -6.10062434205309       -2.48300413206206        0.33987976128357
C           -6.86513254431086       -1.41609192471942       -0.11716739689556
C           -8.18643869410603       -1.66903747681138       -0.50937660461493
C           -8.69506278021566       -2.95491901734291       -0.48901873483052
O           -9.04142627172042       -0.67007024154132       -0.91134280946651
C           -8.55261835494587        0.61542033389513       -0.92021236457840
C           -9.42208821563088        1.60981639380523       -1.32984056374854
C           -8.99544416458622        2.92784475525896       -1.40060108062707
C           -7.68936573973442        3.23669019907022       -1.07738606120025
C           -6.81473907231673        2.24300117156966       -0.66421272253970
C           -7.23502236996391        0.92277158575518       -0.55526539705551
N           -6.37778572809283       -0.10521476954000       -0.14757799532466
C           -5.04666733927207        0.17250773582921        0.22069866280533
C           -4.77568114824706        0.99891616677102        1.31231569793590
C           -3.47334017830911        1.27168015831318        1.67076769695793
C           -2.41687874776641        0.72012633119245        0.94220239585380
C           -1.05829869319322        1.01322978215061        1.32642352052470
N           -0.66734088402833        1.77380960949909        2.30964484246807
N            0.67320893623706        1.76908326027225        2.31023656566704
C            1.05966948749388        1.00605050400252        1.32701685609108
C            2.41670611591344        0.70641636082840        0.94272730473024
C            2.68435385952393       -0.09991203437249       -0.16481580142701
C            3.98774462780983       -0.37246350779340       -0.52348388310564
C            5.04519408313649        0.15242871455529        0.21890971113146
N            6.37559495665784       -0.12406552826064       -0.15107951569642
C            7.24535557196102        0.91162162642444       -0.51140798524154
C            6.83581710660322        2.23804647189603       -0.57950964129655
C            7.72248711969920        3.23930689265552       -0.94587895923960
C            9.03050794277428        2.93257358404084       -1.26328128178744
C            9.44676894236367        1.60977194655033       -1.23427762847625
C            8.56512353168222        0.60784930396867       -0.87134513783309
O            9.04475114269441       -0.68053620105270       -0.90344981442936
C            8.17764670635149       -1.68706469003005       -0.54953892319051
C            8.67755100414288       -2.97639569415890       -0.57094747443396
C            7.87731638009273       -4.04448694729288       -0.19285709519596
C            6.58320358870482       -3.80778105930879        0.22544411188420
C            6.07757433869534       -2.51668643091142        0.24672267698548
C            6.85367741748050       -1.43895485851177       -0.16311413682173
C            4.77619524392142        0.95478882595735        1.32908285561316
C            3.47503319827370        1.23179624209572        1.68783786788679
O           -0.00082348603840        0.49103817431265        0.65771870006928
C           -2.68692524377147       -0.10808825244477       -0.14846457506158
C           -3.99123341342281       -0.37852033814828       -0.50517156067029
H           -8.31093730639927       -5.01347808692706       -0.05361209363047
H           -5.99534210799914       -4.57956372445670        0.71566520537100
H           -5.09647234265875       -2.30615837636939        0.69126006938641
H           -9.71532139585888       -3.10483010470470       -0.80576419108608
H          -10.42936783461134        1.32904556054039       -1.59495149057263
H           -9.68159775716967        3.69714210607182       -1.71788837455156
H           -7.33536170192874        4.25376636178621       -1.14679675923558
H           -5.79278914301132        2.49762424143718       -0.43245705291505
H           -5.59471923732924        1.41629435515558        1.87840537455989
H           -3.24747524868190        1.90251950288190        2.51553605543249
H            1.86692527871185       -0.50051845795670       -0.74508641570804
H            4.19707958179301       -0.98639527765653       -1.38675136844769
H            5.81286603114004        2.49235445772838       -0.35184284886798
H            7.37629594967286        4.26072679529802       -0.98347043219876
H            9.72599127970847        3.70761051771188       -1.54419727479886
H           10.45526481177812        1.33102529291901       -1.49687335964333
H            9.70038656049775       -3.12147861861876       -0.88157089222396
H            8.27503622158694       -5.04681660217897       -0.21604973846072
H            5.95413195677866       -4.62477034227740        0.54409850132635
H            5.07110742179519       -2.34616167842277        0.59448519558250
H            5.59625749512145        1.35070020611813        1.90888932875284
H            3.25124054521176        1.84537630781345        2.54577963782256
H           -1.87066773047922       -0.52888636999929       -0.71593703311238
H           -4.20323503098661       -1.01224987678499       -1.35334151154309

          :  Hamiltonian                  GFN2-xTB          :
         :: gradient norm              0.000056659667 Eh/a0 ::
         :: HOMO-LUMO gap              1.507723529155 eV    ::
         :: SCC energy              -119.547595438864 Eh    ::
         :: -> dispersion             -0.092281733554 Eh    ::
         :: -> Gsolv                  -0.049000953269 Eh    ::
         :: repulsion energy           1.944716622525 Eh    ::

    * Orbital Energies and Occupations

         #    Occupation            Energy/Eh            Energy/eV
      -------------------------------------------------------------
         1        2.0000           -0.7749925             -21.0886
       ...           ...                  ...                  ...
        95        2.0000           -0.4280401             -11.6476
        96        2.0000           -0.4252121             -11.5706
        97        2.0000           -0.4250702             -11.5667
        98        2.0000           -0.4186808             -11.3929
        99        2.0000           -0.4185900             -11.3904
       100        2.0000           -0.4156918             -11.3115
       101        2.0000           -0.4156294             -11.3099
       102        2.0000           -0.4049208             -11.0185
       103        2.0000           -0.3956100             -10.7651
       104        2.0000           -0.3936012             -10.7104
       105        2.0000           -0.3928241             -10.6893
       106        2.0000           -0.3479846              -9.4691
       107        2.0000           -0.3469621              -9.4413 (HOMO)
       108                         -0.2915543              -7.9336 (LUMO)
       109                         -0.2685868              -7.3086
       110                         -0.2463245              -6.7028
       111                         -0.2461762              -6.6988
       112                         -0.2414207              -6.5694
       113                         -0.2413108              -6.5664
       114                         -0.2327328              -6.3330
       115                         -0.2326522              -6.3308
       116                         -0.2201395              -5.9903
       117                         -0.2191810              -5.9642
       118                         -0.2044935              -5.5646
       ...                                ...                  ...
       204                          0.6707388              18.2517
      -------------------------------------------------------------
                  HL-Gap            0.0554078 Eh            1.5077 eV

     #   Z          covCN         q      C6AA      α(0)
     1   6 C        2.919    -0.040    28.999     8.831
     2   6 C        2.919    -0.039    28.962     8.825
     3   6 C        2.924    -0.060    29.499     8.907
     4   6 C        2.921     0.041    27.071     8.532
     5   6 C        2.883     0.123    25.294     8.245
     6   6 C        2.919    -0.057    29.426     8.896
     7   8 O        1.708    -0.270    18.472     5.803
     8   6 C        2.883     0.123    25.296     8.245
     9   6 C        2.919    -0.057    29.424     8.895
    10   6 C        2.919    -0.040    28.995     8.830
    11   6 C        2.919    -0.038    28.956     8.824
    12   6 C        2.924    -0.060    29.498     8.907
    13   6 C        2.921     0.041    27.072     8.532
    14   7 N        2.751    -0.068    22.560     7.054
    15   6 C        2.920     0.072    26.400     8.426
    16   6 C        2.920    -0.036    28.892     8.815
    17   6 C        2.923    -0.027    28.670     8.781
    18   6 C        2.974    -0.011    28.294     8.725
    19   6 C        3.163     0.217    23.156     7.865
    20   7 N        2.044    -0.214    26.408     7.623
    21   7 N        2.044    -0.215    26.411     7.623
    22   6 C        3.163     0.217    23.155     7.865
    23   6 C        2.974    -0.012    28.299     8.726
    24   6 C        2.922    -0.026    28.646     8.777
    25   6 C        2.920    -0.038    28.957     8.824
    26   6 C        2.920     0.071    26.402     8.426
    27   7 N        2.750    -0.068    22.552     7.053
    28   6 C        2.921     0.041    27.075     8.533
    29   6 C        2.924    -0.060    29.496     8.906
    30   6 C        2.919    -0.038    28.955     8.824
    31   6 C        2.919    -0.040    28.992     8.830
    32   6 C        2.920    -0.057    29.423     8.895
    33   6 C        2.883     0.123    25.295     8.245
    34   8 O        1.708    -0.270    18.468     5.802
    35   6 C        2.883     0.123    25.293     8.245
    36   6 C        2.920    -0.057    29.425     8.895
    37   6 C        2.919    -0.040    28.997     8.830
    38   6 C        2.919    -0.039    28.962     8.825
    39   6 C        2.924    -0.060    29.498     8.907
    40   6 C        2.921     0.041    27.072     8.532
    41   6 C        2.920    -0.036    28.897     8.815
    42   6 C        2.923    -0.027    28.672     8.781
    43   8 O        1.721    -0.231    17.832     5.702
    44   6 C        2.922    -0.026    28.645     8.777
    45   6 C        2.920    -0.038    28.951     8.824
    46   1 H        0.926     0.043     2.406     2.425
    47   1 H        0.926     0.042     2.421     2.433
    48   1 H        0.926     0.039     2.456     2.451
    49   1 H        0.926     0.049     2.331     2.387
    50   1 H        0.926     0.049     2.330     2.387
    51   1 H        0.926     0.043     2.403     2.424
    52   1 H        0.926     0.043     2.413     2.429
    53   1 H        0.926     0.040     2.443     2.444
    54   1 H        0.926     0.058     2.222     2.331
    55   1 H        0.926     0.064     2.152     2.294
    56   1 H        0.926     0.054     2.275     2.359
    57   1 H        0.926     0.055     2.257     2.349
    58   1 H        0.926     0.041     2.439     2.442
    59   1 H        0.926     0.043     2.412     2.429
    60   1 H        0.926     0.044     2.401     2.423
    61   1 H        0.926     0.049     2.329     2.386
    62   1 H        0.926     0.049     2.330     2.387
    63   1 H        0.926     0.043     2.405     2.425
    64   1 H        0.926     0.042     2.420     2.433
    65   1 H        0.926     0.040     2.451     2.448
    66   1 H        0.926     0.058     2.224     2.332
    67   1 H        0.926     0.064     2.154     2.295
    68   1 H        0.926     0.054     2.273     2.358
    69   1 H        0.926     0.055     2.258     2.350

molecular dipole:
                 x           y           z       tot (Debye)
 q only:        0.022      -0.370      -0.505
   full:        0.021      -0.690      -0.915       2.914

 projected vibrational frequencies (cm⁻¹)
eigval :       -0.00    -0.00    -0.00    -0.00    -0.00     0.00
eigval :        1.84     8.65    15.78    24.55    28.66    36.45
eigval :       44.19    49.12    58.51    63.10    68.06    95.88
eigval :      105.72   106.16   117.83   120.99   124.72   177.60
eigval :      185.77   193.51   202.18   242.33   248.39   252.92
eigval :      253.75   269.10   273.11   280.61   331.85   354.59
eigval :      367.87   370.72   375.72   378.55   388.78   399.60
eigval :      400.80   421.43   423.25   429.32   430.77   431.40
eigval :      445.38   448.27   465.54   488.68   497.96   502.02
eigval :      509.34   509.71   522.29   522.55   548.34   551.27
eigval :      586.57   587.08   590.34   602.06   608.07   608.91
eigval :      652.48   658.13   660.87   661.06   661.16   665.54
eigval :      677.46   680.61   708.88   715.58   722.26   727.33
eigval :      775.73   778.31   778.72   780.16   798.79   800.44
eigval :      820.62   824.48   853.20   853.49   860.94   862.56
eigval :      864.64   865.57   870.63   874.37   897.60   897.71
eigval :      900.19   904.12   908.08   912.53   913.01   914.33
eigval :      914.73   915.34   915.66   917.94   920.91   925.02
eigval :      928.46   933.82   970.09   972.80  1007.29  1016.96
eigval :     1080.59  1088.51  1089.61  1090.08  1091.06  1093.83
eigval :     1105.76  1105.98  1116.84  1117.21  1124.05  1126.45
eigval :     1167.33  1167.70  1172.78  1173.36  1175.00  1176.87
eigval :     1179.70  1185.40  1187.26  1197.81  1198.62  1216.72
eigval :     1219.09  1240.37  1240.79  1255.52  1257.72  1258.59
eigval :     1259.13  1273.04  1294.71  1303.53  1303.58  1312.12
eigval :     1313.88  1317.34  1322.21  1332.79  1332.95  1351.74
eigval :     1351.97  1405.31  1406.09  1422.15  1422.25  1440.08
eigval :     1440.29  1457.50  1457.75  1478.74  1478.88  1499.83
eigval :     1500.50  1529.96  1532.40  1555.03  1557.41  1566.51
eigval :     1566.62  1578.70  1578.82  1580.30  1580.65  1588.27
eigval :     1588.44  1601.16  1601.23  3087.45  3087.83  3088.00
eigval :     3088.17  3088.33  3088.98  3091.46  3094.78  3096.16
eigval :     3096.69  3096.69  3096.80  3098.86  3100.05  3104.82
eigval :     3104.97  3105.65  3105.81  3109.43  3109.65  3110.42
eigval :     3110.45  3113.40  3113.55

   temp. (K)  partition function   enthalpy   heat capacity  entropy
                                   cal/mol     cal/K/mol   cal/K/mol   J/K/mol
 298.15  VIB  0.489E+17            20033.234    127.298    126.292
         ROT  0.107E+09              888.752      2.981     39.726
         INT  0.524E+25            20921.986    130.279    166.018
         TR   0.137E+29             1481.254      4.968     44.961
         TOT                       22403.2398   135.2472   210.9788   882.7355

       T/K    H(0)-H(T)+PV         H(T)/Eh          T*S/Eh         G(T)/Eh
   ------------------------------------------------------------------------
    298.15    0.357018E-01    0.547292E+00    0.100243E+00    0.447049E+00
   ------------------------------------------------------------------------

         :::::::::::::::::::::::::::::::::::::::::::::::::::::
         ::                  THERMODYNAMIC                  ::
         :::::::::::::::::::::::::::::::::::::::::::::::::::::
         :: total free energy        -117.155830014051 Eh   ::
         ::.................................................::
         :: total energy             -117.602878812697 Eh   ::
         :: zero point energy           0.511589819294 Eh   ::
         :: G(RRHO) w/o ZPVE           -0.064541020648 Eh   ::
         :: G(RRHO) contrib.            0.447048798646 Eh   ::
         :::::::::::::::::::::::::::::::::::::::::::::::::::::

           -------------------------------------------------
          | TOTAL ENERGY             -117.602878812697 Eh   |
          | TOTAL ENTHALPY           -117.055587158196 Eh   |
          | TOTAL FREE ENERGY        -117.155830014051 Eh   |
          | GRADIENT NORM               0.000056671341 Eh/α |
          | HOMO-LUMO GAP               1.507722421559 eV   |
           -------------------------------------------------

 * finished run on 2025/07/17 at 02:05:01.830
