   * xtb version 6.7.1 (edcfbbe) compiled by 'albert@albert-system' on 2024-07-22

   ID    Z sym.   atoms
    1    6 C      1-6, 8-13, 15-19, 22-26, 28-33, 35-42, 44, 45
    2    8 O      7, 34, 43
    3    7 N      14, 20, 21, 27
    4    1 H      46-69

          program call               : xtb data2507/toluene/2PXZ-OXD/2PXZ-OXD_toluene_T1_crest.xyz --gfn 2 --uhf 2 --gbsa toluene --ohess vtight --parallel 40 --molden --ceasefiles --namespace data2507/toluene/2PXZ-OXD/2PXZ-OXD_toluene_T1_finalOpt
      * Solvation model:               GBSA
        Solvent                        toluene
        Solvent mass                       9.2140E+01 g/mol
          :  Hamiltonian                  GFN2-xTB          :
 * total energy  :  -117.5315574 Eh     change       -0.2209366E-07 Eh
 * total energy  :  -117.5316609 Eh     change       -0.1035352E-03 Eh
 * total energy  :  -117.5317187 Eh     change       -0.5780530E-04 Eh
 * total energy  :  -117.5317282 Eh     change       -0.9486965E-05 Eh
 * total energy  :  -117.5317378 Eh     change       -0.9613597E-05 Eh
 * total energy  :  -117.5317416 Eh     change       -0.3756493E-05 Eh
 * total energy  :  -117.5317508 Eh     change       -0.9231893E-05 Eh
 * total energy  :  -117.5317554 Eh     change       -0.4627019E-05 Eh
 * total energy  :  -117.5317619 Eh     change       -0.6480713E-05 Eh
 * total energy  :  -117.5317657 Eh     change       -0.3790648E-05 Eh
 * total energy  :  -117.5317680 Eh     change       -0.5771243E-06 Eh
 * total energy  :  -117.5317685 Eh     change       -0.5195800E-06 Eh
 * total energy  :  -117.5317688 Eh     change       -0.2787074E-06 Eh
 * total energy  :  -117.5317690 Eh     change       -0.2401408E-06 Eh
 * total energy  :  -117.5317693 Eh     change       -0.2494916E-06 Eh
 * total energy  :  -117.5317697 Eh     change       -0.3949246E-06 Eh
 * total energy  :  -117.5317700 Eh     change       -0.2854506E-06 Eh
 * total energy  :  -117.5317700 Eh     change        0.1207890E-07 Eh
 * total energy  :  -117.5317700 Eh     change       -0.6218144E-08 Eh
   *** GEOMETRY OPTIMIZATION CONVERGED AFTER 23 ITERATIONS ***

 final structure:
================
69
 xtb: 6.7.1 (edcfbbe)
C           -9.01788834165959       -2.96255250569241       -1.27137015267544
C           -7.69513069398625       -3.25058977783602       -0.97445575279643
C           -6.82182555185916       -2.24356256070666       -0.60766369626382
C           -7.25810557497884       -0.92153604947537       -0.51865054645768
C           -8.59394114995748       -0.63694889349734       -0.85502613226075
C           -9.46305308902066       -1.65237684266482       -1.22052328629489
O           -9.08759640334694        0.63773010596342       -0.85627588152427
C           -8.24106310908794        1.64969787316686       -0.49939280190709
C           -8.75754146153093        2.93547521336307       -0.49651307807394
C           -7.96237048286073        4.00246519878175       -0.11349223162414
C           -6.65461948130895        3.77585876962953        0.28543417114873
C           -6.13118739701010        2.49626479785484        0.28386553873263
C           -6.90500562110746        1.41157281410245       -0.12932059287336
N           -6.41097559307140        0.11453687190932       -0.14944865060868
C           -5.06743710941614       -0.14768207105684        0.20451097978937
C           -4.77359064106078       -0.93441002515128        1.32998266825929
C           -3.47510069008171       -1.18594880037928        1.67859987896848
C           -2.40727144331181       -0.66712197322423        0.90637617955097
C           -1.07410001621726       -0.93413906824680        1.27124084260061
N           -0.65876535997467       -1.65967883807677        2.30342966486875
N            0.65637467653025       -1.66086608523330        2.30317493593284
C            1.07269652686662       -0.93598704075993        1.27091372012791
C            2.40618462958346       -0.67109441994383        0.90590372575690
C            2.71787055813857        0.11556257786423       -0.22933732209692
C            4.02064310337829        0.36936192841290       -0.56657552088524
C            5.06717825158492       -0.15658262089693        0.20354171054141
N            6.41103064765460        0.10334527041245       -0.15090247923394
C            6.90693258019816        1.39964813788401       -0.13112598361620
C            6.13534899114852        2.48517050365783        0.28405577695492
C            6.66040315632218        3.76409553007319        0.28490414542973
C            7.96755635963054        3.98916110009323       -0.11685022873380
C            8.76062888341507        2.92126419200113       -0.50173123368496
C            8.24256694402550        1.63612379969001       -0.50373178613679
O            9.08707314485851        0.62307986294220       -0.86237893073683
C            8.59185530696374       -0.65100896487030       -0.85991966781220
C            9.45912652226095       -1.66759999909435       -1.22655115424819
C            9.01222650025912       -2.97722549398906       -1.27645211047554
C            7.68957526101139       -3.26354700970476       -0.97743079181059
C            6.81811755463153       -2.25536213976055       -0.60939967489768
C            7.25621093656091       -0.93388188335562       -0.52133772411831
C            4.77212372731949       -0.94241991095204        1.32930254715445
C            3.47324009367927       -1.19152958199511        1.67816504964993
O           -0.00038545085150       -0.43308599860043        0.55890357414318
C           -2.71772153465321        0.12018136208855       -0.22874936952094
C           -4.02010412628035        0.37638977387001       -0.56576894351817
H           -9.69884459259158       -3.74956633256074       -1.55348531739152
H           -7.33455855076639       -4.26574762404913       -1.03188537440675
H           -5.79060500235907       -2.47307695641272       -0.39297321987548
H          -10.48024460078616       -1.39116448305300       -1.46528890438166
H           -9.78521881999357        3.07413118977239       -0.79223879325972
H           -8.36865742603522        5.00129935908194       -0.11516893525418
H           -6.03454676956245        4.59847486510479        0.60605510394418
H           -5.11810394418628        2.32533126882033        0.61045716063195
H           -5.58553630197056       -1.32184757442300        1.92841662581195
H           -3.23144156376046       -1.77455350717929        2.54873362369064
H            1.90932083566777        0.50613784311334       -0.82921984075994
H            4.25364697053460        0.96069208156905       -1.44076098263385
H            5.12275764784292        2.31536162429896        0.61276112659812
H            6.04206052871776        4.58738515810413        0.60713691586993
H            8.37505705635649        4.98749777349100       -0.11921570621875
H            9.78785261004920        3.05873765294448       -0.79957316638379
H           10.47625889486291       -1.40771228693053       -1.47296982591689
H            9.69175964523037       -3.76514607791029       -1.55947197179899
H            7.32763437423352       -4.27826114279649       -1.03415131111949
H            5.78695423295905       -2.48353417562059       -0.39299441921237
H            5.58346173766523       -1.33103380691719        1.92779397210066
H            3.22859400982130       -1.77933326669501        2.54856521001432
H           -1.90856445674280        0.50933412696621       -0.82874681209630
H           -4.25210828567536        0.96815104428295       -1.43992307527521

          :  Hamiltonian                  GFN2-xTB          :
         :: gradient norm              0.000085908049 Eh/a0 ::
         :: HOMO-LUMO gap              0.464371456107 eV    ::
         :: SCC energy              -119.460505141489 Eh    ::
         :: -> dispersion             -0.092402514721 Eh    ::
         :: -> Gsolv                  -0.055631466517 Eh    ::
         :: repulsion energy           1.928735172293 Eh    ::

    * Orbital Energies and Occupations

         #    Occupation            Energy/Eh            Energy/eV
      -------------------------------------------------------------
         1        2.0000           -0.7505353             -20.4231
       ...           ...                  ...                  ...
        96        2.0000           -0.4257708             -11.5858
        97        2.0000           -0.4249724             -11.5641
        98        2.0000           -0.4096772             -11.1479
        99        2.0000           -0.4095043             -11.1432
       100        2.0000           -0.4094735             -11.1423
       101        2.0000           -0.4049499             -11.0192
       102        2.0000           -0.4023575             -10.9487
       103        2.0000           -0.3985110             -10.8440
       104        2.0000           -0.3718017             -10.1172
       105        1.9988           -0.3617198              -9.8429
       106        1.8541           -0.3570107              -9.7148
       107        1.1471           -0.3536617              -9.6236
       108        0.9998           -0.2720205              -7.4021 (HOMO)
       109        0.0001           -0.2549545              -6.9377 (LUMO)
       110        0.0001           -0.2549533              -6.9376
       111                         -0.2477447              -6.7415
       112                         -0.2432365              -6.6188
       113                         -0.2432346              -6.6187
       114                         -0.2289968              -6.2313
       115                         -0.2280866              -6.2066
       116                         -0.2229054              -6.0656
       117                         -0.2228948              -6.0653
       118                         -0.2110087              -5.7418
       119                         -0.2103225              -5.7232
       ...                                ...                  ...
       204                          0.6831839              18.5904
      -------------------------------------------------------------
                  HL-Gap            0.0170660 Eh            0.4644 eV

     #   Z          covCN         q      C6AA      α(0)
     1   6 C        2.919    -0.031    28.774     8.796
     2   6 C        2.918    -0.031    28.775     8.796
     3   6 C        2.921    -0.051    29.263     8.871
     4   6 C        2.925     0.045    26.981     8.518
     5   6 C        2.885     0.129    25.169     8.225
     6   6 C        2.917    -0.053    29.315     8.879
     7   8 O        1.709    -0.234    17.879     5.709
     8   6 C        2.885     0.129    25.168     8.225
     9   6 C        2.917    -0.053    29.316     8.879
    10   6 C        2.919    -0.031    28.780     8.797
    11   6 C        2.918    -0.031    28.781     8.797
    12   6 C        2.921    -0.051    29.265     8.871
    13   6 C        2.925     0.045    26.980     8.518
    14   7 N        2.751    -0.025    21.733     6.924
    15   6 C        2.921     0.033    27.266     8.563
    16   6 C        2.914    -0.041    29.016     8.833
    17   6 C        2.921    -0.042    29.034     8.836
    18   6 C        2.969    -0.027    28.664     8.782
    19   6 C        3.103     0.193    23.771     7.989
    20   7 N        2.028    -0.237    26.964     7.702
    21   7 N        2.028    -0.237    26.964     7.702
    22   6 C        3.103     0.193    23.771     7.989
    23   6 C        2.969    -0.027    28.664     8.782
    24   6 C        2.919    -0.041    29.021     8.834
    25   6 C        2.914    -0.042    29.041     8.837
    26   6 C        2.921     0.033    27.266     8.563
    27   7 N        2.751    -0.025    21.733     6.924
    28   6 C        2.925     0.045    26.980     8.518
    29   6 C        2.921    -0.051    29.265     8.871
    30   6 C        2.918    -0.031    28.781     8.797
    31   6 C        2.919    -0.031    28.780     8.797
    32   6 C        2.917    -0.053    29.316     8.879
    33   6 C        2.885     0.129    25.168     8.225
    34   8 O        1.709    -0.234    17.879     5.709
    35   6 C        2.885     0.129    25.169     8.225
    36   6 C        2.917    -0.053    29.315     8.879
    37   6 C        2.919    -0.031    28.774     8.796
    38   6 C        2.918    -0.031    28.775     8.796
    39   6 C        2.921    -0.051    29.263     8.871
    40   6 C        2.925     0.045    26.981     8.518
    41   6 C        2.914    -0.041    29.016     8.833
    42   6 C        2.921    -0.042    29.034     8.836
    43   8 O        1.712    -0.302    19.034     5.890
    44   6 C        2.919    -0.041    29.021     8.834
    45   6 C        2.914    -0.042    29.041     8.837
    46   1 H        0.926     0.057     2.237     2.339
    47   1 H        0.926     0.054     2.271     2.357
    48   1 H        0.926     0.053     2.278     2.360
    49   1 H        0.926     0.063     2.169     2.303
    50   1 H        0.926     0.063     2.170     2.303
    51   1 H        0.926     0.057     2.239     2.340
    52   1 H        0.926     0.053     2.279     2.361
    53   1 H        0.926     0.052     2.289     2.366
    54   1 H        0.926     0.038     2.471     2.458
    55   1 H        0.926     0.041     2.429     2.437
    56   1 H        0.926     0.030     2.593     2.518
    57   1 H        0.926     0.035     2.511     2.478
    58   1 H        0.926     0.052     2.289     2.366
    59   1 H        0.926     0.053     2.279     2.361
    60   1 H        0.926     0.057     2.239     2.340
    61   1 H        0.926     0.062     2.170     2.303
    62   1 H        0.926     0.063     2.169     2.303
    63   1 H        0.926     0.057     2.237     2.339
    64   1 H        0.926     0.054     2.271     2.357
    65   1 H        0.926     0.053     2.278     2.360
    66   1 H        0.926     0.038     2.471     2.458
    67   1 H        0.926     0.041     2.429     2.437
    68   1 H        0.926     0.030     2.593     2.518
    69   1 H        0.926     0.035     2.511     2.478

molecular dipole:
                 x           y           z       tot (Debye)
 q only:        0.000       1.251      -1.760
   full:        0.000       1.531      -2.161       6.731

 projected vibrational frequencies (cm⁻¹)
eigval :       -0.00    -0.00     0.00     0.00     0.00     0.00
eigval :        8.81     8.96    16.16    24.04    31.82    40.00
eigval :       43.86    60.17    62.35    69.62    75.67   103.61
eigval :      105.43   109.85   116.87   122.33   122.64   170.62
eigval :      175.58   194.60   206.52   239.67   244.95   245.74
eigval :      251.32   272.35   276.86   279.04   327.14   344.74
eigval :      363.71   373.77   379.97   381.50   382.25   389.56
eigval :      401.84   418.64   421.37   425.49   432.85   433.31
eigval :      454.04   458.01   465.25   469.97   472.63   499.30
eigval :      499.47   502.98   528.75   529.06   538.23   540.52
eigval :      581.25   582.90   587.42   600.60   604.77   605.14
eigval :      605.42   648.10   648.11   657.40   661.46   666.53
eigval :      667.90   670.73   670.83   680.37   699.64   717.69
eigval :      777.30   777.62   780.61   782.73   797.48   797.64
eigval :      797.92   798.04   841.50   843.91   855.12   855.14
eigval :      866.86   867.40   867.96   871.71   891.59   901.30
eigval :      901.50   901.58   903.41   903.79   907.39   907.69
eigval :      912.88   913.03   913.71   914.42   916.00   919.82
eigval :      920.01   925.46   926.15   930.63   985.88   987.81
eigval :     1037.91  1046.59  1083.22  1083.27  1084.06  1084.55
eigval :     1112.01  1112.05  1116.94  1117.60  1124.57  1125.15
eigval :     1155.11  1167.18  1170.75  1171.53  1173.56  1177.84
eigval :     1186.37  1191.03  1199.38  1206.79  1206.86  1209.32
eigval :     1220.68  1234.93  1235.21  1238.82  1250.99  1251.13
eigval :     1253.19  1259.24  1279.44  1300.43  1300.56  1303.56
eigval :     1308.50  1315.43  1315.85  1333.79  1336.66  1337.84
eigval :     1345.11  1371.84  1413.24  1413.61  1414.61  1422.38
eigval :     1426.49  1437.44  1438.58  1438.63  1439.56  1452.90
eigval :     1463.13  1463.18  1466.94  1473.85  1526.82  1547.16
eigval :     1551.50  1551.52  1558.28  1558.30  1565.36  1569.87
eigval :     1580.03  1581.79  1599.45  3071.12  3071.25  3076.17
eigval :     3076.34  3087.56  3088.00  3094.78  3094.85  3095.29
eigval :     3095.32  3103.01  3103.02  3103.46  3103.49  3106.42
eigval :     3106.88  3111.98  3112.04  3112.36  3112.39  3115.03
eigval :     3115.23  3115.40  3115.72

   temp. (K)  partition function   enthalpy   heat capacity  entropy
                                   cal/mol     cal/K/mol   cal/K/mol   J/K/mol
 298.15  VIB  0.629E+16            20146.123    129.133    125.107
         ROT  0.107E+09              888.752      2.981     39.722
         INT  0.673E+24            21034.876    132.113    164.828
         TR   0.137E+29             1481.254      4.968     44.961
         TOT                       22516.1296   137.0816   209.7893   877.7586

       T/K    H(0)-H(T)+PV         H(T)/Eh          T*S/Eh         G(T)/Eh
   ------------------------------------------------------------------------
    298.15    0.358817E-01    0.544167E+00    0.996777E-01    0.444490E+00
   ------------------------------------------------------------------------

         :::::::::::::::::::::::::::::::::::::::::::::::::::::
         ::                  THERMODYNAMIC                  ::
         :::::::::::::::::::::::::::::::::::::::::::::::::::::
         :: total free energy        -117.087280326366 Eh   ::
         ::.................................................::
         :: total energy             -117.531769970822 Eh   ::
         :: zero point energy           0.508285591601 Eh   ::
         :: G(RRHO) w/o ZPVE           -0.063795947145 Eh   ::
         :: G(RRHO) contrib.            0.444489644456 Eh   ::
         :::::::::::::::::::::::::::::::::::::::::::::::::::::

           -------------------------------------------------
          | TOTAL ENERGY             -117.531769970822 Eh   |
          | TOTAL ENTHALPY           -116.987602642719 Eh   |
          | TOTAL FREE ENERGY        -117.087280326366 Eh   |
          | GRADIENT NORM               0.000082394305 Eh/α |
          | HOMO-LUMO GAP               0.464390414832 eV   |
           -------------------------------------------------

 * finished run on 2025/07/17 at 02:09:34.631
