   * xtb version 6.7.1 (edcfbbe) compiled by 'albert@albert-system' on 2024-07-22

   ID    Z sym.   atoms
    1    6 C      1-6, 8-13, 15-19, 22-26, 28-33, 35-42, 44, 45
    2    8 O      7, 34, 43
    3    7 N      14, 20, 21, 27
    4    1 H      46-69

          program call               : xtb data2507/toluene/2PXZ-OXD/2PXZ-OXD_toluene_S0_finalOpt.xtbopt.xyz --gfn 2 --uhf 2 --gbsa toluene --ohess vtight --parallel 40 --molden --ceasefiles --namespace data2507/toluene/2PXZ-OXD/2PXZ-OXD_toluene_T1_preOpt
      * Solvation model:               GBSA
        Solvent                        toluene
        Solvent mass                       9.2140E+01 g/mol
          :  Hamiltonian                  GFN2-xTB          :
 * total energy  :  -117.5259071 Eh     change       -0.1154271E-07 Eh
 * total energy  :  -117.5304034 Eh     change       -0.4496235E-02 Eh
 * total energy  :  -117.5316088 Eh     change       -0.1205434E-02 Eh
 * total energy  :  -117.5316793 Eh     change       -0.7054283E-04 Eh
 * total energy  :  -117.5317119 Eh     change       -0.3250899E-04 Eh
 * total energy  :  -117.5317199 Eh     change       -0.8007445E-05 Eh
 * total energy  :  -117.5317313 Eh     change       -0.1147103E-04 Eh
 * total energy  :  -117.5317393 Eh     change       -0.7985935E-05 Eh
 * total energy  :  -117.5317445 Eh     change       -0.5210291E-05 Eh
 * total energy  :  -117.5317478 Eh     change       -0.3236055E-05 Eh
 * total energy  :  -117.5317607 Eh     change       -0.4378881E-06 Eh
 * total energy  :  -117.5317611 Eh     change       -0.4677091E-06 Eh
 * total energy  :  -117.5317616 Eh     change       -0.4400967E-06 Eh
 * total energy  :  -117.5317621 Eh     change       -0.5173725E-06 Eh
 * total energy  :  -117.5317628 Eh     change       -0.7385147E-06 Eh
 * total energy  :  -117.5317637 Eh     change       -0.8783632E-06 Eh
 * total energy  :  -117.5317643 Eh     change       -0.5680392E-06 Eh
 * total energy  :  -117.5317644 Eh     change       -0.1480025E-06 Eh
 * total energy  :  -117.5317645 Eh     change       -0.4249038E-07 Eh
   *** GEOMETRY OPTIMIZATION CONVERGED AFTER 37 ITERATIONS ***

 final structure:
================
69
 xtb: 6.7.1 (edcfbbe)
C           -7.96236190656123       -3.98862063430068       -0.06000756329602
C           -6.65846760546398       -3.75605647850387        0.34803572272753
C           -6.13371685292341       -2.47714133823583        0.32874314648225
C           -6.90232066968372       -1.39948750945461       -0.11166726459881
C           -8.23467219150139       -1.64303847765546       -0.49141737493538
C           -8.75246801810472       -2.92809522557819       -0.47057476497232
O           -9.07583520154749       -0.63697566210302       -0.87669926124098
C           -8.58054109399554        0.63702141442920       -0.89362456153866
C           -9.44397618537491        1.64633930081061       -1.28824624744161
C           -8.99670530883083        2.95496849587544       -1.35771446633746
C           -7.67736208603207        3.24725052632438       -1.05005552056390
C           -6.80960500407429        2.24625099814908       -0.65461752380952
C           -7.24832190731495        0.92646242107541       -0.54717747036549
N           -6.40664352735893       -0.10357955961156       -0.14994566386962
C           -5.06416887173043        0.16182704102650        0.20662357132870
C           -4.77287672572695        0.96258420220826        1.32267948845902
C           -3.47495284968007        1.21628400566075        1.67251105138544
C           -2.40559575170555        0.68611249675366        0.91031591564817
C           -1.07244954266736        0.95478337955613        1.27430303508358
N           -0.65544987118935        1.68849420131559        2.29992668177502
N            0.65985172052337        1.68572529145414        2.30031681441311
C            1.07439286960534        0.95062623539940        1.27462703458717
C            2.40664535150043        0.67822445673660        0.91052632661562
C            2.71308821793768       -0.11642923233562       -0.22064326814785
C            4.01405002795209       -0.37774851515549       -0.55877684157926
C            5.06433523632051        0.14742010847070        0.20691191171922
N            6.40617703728732       -0.12033837381657       -0.14894404865827
C            7.25604826477679        0.91148949581846       -0.52389810822570
C            6.82516791205095        2.23528180732411       -0.61340035807605
C            7.70110169603024        3.23783270917739       -0.98608887545950
C            9.02118953147956        2.94353262284025       -1.28870013573152
C            9.46083608065004        1.63153255524292       -1.23760621349929
C            8.58905259061637        0.62055566417736       -0.86612588307662
O            9.07714233623753       -0.65620302571524       -0.86789283995308
C            8.22773071689680       -1.66403009755470       -0.50645051624672
C            8.73829506109175       -2.95217721055289       -0.50574198423548
C            7.94015111440519       -4.01538234483250       -0.11846639862836
C            6.63560272111815       -3.78253573573253        0.28735298349668
C            6.11810783487261       -2.50054904216086        0.28809794703127
C            6.89458694639545       -1.41955667175291       -0.12994837099705
C            4.77447225719043        0.94068487983001        1.32888475094188
C            3.47726249182726        1.19812211452382        1.67815339102923
O            0.00008792265473        0.44443222466441        0.56689120986989
C           -2.71364689605296       -0.11559433334899       -0.21534014865194
C           -4.01525900085640       -0.37442137330024       -0.55299702423269
H           -8.36961677502261       -4.98699973347156       -0.04788056746735
H           -6.04261886051346       -4.57337135743412        0.68968237943869
H           -5.12377180248648       -2.30100501375155        0.66227126662683
H           -9.77714281440910       -3.07133396343672       -0.77444737203156
H          -10.45846564063310        1.38164491959923       -1.54037034196074
H           -9.67335771882203        3.73725019365217       -1.66243480961180
H           -7.31506727758899        4.26090377047952       -1.12147828788978
H           -5.78067027225216        2.47847947830599       -0.43211373664681
H           -5.58609364998635        1.35931481333730        1.91323939965589
H           -3.23326490492699        1.81575442707970        2.53575645712845
H            1.90184990245246       -0.50651140247409       -0.81718898462186
H            4.24278191958650       -0.97443848022002       -1.43044063430998
H            5.79593638296241        2.46970908032435       -0.39461219532927
H            7.34466727851813        4.25443285467352       -1.04372288093127
H            9.70420850944302        3.72705523000127       -1.57549617869471
H           10.47564864831527        1.36539572009115       -1.48689431198618
H            9.76385059354488       -3.09564095194659       -0.80650531001761
H            8.34172027155488       -5.01612056161014       -0.12211700889216
H            6.01345584627654       -4.60222218235627        0.61145324178771
H            5.10766218650469       -2.32488674798597        0.62028377363707
H            5.58839389231616        1.32842863642632        1.92442214038815
H            3.23688265588854        1.79211121860156        2.54554249489525
H           -1.90317588544859       -0.51389939920766       -0.80746956924768
H           -4.24554719488231       -0.97800170927295       -1.41949323184957

          :  Hamiltonian                  GFN2-xTB          :
         :: gradient norm              0.000061775566 Eh/a0 ::
         :: HOMO-LUMO gap              0.462454956809 eV    ::
         :: SCC energy              -119.460471136427 Eh    ::
         :: -> dispersion             -0.092401711059 Eh    ::
         :: -> Gsolv                  -0.055644059472 Eh    ::
         :: repulsion energy           1.928706655342 Eh    ::

    * Orbital Energies and Occupations

         #    Occupation            Energy/Eh            Energy/eV
      -------------------------------------------------------------
         1        2.0000           -0.7506045             -20.4250
       ...           ...                  ...                  ...
        96        2.0000           -0.4257731             -11.5859
        97        2.0000           -0.4249640             -11.5639
        98        2.0000           -0.4096657             -11.1476
        99        2.0000           -0.4095064             -11.1432
       100        2.0000           -0.4094716             -11.1423
       101        2.0000           -0.4049657             -11.0197
       102        2.0000           -0.4023683             -10.9490
       103        2.0000           -0.3984728             -10.8430
       104        2.0000           -0.3718022             -10.1173
       105        1.9988           -0.3617127              -9.8427
       106        1.8533           -0.3570242              -9.7151
       107        1.1479           -0.3536880              -9.6243
       108        0.9998           -0.2719985              -7.4015 (HOMO)
       109        0.0001           -0.2550041              -6.9390 (LUMO)
       110        0.0001           -0.2549377              -6.9372
       111                         -0.2477444              -6.7415
       112                         -0.2432712              -6.6197
       113                         -0.2432261              -6.6185
       114                         -0.2290097              -6.2317
       115                         -0.2281012              -6.2069
       116                         -0.2229095              -6.0657
       117                         -0.2228949              -6.0653
       118                         -0.2110233              -5.7422
       119                         -0.2103383              -5.7236
       ...                                ...                  ...
       204                          0.6832660              18.5926
      -------------------------------------------------------------
                  HL-Gap            0.0169944 Eh            0.4624 eV

     #   Z          covCN         q      C6AA      α(0)
     1   6 C        2.919    -0.031    28.780     8.797
     2   6 C        2.918    -0.031    28.781     8.797
     3   6 C        2.921    -0.051    29.265     8.871
     4   6 C        2.925     0.046    26.979     8.518
     5   6 C        2.885     0.129    25.168     8.225
     6   6 C        2.917    -0.053    29.316     8.879
     7   8 O        1.709    -0.234    17.880     5.709
     8   6 C        2.885     0.129    25.169     8.225
     9   6 C        2.917    -0.053    29.315     8.879
    10   6 C        2.919    -0.031    28.775     8.797
    11   6 C        2.918    -0.031    28.775     8.796
    12   6 C        2.921    -0.051    29.264     8.871
    13   6 C        2.925     0.045    26.980     8.518
    14   7 N        2.751    -0.025    21.737     6.924
    15   6 C        2.921     0.033    27.266     8.563
    16   6 C        2.914    -0.041    29.016     8.833
    17   6 C        2.921    -0.042    29.034     8.836
    18   6 C        2.968    -0.027    28.664     8.782
    19   6 C        3.102     0.194    23.771     7.989
    20   7 N        2.028    -0.237    26.965     7.702
    21   7 N        2.028    -0.237    26.965     7.702
    22   6 C        3.102     0.193    23.772     7.989
    23   6 C        2.968    -0.027    28.664     8.782
    24   6 C        2.919    -0.041    29.021     8.834
    25   6 C        2.914    -0.042    29.041     8.837
    26   6 C        2.921     0.033    27.267     8.563
    27   7 N        2.751    -0.025    21.730     6.923
    28   6 C        2.925     0.045    26.982     8.518
    29   6 C        2.921    -0.051    29.263     8.871
    30   6 C        2.918    -0.031    28.775     8.796
    31   6 C        2.919    -0.031    28.774     8.796
    32   6 C        2.917    -0.053    29.315     8.879
    33   6 C        2.885     0.129    25.168     8.225
    34   8 O        1.709    -0.234    17.877     5.709
    35   6 C        2.885     0.129    25.167     8.225
    36   6 C        2.917    -0.053    29.316     8.879
    37   6 C        2.919    -0.031    28.779     8.797
    38   6 C        2.918    -0.031    28.781     8.797
    39   6 C        2.921    -0.051    29.265     8.871
    40   6 C        2.925     0.045    26.981     8.518
    41   6 C        2.914    -0.041    29.017     8.833
    42   6 C        2.921    -0.042    29.034     8.836
    43   8 O        1.712    -0.302    19.033     5.890
    44   6 C        2.919    -0.041    29.020     8.834
    45   6 C        2.914    -0.042    29.041     8.837
    46   1 H        0.926     0.057     2.239     2.340
    47   1 H        0.926     0.053     2.279     2.361
    48   1 H        0.926     0.052     2.290     2.367
    49   1 H        0.926     0.062     2.170     2.304
    50   1 H        0.926     0.063     2.169     2.303
    51   1 H        0.926     0.057     2.237     2.339
    52   1 H        0.926     0.054     2.272     2.357
    53   1 H        0.926     0.053     2.279     2.361
    54   1 H        0.926     0.038     2.471     2.458
    55   1 H        0.926     0.041     2.431     2.438
    56   1 H        0.926     0.030     2.593     2.518
    57   1 H        0.926     0.035     2.511     2.478
    58   1 H        0.926     0.053     2.277     2.360
    59   1 H        0.926     0.054     2.271     2.357
    60   1 H        0.926     0.057     2.236     2.338
    61   1 H        0.926     0.063     2.169     2.303
    62   1 H        0.926     0.063     2.169     2.303
    63   1 H        0.926     0.057     2.239     2.340
    64   1 H        0.926     0.053     2.278     2.360
    65   1 H        0.926     0.053     2.288     2.366
    66   1 H        0.926     0.038     2.470     2.458
    67   1 H        0.926     0.041     2.431     2.438
    68   1 H        0.926     0.030     2.593     2.518
    69   1 H        0.926     0.035     2.513     2.479

molecular dipole:
                 x           y           z       tot (Debye)
 q only:        0.014      -1.276      -1.766
   full:        0.014      -1.559      -2.164       6.780

 projected vibrational frequencies (cm⁻¹)
eigval :       -0.00    -0.00    -0.00     0.00     0.00     0.00
eigval :        6.28     8.98    16.66    23.85    32.10    39.51
eigval :       43.64    59.26    62.24    69.07    75.85   103.57
eigval :      105.46   109.99   116.55   122.29   122.70   169.88
eigval :      175.44   194.45   206.50   239.29   244.22   245.84
eigval :      250.97   271.99   276.54   278.90   327.48   344.66
eigval :      363.58   373.79   379.94   381.73   382.28   389.55
eigval :      401.99   418.66   421.33   425.48   432.39   432.96
eigval :      454.05   457.79   465.12   469.83   472.73   498.95
eigval :      499.50   503.02   528.57   529.06   538.14   540.47
eigval :      581.17   582.87   587.37   600.61   604.52   605.15
eigval :      605.30   648.03   648.43   657.89   661.42   666.93
eigval :      668.21   671.19   671.55   680.17   699.61   717.64
eigval :      773.88   777.05   777.46   780.37   796.85   797.47
eigval :      797.85   797.94   840.41   842.96   855.06   855.16
eigval :      866.10   866.89   867.38   867.97   891.56   900.48
eigval :      901.37   901.54   901.96   904.08   906.12   908.20
eigval :      912.82   913.09   913.34   913.91   916.00   916.50
eigval :      919.57   919.63   925.25   930.70   986.00   987.99
eigval :     1037.91  1046.54  1082.93  1083.21  1084.00  1084.49
eigval :     1111.56  1111.87  1116.82  1117.47  1124.70  1125.34
eigval :     1155.19  1166.80  1170.44  1170.88  1172.71  1177.56
eigval :     1185.96  1190.80  1198.74  1206.42  1206.83  1208.98
eigval :     1220.48  1234.77  1235.02  1238.88  1250.71  1251.21
eigval :     1252.93  1259.42  1279.34  1300.28  1300.49  1303.52
eigval :     1308.41  1315.41  1315.83  1333.77  1336.66  1337.80
eigval :     1345.06  1371.79  1413.04  1413.34  1414.48  1422.34
eigval :     1426.53  1437.19  1438.50  1438.57  1439.28  1452.95
eigval :     1463.04  1463.12  1466.90  1473.81  1526.65  1547.07
eigval :     1551.36  1551.50  1558.19  1558.21  1565.24  1569.78
eigval :     1579.94  1581.73  1599.36  3071.03  3071.18  3076.25
eigval :     3077.34  3087.67  3088.17  3094.58  3094.84  3095.18
eigval :     3095.32  3102.98  3103.09  3103.12  3103.48  3106.15
eigval :     3106.64  3111.89  3112.03  3112.31  3112.37  3115.13
eigval :     3115.19  3115.32  3115.66

   temp. (K)  partition function   enthalpy   heat capacity  entropy
                                   cal/mol     cal/K/mol   cal/K/mol   J/K/mol
 298.15  VIB  0.889E+16            20160.006    129.161    125.484
         ROT  0.107E+09              888.752      2.981     39.722
         INT  0.952E+24            21048.759    132.142    165.206
         TR   0.137E+29             1481.254      4.968     44.961
         TOT                       22530.0126   137.1098   210.1674   879.3406

       T/K    H(0)-H(T)+PV         H(T)/Eh          T*S/Eh         G(T)/Eh
   ------------------------------------------------------------------------
    298.15    0.359039E-01    0.544079E+00    0.998573E-01    0.444222E+00
   ------------------------------------------------------------------------

         :::::::::::::::::::::::::::::::::::::::::::::::::::::
         ::                  THERMODYNAMIC                  ::
         :::::::::::::::::::::::::::::::::::::::::::::::::::::
         :: total free energy        -117.087542952820 Eh   ::
         ::.................................................::
         :: total energy             -117.531764479124 Eh   ::
         :: zero point energy           0.508175000318 Eh   ::
         :: G(RRHO) w/o ZPVE           -0.063953474015 Eh   ::
         :: G(RRHO) contrib.            0.444221526304 Eh   ::
         :::::::::::::::::::::::::::::::::::::::::::::::::::::

           -------------------------------------------------
          | TOTAL ENERGY             -117.531764479124 Eh   |
          | TOTAL ENTHALPY           -116.987685618345 Eh   |
          | TOTAL FREE ENERGY        -117.087542952820 Eh   |
          | GRADIENT NORM               0.000070434981 Eh/α |
          | HOMO-LUMO GAP               0.462441159678 eV   |
           -------------------------------------------------

 * finished run on 2025/07/17 at 02:05:07.333
