   * xtb version 6.7.1 (edcfbbe) compiled by 'albert@albert-system' on 2024-07-22

   ID    Z sym.   atoms
    1    9 F      1, 3, 4
    2    6 C      2, 5-8, 10-18, 20-26, 28-45, 47-62
    3    7 N      9, 19, 27, 46
    4    1 H      63-97

          program call               : xtb data2507/toluene/PPI-PIM-2/PPI-PIM-2.xyz --gfn 2 --gbsa toluene --ohess vtight --parallel 40 --molden --ceasefiles --namespace data2507/toluene/PPI-PIM-2/PPI-PIM-2_toluene_S0_preOpt
      * Solvation model:               GBSA
        Solvent                        toluene
        Solvent mass                       9.2140E+01 g/mol
          :  Hamiltonian                  GFN2-xTB          :
 * total energy  :  -161.6372791 Eh     change       -0.3914124E-08 Eh
 * total energy  :  -161.6509070 Eh     change       -0.1362786E-01 Eh
 * total energy  :  -161.6546787 Eh     change       -0.3771695E-02 Eh
 * total energy  :  -161.6559828 Eh     change       -0.1304148E-02 Eh
 * total energy  :  -161.6569809 Eh     change       -0.9980652E-03 Eh
 * total energy  :  -161.6576684 Eh     change       -0.6875650E-03 Eh
 * total energy  :  -161.6583106 Eh     change       -0.6421105E-03 Eh
 * total energy  :  -161.6589543 Eh     change       -0.6437623E-03 Eh
 * total energy  :  -161.6595483 Eh     change       -0.5939885E-03 Eh
 * total energy  :  -161.6600913 Eh     change       -0.5430235E-03 Eh
 * total energy  :  -161.6626205 Eh     change       -0.2096022E-06 Eh
 * total energy  :  -161.6626206 Eh     change       -0.1696054E-06 Eh
 * total energy  :  -161.6626208 Eh     change       -0.1637416E-06 Eh
 * total energy  :  -161.6626210 Eh     change       -0.1449058E-06 Eh
 * total energy  :  -161.6626211 Eh     change       -0.1431188E-06 Eh
 * total energy  :  -161.6626212 Eh     change       -0.1119130E-06 Eh
 * total energy  :  -161.6626213 Eh     change       -0.1273615E-06 Eh
 * total energy  :  -161.6626215 Eh     change       -0.1370585E-06 Eh
 * total energy  :  -161.6626216 Eh     change       -0.9364626E-07 Eh
   *** GEOMETRY OPTIMIZATION CONVERGED AFTER 89 ITERATIONS ***

 final structure:
================
97
 xtb: 6.7.1 (edcfbbe)
F           -2.88505137332531       -5.23035995970303       -2.71451065238336
C           -4.08694140911085       -5.17804401706392       -2.11457748613892
F           -4.97677171056731       -5.60050086877028       -3.04193916942771
F           -4.07389629240888       -6.12852240287694       -1.16457914286186
C           -4.42189525323909       -3.81554840479104       -1.58409329518897
C           -3.95012341300812       -2.68805957418827       -2.24577758098640
C           -4.28045196835916       -1.43177638371098       -1.77494740523574
C           -5.08494061977139       -1.30196695190419       -0.64586104731569
N           -5.38466931956288       -0.02264267106687       -0.14947711097913
C           -4.44910323675968        0.88915515037675        0.30322042845604
C           -3.01280651816064        0.66294621319224        0.33219445607548
C           -2.44626070581513       -0.57253839097943        0.64303019434617
C           -1.07463592968263       -0.72639537342056        0.66088864784790
C           -0.22902722574568        0.34685529946177        0.38602900688446
C            1.23034559494235        0.17511254792534        0.40346076384471
C            2.05389356843299        1.14327246888040        0.97552935187003
C            3.42513445561896        0.98379325692621        0.99730977025394
C            3.99952932431638       -0.14937177110890        0.43148138761921
N            5.39784626044872       -0.31066910610807        0.42912985008664
C            6.11358070535952       -1.39031812389559        0.87803249420145
C            5.55413912372493       -2.55738230645801        1.54210968014319
C            4.44762697659112       -2.47862972545450        2.38638039767075
C            3.96299258688793       -3.61714894602081        3.00390891944238
C            4.57712655824725       -4.84163962017089        2.79800003746510
C            5.69296342202388       -4.92294138447491        1.97954912000699
C            6.18071476800755       -3.79024416886996        1.35708965646645
N            7.39691439520952       -1.22442721456016        0.66844143079496
C            7.55050337376676       -0.01005454865087        0.06963039891984
C            8.86879051753909        0.45493220094376       -0.33817348098500
C            9.04385985654823        1.30440066571874       -1.42947085571232
C           10.31152593369070        1.71629455101550       -1.79614659875607
C           11.42099382518047        1.28391346127086       -1.08747596203429
C           11.25701660955037        0.42536116164962       -0.01204311624090
C            9.99211566570145        0.01150299114874        0.35922384748932
C            6.31014453916457        0.58715314925774       -0.08351950925274
C            5.92900334607802        1.88256867589273       -0.63272730629249
C            6.59822088365582        3.03439261100265       -0.21856750640412
C            6.24123779638128        4.26978367044209       -0.72428790224821
C            5.21027223722646        4.37555990660539       -1.64481221350005
C            4.54422255814883        3.23633863445583       -2.06513881975626
C            4.89968912837995        1.99673678217086       -1.56574326758348
C            3.18959017293768       -1.12048334886592       -0.14884341874330
C            1.81881214585986       -0.95969406903778       -0.15353119441869
C           -0.79877146811893        1.58852216922596        0.10487280444537
C           -2.16826655597067        1.74511541447627        0.07816126443887
N           -5.00749175580108        1.99227116965289        0.72955125030818
C           -6.34766678823880        1.82686359850367        0.56694449564738
C           -7.38531086301386        2.73499125103945        0.91976331429444
C           -7.09987088865815        3.96662206208396        1.51958395512910
C           -8.11744419625022        4.81299522838377        1.88396660731956
C           -9.43860633239979        4.43286310984771        1.65394502030484
C           -9.73035598780955        3.22723157754800        1.05928255725095
C           -8.71802090609293        2.33836114569253        0.66420231695771
C           -8.99113011713890        1.07432898867352        0.00120646160107
C          -10.29704045717749        0.69177425119793       -0.33921618696662
C          -10.56453529894490       -0.47923779201419       -1.00833088267090
C           -9.52234151778290       -1.31979216709127       -1.38719092915268
C           -8.22956845253038       -0.98663987617396       -1.06501672255451
C           -7.93718536684189        0.18738333224381       -0.35507873899476
C           -6.61696951651750        0.57987633789189        0.00771808036314
C           -5.55706972720843       -2.43720939790283        0.01209324043654
C           -5.23027982976545       -3.69353918834322       -0.45903681194589
H           -3.32733740887620       -2.79507835299776       -3.12013451923563
H           -3.91763829636116       -0.54914403265506       -2.27797798049436
H           -3.07471543751634       -1.41182472992470        0.89884866749284
H           -0.65205279789631       -1.68600396124798        0.91923590345542
H            1.61516652632502        2.01848759300071        1.43002951085203
H            4.05599785716831        1.73149865524009        1.45456845976608
H            3.97472616044795       -1.52643285252075        2.57635544189968
H            3.10383765076264       -3.54506530171675        3.65497785990234
H            4.19293193861255       -5.72825247729357        3.28048798555846
H            6.18309382858297       -5.87317944702325        1.82540445861694
H            7.05043347724949       -3.83630675138153        0.71938675378087
H            8.18574265236570        1.63174369080599       -1.99802964975084
H           10.43469557275866        2.37455560388362       -2.64448779363290
H           12.40977003543928        1.60893481625052       -1.37740482366096
H           12.11949528950696        0.07818573262280        0.53899759003012
H            9.85053365253597       -0.66168985483160        1.19132506218246
H            7.39854808598469        2.94904479549578        0.50246119789855
H            6.76657537570384        5.15448794209632       -0.39514953167205
H            4.93023399654730        5.34251627225002       -2.03584412150276
H            3.74506531038633        3.31094969775249       -2.78822338553285
H            4.38652234173010        1.11043762212306       -1.91056894004079
H            3.64163111444214       -1.99496457215181       -0.59372503465109
H            1.19874547347678       -1.71126201191608       -0.61826075677316
H           -0.16008878040339        2.43063920546187       -0.11579697772334
H           -2.60989794003409        2.70451008375198       -0.14307266322592
H           -6.06408707761220        4.21824415043839        1.68921955019656
H           -7.90114587799720        5.76336192921208        2.34939196886525
H          -10.24354592159753        5.09189862354393        1.94603408829675
H          -10.76731677166673        2.97531845394517        0.90491868711238
H          -11.12579652492715        1.33144052527014       -0.08333044551056
H          -11.58382380521856       -0.73894297497402       -1.25335403263640
H           -9.72637155663492       -2.22700944354248       -1.93646643853932
H           -7.42524417732518       -1.63116409114941       -1.38089671611034
H           -6.17882735784587       -2.32792667024391        0.88768838508589
H           -5.59016193593705       -4.57549914866718        0.04756934603600

          :  Hamiltonian                  GFN2-xTB          :
         :: gradient norm              0.000037080077 Eh/a0 ::
         :: HOMO-LUMO gap              2.227316633859 eV    ::
         :: SCC energy              -164.433061637504 Eh    ::
         :: -> dispersion             -0.140236792566 Eh    ::
         :: -> Gsolv                  -0.065081123009 Eh    ::
         :: repulsion energy           2.770440067328 Eh    ::

    * Orbital Energies and Occupations

         #    Occupation            Energy/Eh            Energy/eV
      -------------------------------------------------------------
         1        2.0000           -0.8915058             -24.2591
       ...           ...                  ...                  ...
       136        2.0000           -0.4141127             -11.2686
       137        2.0000           -0.4103589             -11.1664
       138        2.0000           -0.4093594             -11.1392
       139        2.0000           -0.4082182             -11.1082
       140        2.0000           -0.4054153             -11.0319
       141        2.0000           -0.4005459             -10.8994
       142        2.0000           -0.3991438             -10.8613
       143        2.0000           -0.3938280             -10.7166
       144        2.0000           -0.3882707             -10.5654
       145        2.0000           -0.3865724             -10.5192
       146        2.0000           -0.3784003             -10.2968
       147        2.0000           -0.3708650             -10.0917
       148        2.0000           -0.3634916              -9.8911 (HOMO)
       149                         -0.2816392              -7.6638 (LUMO)
       150                         -0.2703742              -7.3573
       151                         -0.2665437              -7.2530
       152                         -0.2562100              -6.9718
       153                         -0.2535262              -6.8988
       154                         -0.2501888              -6.8080
       155                         -0.2429399              -6.6107
       156                         -0.2396128              -6.5202
       157                         -0.2339533              -6.3662
       158                         -0.2323294              -6.3220
       159                         -0.2279317              -6.2023
       ...                                ...                  ...
       283                          0.7196078              19.5815
      -------------------------------------------------------------
                  HL-Gap            0.0818524 Eh            2.2273 eV

     #   Z          covCN         q      C6AA      α(0)
     1   9 F        0.791    -0.214    11.380     3.985
     2   6 C        3.336     0.487    17.271     6.581
     3   9 F        0.791    -0.221    11.456     3.998
     4   9 F        0.791    -0.213    11.375     3.984
     5   6 C        2.976    -0.025    28.619     8.775
     6   6 C        2.920    -0.017    28.438     8.745
     7   6 C        2.922    -0.032    28.789     8.799
     8   6 C        2.911     0.079    26.229     8.398
     9   7 N        2.840    -0.046    22.130     6.987
    10   6 C        3.182     0.130    24.747     8.120
    11   6 C        2.974    -0.003    28.093     8.694
    12   6 C        2.920    -0.036    28.905     8.816
    13   6 C        2.923    -0.033    28.831     8.805
    14   6 C        2.977     0.015    27.683     8.631
    15   6 C        2.976     0.013    27.721     8.636
    16   6 C        2.925    -0.031    28.775     8.797
    17   6 C        2.919    -0.038    28.950     8.823
    18   6 C        2.913     0.064    26.568     8.452
    19   7 N        2.850    -0.044    22.090     6.980
    20   6 C        3.158     0.128    24.911     8.160
    21   6 C        2.974    -0.001    28.041     8.686
    22   6 C        2.922    -0.036    28.889     8.814
    23   6 C        2.919    -0.030    28.740     8.791
    24   6 C        2.919    -0.030    28.742     8.792
    25   6 C        2.918    -0.028    28.702     8.785
    26   6 C        2.927    -0.030    28.744     8.792
    27   7 N        1.912    -0.316    29.037     7.989
    28   6 C        3.165     0.054    26.460     8.407
    29   6 C        2.973     0.006    27.883     8.662
    30   6 C        2.923    -0.039    28.964     8.826
    31   6 C        2.919    -0.031    28.785     8.798
    32   6 C        2.919    -0.034    28.835     8.806
    33   6 C        2.918    -0.031    28.778     8.797
    34   6 C        2.927    -0.032    28.786     8.799
    35   6 C        3.068     0.016    27.596     8.614
    36   6 C        2.971     0.006    27.885     8.662
    37   6 C        2.925    -0.033    28.821     8.804
    38   6 C        2.918    -0.028    28.709     8.786
    39   6 C        2.919    -0.031    28.769     8.796
    40   6 C        2.918    -0.030    28.740     8.791
    41   6 C        2.924    -0.034    28.857     8.809
    42   6 C        2.920    -0.039    28.966     8.826
    43   6 C        2.925    -0.031    28.778     8.797
    44   6 C        2.923    -0.031    28.778     8.797
    45   6 C        2.926    -0.027    28.686     8.783
    46   7 N        1.894    -0.302    28.674     7.939
    47   6 C        3.203     0.060    26.102     8.324
    48   6 C        2.985    -0.001    28.052     8.688
    49   6 C        2.921    -0.033    28.813     8.803
    50   6 C        2.917    -0.031    28.764     8.795
    51   6 C        2.917    -0.033    28.818     8.803
    52   6 C        2.921    -0.036    28.888     8.814
    53   6 C        2.979    -0.003    28.093     8.694
    54   6 C        2.979     0.001    28.001     8.680
    55   6 C        2.922    -0.034    28.846     8.808
    56   6 C        2.916    -0.032    28.809     8.802
    57   6 C        2.917    -0.031    28.784     8.798
    58   6 C        2.919    -0.042    29.041     8.837
    59   6 C        2.977    -0.004    28.115     8.698
    60   6 C        3.067     0.019    27.529     8.603
    61   6 C        2.922    -0.030    28.753     8.793
    62   6 C        2.919    -0.019    28.473     8.750
    63   1 H        0.926     0.072     2.062     2.246
    64   1 H        0.926     0.067     2.115     2.274
    65   1 H        0.926     0.031     2.572     2.508
    66   1 H        0.926     0.044     2.402     2.424
    67   1 H        0.926     0.050     2.320     2.382
    68   1 H        0.926     0.041     2.433     2.439
    69   1 H        0.926     0.028     2.618     2.530
    70   1 H        0.926     0.037     2.488     2.467
    71   1 H        0.926     0.039     2.468     2.457
    72   1 H        0.926     0.039     2.462     2.454
    73   1 H        0.926     0.044     2.395     2.420
    74   1 H        0.926     0.024     2.671     2.556
    75   1 H        0.926     0.030     2.589     2.516
    76   1 H        0.926     0.031     2.572     2.508
    77   1 H        0.926     0.031     2.565     2.505
    78   1 H        0.926     0.042     2.427     2.436
    79   1 H        0.926     0.029     2.596     2.520
    80   1 H        0.926     0.036     2.508     2.476
    81   1 H        0.926     0.036     2.500     2.472
    82   1 H        0.926     0.035     2.515     2.480
    83   1 H        0.926     0.026     2.648     2.545
    84   1 H        0.926     0.039     2.466     2.455
    85   1 H        0.926     0.048     2.339     2.391
    86   1 H        0.926     0.048     2.350     2.397
    87   1 H        0.926     0.051     2.311     2.377
    88   1 H        0.926     0.046     2.368     2.406
    89   1 H        0.926     0.035     2.523     2.484
    90   1 H        0.926     0.034     2.533     2.489
    91   1 H        0.926     0.037     2.492     2.469
    92   1 H        0.926     0.040     2.450     2.448
    93   1 H        0.926     0.035     2.518     2.481
    94   1 H        0.926     0.033     2.537     2.491
    95   1 H        0.926     0.028     2.608     2.525
    96   1 H        0.926     0.071     2.076     2.253
    97   1 H        0.926     0.073     2.056     2.242

molecular dipole:
                 x           y           z       tot (Debye)
 q only:       -1.493       1.088       0.342
   full:       -1.890       0.892       0.076       5.316

 projected vibrational frequencies (cm⁻¹)
eigval :       -0.00    -0.00    -0.00     0.00     0.00     0.00
eigval :        8.61     9.52    11.05    18.48    21.43    25.08
eigval :       25.98    32.41    35.17    38.21    43.79    49.32
eigval :       51.16    56.00    57.17    69.39    72.48    76.05
eigval :       82.71    90.04    95.92   101.87   114.69   120.07
eigval :      126.15   132.60   134.39   148.04   172.24   186.65
eigval :      187.17   205.32   219.17   229.81   237.30   239.96
eigval :      241.14   259.63   262.06   265.79   272.95   277.20
eigval :      308.67   338.70   351.44   354.53   369.69   369.91
eigval :      371.02   374.79   375.39   376.19   379.85   385.02
eigval :      394.34   396.92   402.32   410.91   414.99   431.36
eigval :      442.82   447.47   456.89   472.32   474.82   483.94
eigval :      496.88   499.05   512.15   518.88   523.22   528.91
eigval :      535.68   544.89   551.07   560.13   585.01   585.19
eigval :      586.35   589.55   598.42   601.36   604.44   623.34
eigval :      630.11   641.28   644.58   652.14   653.34   659.48
eigval :      662.35   669.05   672.64   674.77   677.30   682.20
eigval :      684.64   687.01   690.56   699.96   711.12   721.57
eigval :      735.09   745.52   758.10   761.82   763.01   765.32
eigval :      765.81   779.43   782.28   803.91   809.56   829.04
eigval :      834.73   862.17   868.02   870.79   872.86   873.84
eigval :      874.44   876.46   878.57   899.72   901.43   903.75
eigval :      908.47   913.30   914.99   916.67   920.84   924.60
eigval :      924.85   925.30   926.62   927.63   928.67   929.34
eigval :      929.69   930.31   930.95   932.24   938.14   941.91
eigval :      943.84   955.01   973.67   979.57   990.58   996.31
eigval :     1011.25  1015.39  1025.95  1034.21  1039.98  1065.11
eigval :     1068.20  1078.19  1080.47  1081.55  1082.40  1084.50
eigval :     1107.23  1109.50  1117.69  1119.85  1120.51  1129.45
eigval :     1133.38  1137.38  1140.96  1149.87  1164.18  1169.30
eigval :     1179.15  1179.67  1180.63  1180.68  1183.55  1186.94
eigval :     1189.32  1195.65  1197.98  1199.95  1200.35  1206.75
eigval :     1214.84  1244.23  1253.58  1257.55  1261.78  1264.05
eigval :     1267.64  1270.63  1278.34  1280.62  1280.98  1282.80
eigval :     1286.99  1308.69  1311.32  1314.01  1317.06  1317.53
eigval :     1318.87  1319.36  1323.93  1330.95  1336.79  1344.41
eigval :     1366.49  1370.48  1391.68  1397.84  1404.89  1405.86
eigval :     1411.55  1416.62  1427.21  1427.37  1429.89  1432.43
eigval :     1433.59  1448.65  1459.63  1463.32  1481.56  1487.06
eigval :     1496.86  1511.02  1514.44  1532.50  1541.63  1554.51
eigval :     1557.49  1561.81  1565.56  1569.29  1570.89  1577.05
eigval :     1578.84  1580.61  1586.36  1587.57  1592.55  1595.13
eigval :     1596.16  1598.25  1599.14  1603.13  3065.97  3069.11
eigval :     3070.93  3071.66  3072.60  3072.99  3075.93  3076.28
eigval :     3079.72  3080.19  3081.15  3081.37  3083.00  3083.43
eigval :     3084.73  3085.53  3085.86  3086.67  3087.30  3091.66
eigval :     3093.06  3093.96  3094.80  3096.36  3097.33  3098.21
eigval :     3098.40  3098.90  3100.17  3102.00  3102.50  3109.12
eigval :     3111.43  3112.36  3116.37

   temp. (K)  partition function   enthalpy   heat capacity  entropy
                                   cal/mol     cal/K/mol   cal/K/mol   J/K/mol
 298.15  VIB  0.314E+25            29493.526    180.652    186.742
         ROT  0.247E+09              888.752      2.981     41.388
         INT  0.777E+33            30382.278    183.633    228.130
         TR   0.223E+29             1481.254      4.968     45.928
         TOT                       31863.5321   188.6007   274.0584  1146.6601

       T/K    H(0)-H(T)+PV         H(T)/Eh          T*S/Eh         G(T)/Eh
   ------------------------------------------------------------------------
    298.15    0.507778E-01    0.777373E+00    0.130214E+00    0.647159E+00
   ------------------------------------------------------------------------

         :::::::::::::::::::::::::::::::::::::::::::::::::::::
         ::                  THERMODYNAMIC                  ::
         :::::::::::::::::::::::::::::::::::::::::::::::::::::
         :: total free energy        -161.015462745546 Eh   ::
         ::.................................................::
         :: total energy             -161.662621574083 Eh   ::
         :: zero point energy           0.726595024418 Eh   ::
         :: G(RRHO) w/o ZPVE           -0.079436195881 Eh   ::
         :: G(RRHO) contrib.            0.647158828537 Eh   ::
         :::::::::::::::::::::::::::::::::::::::::::::::::::::

           -------------------------------------------------
          | TOTAL ENERGY             -161.662621574083 Eh   |
          | TOTAL ENTHALPY           -160.885248779079 Eh   |
          | TOTAL FREE ENERGY        -161.015462745546 Eh   |
          | GRADIENT NORM               0.000037114679 Eh/α |
          | HOMO-LUMO GAP               2.227317060239 eV   |
           -------------------------------------------------

 * finished run on 2025/08/26 at 02:58:21.266
