   * xtb version 6.7.1 (edcfbbe) compiled by 'albert@albert-system' on 2024-07-22

   ID    Z sym.   atoms
    1    9 F      1, 3, 4
    2    6 C      2, 5-8, 10-18, 20-26, 28-45, 47-62
    3    7 N      9, 19, 27, 46
    4    1 H      63-97

          program call               : xtb data2507/toluene/PPI-PIM-2/PPI-PIM-2_toluene_S0_crest.xyz --gfn 2 --gbsa toluene --ohess vtight --parallel 40 --molden --ceasefiles --namespace data2507/toluene/PPI-PIM-2/PPI-PIM-2_toluene_S0_finalOpt
      * Solvation model:               GBSA
        Solvent                        toluene
        Solvent mass                       9.2140E+01 g/mol
          :  Hamiltonian                  GFN2-xTB          :
 * total energy  :  -161.6623935 Eh     change       -0.3958149E-08 Eh
 * total energy  :  -161.6624720 Eh     change       -0.7855243E-04 Eh
 * total energy  :  -161.6625051 Eh     change       -0.3309224E-04 Eh
 * total energy  :  -161.6625146 Eh     change       -0.9530749E-05 Eh
 * total energy  :  -161.6625242 Eh     change       -0.9519669E-05 Eh
 * total energy  :  -161.6625289 Eh     change       -0.4724302E-05 Eh
 * total energy  :  -161.6625317 Eh     change       -0.2771166E-05 Eh
 * total energy  :  -161.6625337 Eh     change       -0.2039130E-05 Eh
 * total energy  :  -161.6625353 Eh     change       -0.1635342E-05 Eh
 * total energy  :  -161.6625367 Eh     change       -0.1327352E-05 Eh
 * total energy  :  -161.6625582 Eh     change       -0.8333827E-06 Eh
 * total energy  :  -161.6625589 Eh     change       -0.7599027E-06 Eh
 * total energy  :  -161.6625596 Eh     change       -0.7011181E-06 Eh
 * total energy  :  -161.6625603 Eh     change       -0.6130139E-06 Eh
 * total energy  :  -161.6625610 Eh     change       -0.7967752E-06 Eh
 * total energy  :  -161.6625621 Eh     change       -0.1041724E-05 Eh
 * total energy  :  -161.6625633 Eh     change       -0.1212223E-05 Eh
 * total energy  :  -161.6625644 Eh     change       -0.1093923E-05 Eh
 * total energy  :  -161.6625644 Eh     change       -0.8671321E-08 Eh
   *** GEOMETRY OPTIMIZATION CONVERGED AFTER 44 ITERATIONS ***

 final structure:
================
97
 xtb: 6.7.1 (edcfbbe)
F           -2.59287006175472       -5.15933601331042       -2.00758380471100
C           -3.81527674602631       -5.03664932458018       -1.46086036975412
F           -4.67733455036120       -5.52570391905357       -2.38167553399543
F           -3.85425508779041       -5.89986993830653       -0.43197077656733
C           -4.14359758503747       -3.62736552331772       -1.06602004224318
C           -3.65575192505694       -2.57329933250135       -1.82971047141395
C           -3.97677513040975       -1.27434097803834       -1.48560347898572
C           -4.78737955687528       -1.02879176380297       -0.38025539600147
N           -5.07690857455328        0.29416004050400       -0.00899272432529
C           -4.13544582155040        1.23859465326524        0.35663037616322
C           -2.69935009666247        1.00983997223460        0.38728186182293
C           -2.13351364846209       -0.19330942142243        0.80712577908984
C           -0.76278315773305       -0.35491820770325        0.81323677605987
C            0.08358164442032        0.67940360427237        0.41723879418279
C            1.54155243337867        0.49559548608484        0.41915068910920
C            2.38765705327258        1.50971608483718        0.86477869234275
C            3.75740095788128        1.33647701871538        0.87507837608494
C            4.30773800099840        0.14097003032753        0.42555684417535
N            5.70369068274209       -0.03912040364309        0.41513994325957
C            6.41642972097610       -1.07480404942221        0.96220204982028
C            5.85688590110373       -2.15829974111868        1.75554677932341
C            4.76761488686624       -1.97601405089542        2.60624789670289
C            4.28098501632029       -3.03642323283472        3.34851226447656
C            4.87634757669515       -4.28424727396052        3.26213900233059
C            5.97562340773553       -4.46650202514672        2.43760349027509
C            6.46501090693487       -3.41238697960893        1.69071104103248
N            7.69682686604128       -0.94762997296713        0.71288391671180
C            7.85238036182008        0.19601742977267       -0.01232602522187
C            9.16896201575834        0.60203562361778       -0.48286065020113
C            9.33772396865709        1.37053053200692       -1.63362572058812
C           10.60485385203588        1.73486363405943       -2.04938032699076
C           11.72050802181574        1.33238529043593       -1.33302903983228
C           11.56283077763930        0.55053510156501       -0.19968983016277
C           10.29860383228999        0.18642447572360        0.22196053554801
C            6.61525205747585        0.78848971622113       -0.20516804414668
C            6.22895918354550        2.01867974628113       -0.88598981478447
C            6.89086183876735        3.21138304228789       -0.59507364364554
C            6.52591329736375        4.38455427066326       -1.22764312095245
C            5.49514696036195        4.38607489259712       -2.15447612931466
C            4.83617150695862        3.20494461925184       -2.45251818331835
C            5.19860708908050        2.02726332066334       -1.82462935361823
C            3.47524994736548       -0.87627155511934       -0.03034876432834
C            2.10652770775179       -0.69973061093525       -0.02436825406864
C           -0.48490173066084        1.89283966836838        0.03012651340560
C           -1.85391067190748        2.05651131862387        0.01550959660687
N           -4.68767658671657        2.37513731265428        0.69322098041000
C           -6.03004801627586        2.19971517506213        0.55883020351055
C           -7.06413132931682        3.13338407228901        0.85055975271634
C           -6.77312294065340        4.40811735782325        1.34901107519038
C           -7.78741250700561        5.27877212450343        1.66180030897247
C           -9.11090356843667        4.87956640160633        1.48339130509263
C           -9.40833277973686        3.63137841540369        0.98757872694834
C           -8.39962768913722        2.71724114157833        0.64454298457186
C           -8.67945519536301        1.40795438918282        0.07931785816766
C           -9.98743931038904        1.00569226827746       -0.22880198097840
C          -10.25971779197165       -0.20954764532223       -0.81168098088062
C           -9.22089460480707       -1.07801801209900       -1.13259117835920
C           -7.92622169549668       -0.72605888564065       -0.83931632802790
C           -7.62920465302745        0.49479003742435       -0.21573182404652
C           -6.30640122798076        0.91099107869000        0.10870650473528
C           -5.27579092409260       -2.09073649311532        0.38020716421848
C           -4.95896385613095       -3.38983415181881        0.03510821991946
H           -3.02787561822482       -2.77043286543473       -2.68456316324853
H           -3.60170484397184       -0.44770488384141       -2.06852615116460
H           -2.76133366218684       -0.99926606028785        1.15526377480714
H           -0.34083629601074       -1.28791097036007        1.15615204246560
H            1.96829070345766        2.43425276312499        1.23129136327462
H            4.40533033393556        2.12185699830797        1.23494695943920
H            4.31004517308460       -1.00257552770085        2.70350670883922
H            3.43538379597392       -2.88412416350861        4.00341367035322
H            4.49100221442193       -5.10932819745916        3.84286042702009
H            6.45151688589609       -5.43431899249667        2.37595010860330
H            7.32229612945933       -3.53734549298511        1.04683686220782
H            8.47544471347830        1.67338053542310       -2.20916179031461
H           10.72246778917042        2.33280573593101       -2.94202861832355
H           12.70859351321856        1.62109968931016       -1.66117037344381
H           12.42974492363163        0.22586378317408        0.35810232036515
H           10.16141397727101       -0.42458761555617        1.10140901443787
H            7.69174682013434        3.20675478345358        0.13043682556206
H            7.04514623947656        5.30240451693127       -0.99327991598294
H            5.20949146282134        5.30477647611945       -2.64512402622058
H            4.03660229488808        3.19819460764547       -3.17898971495853
H            4.69053754757105        1.10621490507908       -2.07264294747734
H            3.90837766906619       -1.79947884237741       -0.38680353452737
H            1.46939750948591       -1.48923581024073       -0.39314471367385
H            0.15324715518666        2.70531004539815       -0.28355955971936
H           -2.29433550212450        2.99349235435946       -0.28875144812083
H           -5.73567146961259        4.67340490526651        1.48411776588749
H           -7.56670577397480        6.26278965399816        2.04851368182084
H           -9.91313917814413        5.55742510735393        1.73733350736084
H          -10.44680429285192        3.36580247861190        0.87064985282903
H          -10.81360023099032        1.66517268372314       -0.01878600132491
H          -11.28037602575783       -0.48319068810486       -1.03501793576962
H           -9.42886353810068       -2.02137246654720       -1.61549860180310
H           -7.12409626329711       -1.39273630332629       -1.11205429746838
H           -5.90255379195944       -1.89127241380787        1.23608641260702
H           -5.33170763367392       -4.21501664438912        0.62170969966020

          :  Hamiltonian                  GFN2-xTB          :
         :: gradient norm              0.000072478993 Eh/a0 ::
         :: HOMO-LUMO gap              2.224627187003 eV    ::
         :: SCC energy              -164.432954572375 Eh    ::
         :: -> dispersion             -0.140287291617 Eh    ::
         :: -> Gsolv                  -0.065003190450 Eh    ::
         :: repulsion energy           2.770390167770 Eh    ::

    * Orbital Energies and Occupations

         #    Occupation            Energy/Eh            Energy/eV
      -------------------------------------------------------------
         1        2.0000           -0.8914575             -24.2578
       ...           ...                  ...                  ...
       136        2.0000           -0.4141968             -11.2709
       137        2.0000           -0.4104764             -11.1696
       138        2.0000           -0.4093387             -11.1387
       139        2.0000           -0.4081387             -11.1060
       140        2.0000           -0.4054583             -11.0331
       141        2.0000           -0.4004051             -10.8956
       142        2.0000           -0.3991244             -10.8607
       143        2.0000           -0.3937843             -10.7154
       144        2.0000           -0.3883900             -10.5686
       145        2.0000           -0.3865752             -10.5192
       146        2.0000           -0.3783680             -10.2959
       147        2.0000           -0.3709527             -10.0941
       148        2.0000           -0.3634426              -9.8898 (HOMO)
       149                         -0.2816890              -7.6651 (LUMO)
       150                         -0.2703441              -7.3564
       151                         -0.2664269              -7.2498
       152                         -0.2560746              -6.9681
       153                         -0.2535163              -6.8985
       154                         -0.2501220              -6.8062
       155                         -0.2431581              -6.6167
       156                         -0.2395568              -6.5187
       157                         -0.2340085              -6.3677
       158                         -0.2323135              -6.3216
       159                         -0.2281107              -6.2072
       ...                                ...                  ...
       283                          0.7194855              19.5782
      -------------------------------------------------------------
                  HL-Gap            0.0817536 Eh            2.2246 eV

     #   Z          covCN         q      C6AA      α(0)
     1   9 F        0.791    -0.214    11.383     3.985
     2   6 C        3.336     0.487    17.271     6.581
     3   9 F        0.791    -0.221    11.456     3.998
     4   9 F        0.791    -0.213    11.373     3.984
     5   6 C        2.976    -0.025    28.622     8.776
     6   6 C        2.920    -0.017    28.437     8.745
     7   6 C        2.922    -0.032    28.792     8.799
     8   6 C        2.911     0.079    26.230     8.398
     9   7 N        2.840    -0.046    22.127     6.986
    10   6 C        3.182     0.131    24.745     8.120
    11   6 C        2.974    -0.003    28.092     8.694
    12   6 C        2.920    -0.036    28.901     8.816
    13   6 C        2.924    -0.033    28.831     8.805
    14   6 C        2.976     0.015    27.683     8.630
    15   6 C        2.976     0.013    27.722     8.637
    16   6 C        2.925    -0.031    28.776     8.797
    17   6 C        2.919    -0.038    28.953     8.824
    18   6 C        2.913     0.064    26.569     8.452
    19   7 N        2.850    -0.044    22.088     6.980
    20   6 C        3.156     0.128    24.918     8.162
    21   6 C        2.974    -0.001    28.041     8.686
    22   6 C        2.922    -0.036    28.889     8.814
    23   6 C        2.919    -0.030    28.740     8.791
    24   6 C        2.919    -0.030    28.742     8.792
    25   6 C        2.918    -0.028    28.702     8.785
    26   6 C        2.927    -0.030    28.745     8.792
    27   7 N        1.912    -0.316    29.035     7.989
    28   6 C        3.163     0.054    26.472     8.409
    29   6 C        2.973     0.006    27.888     8.662
    30   6 C        2.923    -0.039    28.974     8.827
    31   6 C        2.919    -0.032    28.787     8.798
    32   6 C        2.919    -0.034    28.837     8.806
    33   6 C        2.918    -0.031    28.779     8.797
    34   6 C        2.927    -0.032    28.790     8.799
    35   6 C        3.068     0.016    27.593     8.613
    36   6 C        2.971     0.006    27.882     8.661
    37   6 C        2.925    -0.033    28.818     8.803
    38   6 C        2.918    -0.028    28.709     8.786
    39   6 C        2.919    -0.031    28.767     8.795
    40   6 C        2.918    -0.030    28.739     8.791
    41   6 C        2.924    -0.034    28.853     8.809
    42   6 C        2.920    -0.039    28.966     8.826
    43   6 C        2.925    -0.031    28.779     8.798
    44   6 C        2.923    -0.031    28.778     8.797
    45   6 C        2.926    -0.027    28.686     8.783
    46   7 N        1.894    -0.302    28.670     7.938
    47   6 C        3.202     0.060    26.106     8.325
    48   6 C        2.985    -0.001    28.051     8.688
    49   6 C        2.921    -0.033    28.813     8.802
    50   6 C        2.917    -0.031    28.764     8.795
    51   6 C        2.917    -0.033    28.818     8.803
    52   6 C        2.921    -0.036    28.888     8.814
    53   6 C        2.979    -0.003    28.093     8.694
    54   6 C        2.979     0.001    28.001     8.680
    55   6 C        2.922    -0.034    28.846     8.808
    56   6 C        2.916    -0.032    28.809     8.802
    57   6 C        2.917    -0.031    28.783     8.798
    58   6 C        2.919    -0.042    29.038     8.837
    59   6 C        2.978    -0.004    28.115     8.698
    60   6 C        3.067     0.018    27.529     8.604
    61   6 C        2.922    -0.030    28.756     8.794
    62   6 C        2.919    -0.019    28.474     8.751
    63   1 H        0.926     0.072     2.066     2.248
    64   1 H        0.926     0.067     2.115     2.274
    65   1 H        0.926     0.031     2.574     2.509
    66   1 H        0.926     0.044     2.401     2.423
    67   1 H        0.926     0.050     2.320     2.382
    68   1 H        0.926     0.041     2.433     2.439
    69   1 H        0.926     0.028     2.619     2.531
    70   1 H        0.926     0.037     2.489     2.467
    71   1 H        0.926     0.039     2.468     2.457
    72   1 H        0.926     0.039     2.462     2.454
    73   1 H        0.926     0.044     2.396     2.420
    74   1 H        0.926     0.024     2.667     2.554
    75   1 H        0.926     0.030     2.592     2.518
    76   1 H        0.926     0.031     2.575     2.509
    77   1 H        0.926     0.031     2.568     2.506
    78   1 H        0.926     0.042     2.419     2.432
    79   1 H        0.926     0.030     2.593     2.518
    80   1 H        0.926     0.036     2.505     2.475
    81   1 H        0.926     0.036     2.498     2.472
    82   1 H        0.926     0.035     2.514     2.480
    83   1 H        0.926     0.026     2.649     2.545
    84   1 H        0.926     0.039     2.466     2.455
    85   1 H        0.926     0.049     2.338     2.391
    86   1 H        0.926     0.048     2.348     2.396
    87   1 H        0.926     0.050     2.314     2.379
    88   1 H        0.926     0.046     2.368     2.406
    89   1 H        0.926     0.035     2.523     2.484
    90   1 H        0.926     0.034     2.533     2.489
    91   1 H        0.926     0.037     2.492     2.468
    92   1 H        0.926     0.040     2.450     2.448
    93   1 H        0.926     0.035     2.517     2.481
    94   1 H        0.926     0.034     2.537     2.491
    95   1 H        0.926     0.028     2.609     2.526
    96   1 H        0.926     0.071     2.078     2.254
    97   1 H        0.926     0.073     2.055     2.241

molecular dipole:
                 x           y           z       tot (Debye)
 q only:       -1.496       1.142       0.252
   full:       -1.896       0.927       0.007       5.365

 projected vibrational frequencies (cm⁻¹)
eigval :       -0.00    -0.00     0.00     0.00     0.00     0.00
eigval :        6.84     7.21    10.48    17.96    18.35    21.80
eigval :       23.81    30.90    34.94    39.50    43.06    47.32
eigval :       51.29    53.10    57.05    67.95    74.08    77.87
eigval :       81.18    88.31    94.89   101.86   114.48   121.00
eigval :      125.45   131.72   134.03   148.52   171.98   185.53
eigval :      186.53   205.85   219.02   230.20   237.60   240.01
eigval :      241.17   259.29   261.67   264.97   271.62   277.69
eigval :      306.94   336.77   351.64   354.88   368.87   369.85
eigval :      372.80   373.52   374.74   378.14   378.79   384.20
eigval :      394.19   396.71   402.06   410.99   414.69   430.86
eigval :      441.95   447.83   456.34   471.97   475.03   483.44
eigval :      495.88   499.21   511.34   518.13   522.90   529.15
eigval :      534.18   544.58   550.82   559.10   584.91   585.04
eigval :      586.77   589.55   598.23   601.27   604.20   623.40
eigval :      630.22   641.13   644.28   652.02   653.67   659.42
eigval :      661.73   669.68   672.56   673.76   676.79   681.85
eigval :      683.68   686.32   689.51   699.55   710.50   721.29
eigval :      734.60   745.02   756.77   761.83   763.18   765.22
eigval :      765.81   779.54   781.86   803.68   806.69   826.14
eigval :      832.25   862.49   864.64   867.60   871.89   872.80
eigval :      873.99   878.05   879.37   900.35   902.38   903.24
eigval :      907.35   909.75   911.09   913.36   917.61   922.69
eigval :      923.08   924.39   925.95   926.79   928.75   930.30
eigval :      930.96   931.04   933.05   933.24   938.03   941.99
eigval :      943.75   954.89   973.77   979.56   990.65   996.18
eigval :     1011.39  1015.53  1026.06  1034.41  1039.20  1064.77
eigval :     1067.41  1078.97  1080.71  1081.44  1082.88  1085.36
eigval :     1107.34  1109.83  1118.19  1120.16  1120.83  1130.19
eigval :     1134.47  1134.81  1143.60  1149.87  1163.91  1169.91
eigval :     1179.20  1180.26  1181.61  1182.11  1183.28  1185.15
eigval :     1190.42  1195.88  1198.05  1200.36  1202.37  1206.48
eigval :     1215.42  1244.10  1253.78  1257.61  1260.35  1265.98
eigval :     1270.24  1271.17  1278.51  1281.59  1282.31  1283.31
eigval :     1287.48  1308.41  1311.52  1314.05  1316.92  1317.35
eigval :     1318.78  1319.54  1323.77  1330.54  1336.99  1344.37
eigval :     1366.28  1370.39  1392.17  1397.66  1404.85  1405.87
eigval :     1412.01  1416.97  1427.75  1428.11  1430.28  1432.73
eigval :     1433.55  1448.91  1459.90  1464.24  1481.44  1487.27
eigval :     1497.12  1511.29  1514.70  1532.73  1541.95  1554.48
eigval :     1557.76  1561.74  1565.60  1569.18  1570.85  1577.44
eigval :     1578.88  1580.70  1586.35  1587.74  1592.78  1595.17
eigval :     1596.28  1598.44  1599.55  1603.16  3066.19  3069.25
eigval :     3071.30  3071.50  3072.06  3072.65  3076.14  3076.16
eigval :     3079.39  3080.97  3081.61  3082.20  3083.18  3083.52
eigval :     3084.54  3085.80  3086.11  3087.48  3088.55  3090.80
eigval :     3093.31  3094.72  3095.73  3096.73  3098.23  3098.25
eigval :     3098.33  3098.44  3100.41  3100.73  3102.11  3108.50
eigval :     3110.39  3111.59  3115.30

   temp. (K)  partition function   enthalpy   heat capacity  entropy
                                   cal/mol     cal/K/mol   cal/K/mol   J/K/mol
 298.15  VIB  0.944E+25            29539.800    180.557    187.783
         ROT  0.247E+09              888.752      2.981     41.381
         INT  0.233E+34            30428.552    183.538    229.164
         TR   0.223E+29             1481.254      4.968     45.928
         TOT                       31909.8063   188.5063   275.0925  1150.9871

       T/K    H(0)-H(T)+PV         H(T)/Eh          T*S/Eh         G(T)/Eh
   ------------------------------------------------------------------------
    298.15    0.508515E-01    0.777328E+00    0.130705E+00    0.646623E+00
   ------------------------------------------------------------------------

         :::::::::::::::::::::::::::::::::::::::::::::::::::::
         ::                  THERMODYNAMIC                  ::
         :::::::::::::::::::::::::::::::::::::::::::::::::::::
         :: total free energy        -161.015941577502 Eh   ::
         ::.................................................::
         :: total energy             -161.662564400264 Eh   ::
         :: zero point energy           0.726476637673 Eh   ::
         :: G(RRHO) w/o ZPVE           -0.079853814911 Eh   ::
         :: G(RRHO) contrib.            0.646622822762 Eh   ::
         :::::::::::::::::::::::::::::::::::::::::::::::::::::

           -------------------------------------------------
          | TOTAL ENERGY             -161.662564400264 Eh   |
          | TOTAL ENTHALPY           -160.885236249378 Eh   |
          | TOTAL FREE ENERGY        -161.015941577502 Eh   |
          | GRADIENT NORM               0.000072493024 Eh/α |
          | HOMO-LUMO GAP               2.224628100991 eV   |
           -------------------------------------------------

 * finished run on 2025/08/26 at 03:03:34.078
