   * xtb version 6.7.1 (edcfbbe) compiled by 'albert@albert-system' on 2024-07-22

   ID    Z sym.   atoms
    1    9 F      1, 3, 4
    2    6 C      2, 5-8, 10-18, 20-26, 28-45, 47-62
    3    7 N      9, 19, 27, 46
    4    1 H      63-97

          program call               : xtb data2507/toluene/PPI-PIM-2/PPI-PIM-2_toluene_S0_finalOpt.xtbopt.xyz --gfn 2 --uhf 2 --gbsa toluene --ohess vtight --parallel 40 --molden --ceasefiles --namespace data2507/toluene/PPI-PIM-2/PPI-PIM-2_toluene_T1_preOpt
      * Solvation model:               GBSA
        Solvent                        toluene
        Solvent mass                       9.2140E+01 g/mol
          :  Hamiltonian                  GFN2-xTB          :
 * total energy  :  -161.5675996 Eh     change       -0.1227647E-08 Eh
 * total energy  :  -161.5725563 Eh     change       -0.4956748E-02 Eh
 * total energy  :  -161.5752382 Eh     change       -0.2681916E-02 Eh
 * total energy  :  -161.5759935 Eh     change       -0.7552535E-03 Eh
 * total energy  :  -161.5768588 Eh     change       -0.8653365E-03 Eh
 * total energy  :  -161.5773045 Eh     change       -0.4456783E-03 Eh
 * total energy  :  -161.5775866 Eh     change       -0.2821272E-03 Eh
 * total energy  :  -161.5777622 Eh     change       -0.1755438E-03 Eh
 * total energy  :  -161.5778924 Eh     change       -0.1302175E-03 Eh
 * total energy  :  -161.5779764 Eh     change       -0.8402246E-04 Eh
 * total energy  :  -161.5784203 Eh     change       -0.5228522E-06 Eh
 * total energy  :  -161.5784207 Eh     change       -0.4069909E-06 Eh
 * total energy  :  -161.5784210 Eh     change       -0.2815451E-06 Eh
 * total energy  :  -161.5784212 Eh     change       -0.2428123E-06 Eh
 * total energy  :  -161.5784215 Eh     change       -0.2318257E-06 Eh
 * total energy  :  -161.5784216 Eh     change       -0.1590437E-06 Eh
 * total energy  :  -161.5784218 Eh     change       -0.1635981E-06 Eh
 * total energy  :  -161.5784219 Eh     change       -0.1234108E-06 Eh
 * total energy  :  -161.5784220 Eh     change       -0.8321510E-07 Eh
   *** GEOMETRY OPTIMIZATION CONVERGED AFTER 88 ITERATIONS ***

 final structure:
================
97
 xtb: 6.7.1 (edcfbbe)
F           -3.09981139280937       -5.52420045177415       -1.94601060979698
C           -4.30859747070679       -5.27845630458844       -1.40382333865727
F           -5.20569739018758       -5.71570613608144       -2.32589209105669
F           -4.42862363502039       -6.12572264470084       -0.36499498941428
C           -4.51108503978620       -3.84758277664646       -1.03368404322738
C           -3.93251816040621       -2.84509255407988       -1.81461394193069
C           -4.13547031198325       -1.52293529377666       -1.49303540547607
C           -4.93162625459896       -1.17949950440372       -0.39080192722474
N           -5.12097450107213        0.16052116212552       -0.06008639167187
C           -4.09150726392761        1.10730761929245        0.14924536874960
C           -2.71000140935639        0.87360706633211        0.22574798938404
C           -2.09116606070374       -0.39513842303408        0.40845677115955
C           -0.73422648488883       -0.51457954221269        0.46077040980140
C            0.12732414495598        0.60381981345785        0.35008919245720
C            1.55902360702150        0.45473682757637        0.37540525230623
C            2.40261412060445        1.49886898188474        0.80560618812277
C            3.76840975696235        1.35453526309579        0.83193635618592
C            4.35585559065268        0.15630576413410        0.42123122672396
N            5.75129084351011        0.00591184720029        0.42264952439272
C            6.47587822627743       -1.02470403104756        0.97825345192259
C            5.92931612856811       -2.11657968623980        1.76417322900893
C            4.81701981046874       -1.96203760621999        2.59205011196490
C            4.34707927690585       -3.03284580594797        3.32932446896848
C            4.98064653174903       -4.26332229093203        3.26127573106604
C            6.10281940991131       -4.41711210879323        2.46144463089724
C            6.57781802773073       -3.35266807056094        1.72091083398883
N            7.75758147501206       -0.87366679491532        0.74791921357028
C            7.90618943136648        0.27652272642586        0.03725770852439
C            9.21866283341484        0.69645803721473       -0.42216167076739
C            9.38902109040919        1.49040828534901       -1.55713924181684
C           10.65673907701092        1.86069066289044       -1.96386631049491
C           11.77146977546584        1.44207856650850       -1.25415214959273
C           11.61264316566617        0.63623475931038       -0.13711131383654
C           10.34859561766767        0.26279619587787        0.27472988480711
C            6.65548658219696        0.85495702259928       -0.16666003239379
C            6.27012984313589        2.08489058003213       -0.84635234253317
C            6.92007885661047        3.28066061916897       -0.53874368157325
C            6.55752166724170        4.45416046077466       -1.17202866101992
C            5.54396628082862        4.45204729163800       -2.11764886311905
C            4.89754550663695        3.26767736282548       -2.43231682444618
C            5.25485309978619        2.09010226244519       -1.80212830759653
C            3.54141768381276       -0.89244863963698       -0.01410318811982
C            2.17654272261779       -0.74586389451758       -0.03135407980526
C           -0.49144831405122        1.87482128620394        0.23502879971162
C           -1.84402487165172        2.00739084178714        0.17981483433951
N           -4.61418666555589        2.32729591413582        0.37626911662186
C           -5.93177845150467        2.18697215043892        0.38242148543604
C           -6.90855038176625        3.18475564403503        0.67198701010186
C           -6.52447909346757        4.47555820057999        1.04583054681321
C           -7.47425572581547        5.41606699092133        1.37867707605079
C           -8.81805451462716        5.06241760149623        1.35034879104157
C           -9.20775072689572        3.79205162927200        0.97326441842724
C           -8.27193516826954        2.81640892762348        0.60840235312565
C           -8.64980385537497        1.48703055255904        0.15016399000455
C           -9.98601479924640        1.14535475693946       -0.06340607824637
C          -10.36234710420434       -0.08902190274216       -0.55386707737556
C           -9.39071354220087       -1.03311834814080       -0.88033576968239
C           -8.06610063439022       -0.74611497687707       -0.67724827873527
C           -7.65529837935480        0.49456166907519       -0.13869963157169
C           -6.30952551724237        0.84319487686558        0.08227511945340
C           -5.51504260502676       -2.19268155929002        0.38334935096852
C           -5.30646835831250       -3.51513087601610        0.06501124125327
H           -3.32781180328302       -3.11239188184953       -2.66732875021051
H           -3.68856877667122       -0.74182193482529       -2.08796604132140
H           -2.69948832464974       -1.27017202817462        0.56870382135431
H           -0.30848657208143       -1.48994139054614        0.64265705451145
H            1.97165852227534        2.42114021520251        1.16129716094839
H            4.39518070680667        2.16053354892042        1.18422980461367
H            4.33055667846460       -1.00177006558359        2.67668657449386
H            3.48393689949548       -2.90273933661715        3.96559780827977
H            4.60702889321750       -5.09672249068149        3.83751383483608
H            6.60725562954809       -5.37101205124635        2.41455772672388
H            7.45099554211632       -3.45531194813029        1.09496472677850
H            8.52833153621153        1.80296901917698       -2.12902405534357
H           10.77627121482072        2.47549026408732       -2.84438078116637
H           12.75992404457222        1.73638314106766       -1.57542614497542
H           12.47881749328866        0.29995702012676        0.41434867823865
H           10.20920805598907       -0.36579029554819        1.14105587017737
H            7.70683078548691        3.27882659818848        0.20184754364076
H            7.06561134737751        5.37449251908418       -0.92416939920713
H            5.26051716677216        5.37064844338206       -2.60949354905975
H            4.11109882753986        3.25890365398467       -3.17268084933849
H            4.75592526003457        1.16727330527389       -2.06101841574071
H            3.99761098077525       -1.81319655435064       -0.34821993793658
H            1.57158132503316       -1.55658694875011       -0.40569068179069
H            0.12529346175300        2.75571971251959        0.14497829905416
H           -2.30426947822155        2.97641203802921        0.06965028511372
H           -5.46966535988491        4.70130560428056        1.07252109025386
H           -7.17956782852274        6.41361559009287        1.66762522032271
H           -9.57005711856872        5.78775818601065        1.62502708289542
H          -10.26154663999925        3.56488945515600        0.97275536548751
H          -10.76218277691593        1.86438886300263        0.14201858214890
H          -11.40756176588719       -0.31358966803721       -0.70350587591171
H           -9.67825638482781       -1.98628528607292       -1.29850498816659
H           -7.32090478514510       -1.47042768566041       -0.96027941251152
H           -6.11937612784506       -1.92685621962263        1.23717308049082
H           -5.74321922092002       -4.29626263348622        0.66776766304839

          :  Hamiltonian                  GFN2-xTB          :
         :: gradient norm              0.000035747219 Eh/a0 ::
         :: HOMO-LUMO gap              0.526765043308 eV    ::
         :: SCC energy              -164.328779807926 Eh    ::
         :: -> dispersion             -0.140254566136 Eh    ::
         :: -> Gsolv                  -0.064029996904 Eh    ::
         :: repulsion energy           2.750357795070 Eh    ::

    * Orbital Energies and Occupations

         #    Occupation            Energy/Eh            Energy/eV
      -------------------------------------------------------------
         1        2.0000           -0.8847060             -24.0741
       ...           ...                  ...                  ...
       137        2.0000           -0.4112567             -11.1909
       138        2.0000           -0.4111786             -11.1887
       139        2.0000           -0.4094805             -11.1425
       140        2.0000           -0.4057668             -11.0415
       141        2.0000           -0.4051257             -11.0240
       142        2.0000           -0.4025664             -10.9544
       143        2.0000           -0.3921637             -10.6713
       144        2.0000           -0.3912390             -10.6462
       145        2.0000           -0.3866444             -10.5211
       146        2.0000           -0.3850413             -10.4775
       147        1.9351           -0.3690420             -10.0421
       148        1.0649           -0.3639745              -9.9043
       149        1.0000           -0.2875541              -7.8247 (HOMO)
       150        0.0000           -0.2681953              -7.2980 (LUMO)
       151                         -0.2597950              -7.0694
       152                         -0.2560517              -6.9675
       153                         -0.2543170              -6.9203
       154                         -0.2516411              -6.8475
       155                         -0.2487556              -6.7690
       156                         -0.2357906              -6.4162
       157                         -0.2345535              -6.3825
       158                         -0.2305084              -6.2725
       159                         -0.2276858              -6.1956
       160                         -0.2236088              -6.0847
       ...                                ...                  ...
       283                          0.7177874              19.5320
      -------------------------------------------------------------
                  HL-Gap            0.0193587 Eh            0.5268 eV

     #   Z          covCN         q      C6AA      α(0)
     1   9 F        0.791    -0.220    11.448     3.997
     2   6 C        3.336     0.485    17.296     6.586
     3   9 F        0.790    -0.230    11.551     4.015
     4   9 F        0.791    -0.219    11.434     3.994
     5   6 C        2.975    -0.044    29.098     8.848
     6   6 C        2.918    -0.023    28.581     8.767
     7   6 C        2.920    -0.038    28.940     8.822
     8   6 C        2.908     0.065    26.543     8.448
     9   7 N        2.813    -0.054    22.275     7.010
    10   6 C        3.138     0.124    25.077     8.196
    11   6 C        2.968    -0.009    28.231     8.715
    12   6 C        2.911    -0.041    29.030     8.835
    13   6 C        2.916    -0.034    28.851     8.808
    14   6 C        2.971     0.007    27.862     8.658
    15   6 C        2.971     0.011    27.778     8.645
    16   6 C        2.923    -0.034    28.856     8.809
    17   6 C        2.915    -0.039    28.982     8.828
    18   6 C        2.913     0.055    26.775     8.485
    19   7 N        2.846    -0.034    21.893     6.949
    20   6 C        3.157     0.130    24.872     8.154
    21   6 C        2.974     0.001    28.005     8.680
    22   6 C        2.922    -0.033    28.831     8.805
    23   6 C        2.918    -0.028    28.706     8.786
    24   6 C        2.919    -0.027    28.683     8.783
    25   6 C        2.918    -0.027    28.673     8.781
    26   6 C        2.927    -0.028    28.712     8.787
    27   7 N        1.910    -0.306    28.773     7.953
    28   6 C        3.163     0.059    26.351     8.390
    29   6 C        2.973     0.008    27.831     8.653
    30   6 C        2.922    -0.037    28.914     8.818
    31   6 C        2.918    -0.030    28.741     8.791
    32   6 C        2.919    -0.030    28.743     8.792
    33   6 C        2.918    -0.029    28.731     8.790
    34   6 C        2.927    -0.029    28.729     8.790
    35   6 C        3.067     0.021    27.482     8.596
    36   6 C        2.971     0.007    27.856     8.657
    37   6 C        2.925    -0.032    28.789     8.799
    38   6 C        2.918    -0.027    28.686     8.783
    39   6 C        2.919    -0.029    28.713     8.787
    40   6 C        2.918    -0.028    28.700     8.785
    41   6 C        2.923    -0.032    28.800     8.801
    42   6 C        2.916    -0.040    28.984     8.828
    43   6 C        2.923    -0.035    28.864     8.810
    44   6 C        2.915    -0.035    28.872     8.811
    45   6 C        2.922    -0.032    28.795     8.800
    46   7 N        1.881    -0.305    28.745     7.948
    47   6 C        3.166     0.083    25.825     8.304
    48   6 C        2.984    -0.003    28.105     8.696
    49   6 C        2.922    -0.026    28.650     8.778
    50   6 C        2.916    -0.030    28.740     8.791
    51   6 C        2.917    -0.026    28.659     8.779
    52   6 C        2.922    -0.033    28.827     8.805
    53   6 C        2.977     0.002    27.977     8.676
    54   6 C        2.977     0.001    27.997     8.679
    55   6 C        2.920    -0.032    28.793     8.799
    56   6 C        2.916    -0.030    28.752     8.793
    57   6 C        2.914    -0.030    28.747     8.792
    58   6 C        2.918    -0.038    28.952     8.824
    59   6 C        2.973    -0.007    28.195     8.710
    60   6 C        3.034     0.033    27.238     8.560
    61   6 C        2.919    -0.038    28.957     8.824
    62   6 C        2.917    -0.025    28.627     8.774
    63   1 H        0.926     0.058     2.227     2.334
    64   1 H        0.926     0.056     2.249     2.345
    65   1 H        0.926     0.027     2.625     2.533
    66   1 H        0.926     0.037     2.486     2.466
    67   1 H        0.926     0.047     2.357     2.401
    68   1 H        0.926     0.038     2.480     2.463
    69   1 H        0.926     0.032     2.563     2.504
    70   1 H        0.926     0.039     2.455     2.450
    71   1 H        0.926     0.041     2.431     2.438
    72   1 H        0.926     0.042     2.420     2.433
    73   1 H        0.926     0.048     2.351     2.398
    74   1 H        0.926     0.029     2.594     2.519
    75   1 H        0.926     0.034     2.525     2.485
    76   1 H        0.926     0.036     2.506     2.475
    77   1 H        0.926     0.036     2.501     2.473
    78   1 H        0.926     0.047     2.357     2.401
    79   1 H        0.926     0.033     2.545     2.495
    80   1 H        0.926     0.039     2.462     2.454
    81   1 H        0.926     0.039     2.460     2.453
    82   1 H        0.926     0.038     2.481     2.463
    83   1 H        0.926     0.028     2.609     2.526
    84   1 H        0.926     0.035     2.519     2.482
    85   1 H        0.926     0.045     2.389     2.417
    86   1 H        0.926     0.042     2.422     2.434
    87   1 H        0.926     0.052     2.296     2.370
    88   1 H        0.926     0.052     2.291     2.367
    89   1 H        0.926     0.042     2.428     2.437
    90   1 H        0.926     0.042     2.423     2.434
    91   1 H        0.926     0.044     2.403     2.424
    92   1 H        0.926     0.044     2.393     2.419
    93   1 H        0.926     0.039     2.460     2.453
    94   1 H        0.926     0.036     2.502     2.474
    95   1 H        0.926     0.034     2.527     2.486
    96   1 H        0.926     0.058     2.219     2.329
    97   1 H        0.926     0.059     2.215     2.327

molecular dipole:
                 x           y           z       tot (Debye)
 q only:        0.013       2.475       0.622
   full:       -0.455       2.192       0.410       5.784

 projected vibrational frequencies (cm⁻¹)
eigval :       -0.00    -0.00    -0.00    -0.00     0.00     0.00
eigval :        7.00     7.90    10.85    15.23    18.58    23.21
eigval :       23.89    33.63    35.73    39.93    44.74    48.64
eigval :       49.78    55.37    55.78    68.15    78.07    80.40
eigval :       83.42    88.77    98.95   105.20   116.56   123.90
eigval :      128.92   132.70   138.56   152.11   173.02   180.99
eigval :      187.62   202.42   220.72   226.88   237.38   240.18
eigval :      241.26   255.09   259.38   260.32   268.60   281.47
eigval :      302.73   322.35   345.71   353.35   364.34   369.02
eigval :      371.59   373.23   376.54   377.14   379.30   383.26
eigval :      388.35   391.70   394.87   404.74   410.46   413.14
eigval :      428.25   445.97   448.19   458.17   460.15   475.96
eigval :      482.74   492.73   498.09   504.99   513.17   518.50
eigval :      525.10   525.58   543.54   555.86   581.65   583.59
eigval :      585.86   587.97   590.23   595.04   599.39   611.62
eigval :      621.65   623.35   635.57   644.60   649.98   657.45
eigval :      658.72   660.09   663.66   669.42   671.15   671.75
eigval :      674.34   676.52   683.68   685.12   690.70   715.23
eigval :      728.85   740.03   752.15   754.83   757.09   761.61
eigval :      764.03   775.16   775.99   792.19   796.23   813.25
eigval :      815.73   820.68   840.28   852.30   859.91   867.81
eigval :      874.43   875.81   876.42   899.44   901.59   902.88
eigval :      904.68   905.70   905.74   910.00   911.66   913.98
eigval :      914.62   915.75   917.47   922.32   924.90   927.86
eigval :      928.51   929.86   930.08   931.68   931.76   932.04
eigval :      936.77   940.76   956.32   961.79   973.58   980.98
eigval :      988.30   998.46  1006.43  1025.24  1027.31  1043.62
eigval :     1051.64  1057.79  1079.27  1080.44  1080.81  1081.79
eigval :     1090.77  1102.92  1105.38  1117.77  1118.73  1119.99
eigval :     1132.78  1133.44  1138.73  1150.22  1154.46  1158.98
eigval :     1169.64  1176.23  1176.88  1178.58  1179.29  1180.53
eigval :     1185.68  1192.27  1194.76  1196.76  1199.42  1201.79
eigval :     1213.34  1227.54  1237.05  1245.26  1248.50  1253.94
eigval :     1261.52  1262.03  1272.32  1277.24  1278.92  1280.21
eigval :     1281.68  1283.23  1306.48  1311.95  1314.55  1319.32
eigval :     1321.81  1325.17  1326.74  1328.56  1332.13  1333.46
eigval :     1348.27  1357.75  1385.76  1390.42  1394.75  1404.16
eigval :     1409.94  1415.24  1419.89  1425.07  1426.87  1427.50
eigval :     1430.27  1437.85  1442.40  1448.81  1455.37  1461.09
eigval :     1469.50  1472.29  1480.04  1481.88  1493.39  1503.36
eigval :     1511.84  1524.92  1527.58  1537.30  1540.65  1549.58
eigval :     1560.82  1571.99  1574.10  1574.52  1576.24  1579.18
eigval :     1586.22  1589.60  1592.72  1592.84  3070.66  3073.87
eigval :     3073.98  3075.05  3075.25  3076.80  3078.30  3078.97
eigval :     3080.07  3081.56  3083.64  3084.14  3085.33  3086.22
eigval :     3087.44  3087.91  3089.40  3090.07  3093.59  3093.78
eigval :     3094.05  3095.11  3096.45  3098.92  3100.40  3101.65
eigval :     3101.94  3104.19  3104.74  3104.91  3106.99  3108.77
eigval :     3112.50  3113.61  3128.03

   temp. (K)  partition function   enthalpy   heat capacity  entropy
                                   cal/mol     cal/K/mol   cal/K/mol   J/K/mol
 298.15  VIB  0.779E+25            29777.629    182.743    188.663
         ROT  0.255E+09              888.752      2.981     41.449
         INT  0.199E+34            30666.381    185.724    230.112
         TR   0.223E+29             1481.254      4.968     45.928
         TOT                       32147.6352   190.6920   276.0402  1154.9521

       T/K    H(0)-H(T)+PV         H(T)/Eh          T*S/Eh         G(T)/Eh
   ------------------------------------------------------------------------
    298.15    0.512305E-01    0.773424E+00    0.131156E+00    0.642268E+00
   ------------------------------------------------------------------------

         :::::::::::::::::::::::::::::::::::::::::::::::::::::
         ::                  THERMODYNAMIC                  ::
         :::::::::::::::::::::::::::::::::::::::::::::::::::::
         :: total free energy        -160.936153568595 Eh   ::
         ::.................................................::
         :: total energy             -161.578422010868 Eh   ::
         :: zero point energy           0.722193521072 Eh   ::
         :: G(RRHO) w/o ZPVE           -0.079925078799 Eh   ::
         :: G(RRHO) contrib.            0.642268442273 Eh   ::
         :::::::::::::::::::::::::::::::::::::::::::::::::::::

           -------------------------------------------------
          | TOTAL ENERGY             -161.578422010868 Eh   |
          | TOTAL ENTHALPY           -160.804997972178 Eh   |
          | TOTAL FREE ENERGY        -160.936153568595 Eh   |
          | GRADIENT NORM               0.000041204548 Eh/α |
          | HOMO-LUMO GAP               0.526778304946 eV   |
           -------------------------------------------------

 * finished run on 2025/08/26 at 03:03:51.167
