   * xtb version 6.7.1 (edcfbbe) compiled by 'albert@albert-system' on 2024-07-22

   ID    Z sym.   atoms
    1    9 F      1, 3, 4
    2    6 C      2, 5-8, 10-18, 20-26, 28-45, 47-62
    3    7 N      9, 19, 27, 46
    4    1 H      63-97

          program call               : xtb data2507/toluene/PPI-PIM-2/PPI-PIM-2_toluene_T1_crest.xyz --gfn 2 --uhf 2 --gbsa toluene --ohess vtight --parallel 40 --molden --ceasefiles --namespace data2507/toluene/PPI-PIM-2/PPI-PIM-2_toluene_T1_finalOpt
      * Solvation model:               GBSA
        Solvent                        toluene
        Solvent mass                       9.2140E+01 g/mol
          :  Hamiltonian                  GFN2-xTB          :
 * total energy  :  -161.5782680 Eh     change       -0.2727751E-07 Eh
 * total energy  :  -161.5783371 Eh     change       -0.6909410E-04 Eh
 * total energy  :  -161.5783678 Eh     change       -0.3069523E-04 Eh
 * total energy  :  -161.5783759 Eh     change       -0.8145691E-05 Eh
 * total energy  :  -161.5783830 Eh     change       -0.7068041E-05 Eh
 * total energy  :  -161.5783831 Eh     change       -0.1150657E-06 Eh
 * total energy  :  -161.5783866 Eh     change       -0.3518919E-05 Eh
 * total energy  :  -161.5783890 Eh     change       -0.2373927E-05 Eh
 * total energy  :  -161.5783906 Eh     change       -0.1615407E-05 Eh
 * total energy  :  -161.5783922 Eh     change       -0.1636178E-05 Eh
 * total energy  :  -161.5784154 Eh     change       -0.8429843E-06 Eh
 * total energy  :  -161.5784161 Eh     change       -0.7054862E-06 Eh
 * total energy  :  -161.5784169 Eh     change       -0.7721567E-06 Eh
 * total energy  :  -161.5784177 Eh     change       -0.8332046E-06 Eh
 * total energy  :  -161.5784185 Eh     change       -0.8008919E-06 Eh
 * total energy  :  -161.5784191 Eh     change       -0.6268976E-06 Eh
 * total energy  :  -161.5784196 Eh     change       -0.4489332E-06 Eh
 * total energy  :  -161.5784200 Eh     change       -0.4085535E-06 Eh
 * total energy  :  -161.5784200 Eh     change       -0.3719663E-08 Eh
   *** GEOMETRY OPTIMIZATION CONVERGED AFTER 44 ITERATIONS ***

 final structure:
================
97
 xtb: 6.7.1 (edcfbbe)
F           -3.16828105366874       -5.46231603450578       -1.89151685715696
C           -4.36741686092019       -5.19872747150730       -1.33661510513235
F           -5.28064464395936       -5.62539167382721       -2.24776285413551
F           -4.48769468630368       -6.04216001121460       -0.29463175779875
C           -4.54614577712393       -3.76449134862741       -0.96725570980731
C           -3.95705429110178       -2.77151216826927       -1.75241843557417
C           -4.13877169119042       -1.44616390717911       -1.43129553830074
C           -4.92412274565408       -1.08989059097980       -0.32539767064542
N           -5.09198535352313        0.25318059613199        0.00461673449509
C           -4.04738041374694        1.18452569759779        0.20832179422749
C           -2.66942650093613        0.92915579919463        0.27845122458029
C           -2.07031270002702       -0.34944758856867        0.45865799847092
C           -0.71519640712584       -0.49141086350673        0.49970648978422
C            0.16356326817585        0.61254897759264        0.38069774938471
C            1.59280367344587        0.43932595955875        0.39046232638582
C            2.45836113600673        1.46709341500416        0.81603378849103
C            3.82185665080439        1.30045779427060        0.82396656628320
C            4.38454259464898        0.09564445920704        0.39803602028038
N            5.77757663051733       -0.07469602115544        0.37669532323861
C            6.49769398125573       -1.11762832944862        0.91469898700424
C            5.94920646850785       -2.20968333539671        1.69907661087907
C            4.85129023965282       -2.04896379091177        2.54473395021905
C            4.37837953379918       -3.12082608840556        3.27859664589525
C            4.99469705879949       -4.35867868840576        3.18921938779999
C            6.10291355429570       -4.51904228115250        2.37141251736399
C            6.58080665423406       -3.45355452687057        1.63424031256094
N            7.77772572862428       -0.98015348647499        0.66685342676087
C            7.92969739058780        0.17291304468310       -0.03836958451779
C            9.24033207820167        0.58324064119571       -0.51165531710904
C            9.40393732361368        1.37877864725190       -1.64648851751118
C           10.66969410849525        1.74234059395006       -2.06521358705229
C           11.78893702153487        1.31541980684732       -1.36764256215890
C           11.63659430777120        0.50738845702951       -0.25129116463740
C           10.37452416675325        0.14038299298813        0.17231582935207
C            6.68319842662761        0.76707778835667       -0.22084635340093
C            6.30194887455183        2.00401382596506       -0.89004031862736
C            6.96924507152484        3.19150659053250       -0.58781091784897
C            6.60973868171232        4.37120979215958       -1.21129030029367
C            5.58204360629682        4.38358655413401       -2.14143318144506
C            4.91870556644894        3.20730394142249       -2.45118342016351
C            5.27291640368018        2.02362858747988       -1.83082952262746
C            3.54775609904675       -0.93774504325791       -0.03138900348363
C            2.18523586873775       -0.76925970039621       -0.02940086691279
C           -0.43475987974579        1.89372142539222        0.27119479475750
C           -1.78537563323082        2.04863528263623        0.22610218273670
N           -4.55052523694546        2.41280136747376        0.43487259403695
C           -5.87009654869624        2.29269368822455        0.44559952780740
C           -6.83066674894523        3.30607913814771        0.73523444389326
C           -6.42586475714419        4.59177609225432        1.10477022812543
C           -7.36022288351513        5.54773637039127        1.43727328935001
C           -8.70938360996444        5.21482461817368        1.41300914147890
C           -9.11953017479007        3.94964751695850        1.04017088160084
C           -8.19975293885537        2.95873470503325        0.67566647661959
C           -8.59929195318458        1.63423865380423        0.22170782900043
C           -9.94109995499528        1.31301466423616        0.01156258953818
C          -10.33776860575490        0.08320133692163       -0.47433119962989
C           -9.38174238629827       -0.87718181268256       -0.79937191742802
C           -8.05237945491844       -0.61032794874371       -0.59995348412491
C           -7.62099097617618        0.62561012606991       -0.06655713606646
C           -6.26943269517985        0.95418271595478        0.14955546332882
C           -5.51819999075606       -2.09346775652964        0.45311193754927
C           -5.33063675100182       -3.41917381328587        0.13534171339899
H           -3.36095764789616       -3.04856767563809       -2.60807103392995
H           -3.68370402103096       -0.67232257323361       -2.02953991240080
H           -2.69179994383326       -1.21390703386139        0.62550715487294
H           -0.30380925078790       -1.47336891005582        0.67918236241574
H            2.04671184905845        2.39405421959051        1.18230801974692
H            4.46603220030738        2.09425138071276        1.17260391403292
H            4.37856663702667       -1.08339097847401        2.64557977603392
H            3.52656398366759       -2.98584645661670        3.92896195478321
H            4.61867724636521       -5.19287215440891        3.76274769422132
H            6.59397911002884       -5.47892459505236        2.30757209715167
H            7.44336364449387       -3.56125966215409        0.99456055766531
H            8.53927573303148        1.69801443060878       -2.20864910850946
H           10.78410643029552        2.35850784720915       -2.94545270102308
H           12.77581906233602        1.60504235219001       -1.69784831513494
H           12.50626230102820        0.16446373097277        0.29047585371548
H           10.24008992525956       -0.48963473403030        1.03840605473734
H            7.76699154299338        3.17836184056705        0.14081443786690
H            7.13119667704999        5.28517109718646       -0.96767688314096
H            5.30085919921664        5.30708545698814       -2.62534131005921
H            4.12123604656432        3.20972316712506       -3.17971095865246
H            4.76056617160899        1.10707809867455       -2.08578691579087
H            3.98461840260084       -1.86358922510732       -0.37700896851388
H            1.56218177772534       -1.56816473446453       -0.39951042152259
H            0.19601769041605        2.76416447131253        0.17648061968097
H           -2.23042986321195        3.02505185492298        0.11892328341374
H           -5.36764104849945        4.80130446201874        1.12839704272247
H           -7.04945300013256        6.54134716342219        1.72289424692760
H           -9.44939488971453        5.95248483712543        1.68747040726702
H          -10.17670253313833        3.73872999096955        1.04279229105976
H          -10.70541872072504        2.04489738994714        0.21605619519150
H          -11.38666374015515       -0.12531120632464       -0.62141721620799
H           -9.68509948092886       -1.82714029996223       -1.21364342771604
H           -7.31933590841898       -1.34734560108598       -0.88189273288985
H           -6.11397157287416       -1.81778079062528        1.30981972834329
H           -5.77551896809223       -4.19316218969134        0.74137589404028

          :  Hamiltonian                  GFN2-xTB          :
         :: gradient norm              0.000045716294 Eh/a0 ::
         :: HOMO-LUMO gap              0.526640012415 eV    ::
         :: SCC energy              -164.328819694602 Eh    ::
         :: -> dispersion             -0.140275179175 Eh    ::
         :: -> Gsolv                  -0.064029159871 Eh    ::
         :: repulsion energy           2.750399688359 Eh    ::

    * Orbital Energies and Occupations

         #    Occupation            Energy/Eh            Energy/eV
      -------------------------------------------------------------
         1        2.0000           -0.8847123             -24.0742
       ...           ...                  ...                  ...
       137        2.0000           -0.4112758             -11.1914
       138        2.0000           -0.4111797             -11.1888
       139        2.0000           -0.4094684             -11.1422
       140        2.0000           -0.4057890             -11.0421
       141        2.0000           -0.4051236             -11.0240
       142        2.0000           -0.4025669             -10.9544
       143        2.0000           -0.3921682             -10.6714
       144        2.0000           -0.3912510             -10.6465
       145        2.0000           -0.3866733             -10.5219
       146        2.0000           -0.3850119             -10.4767
       147        1.9347           -0.3690552             -10.0425
       148        1.0653           -0.3639986              -9.9049
       149        1.0000           -0.2875376              -7.8243 (HOMO)
       150        0.0000           -0.2681840              -7.2977 (LUMO)
       151                         -0.2597793              -7.0690
       152                         -0.2560828              -6.9684
       153                         -0.2543029              -6.9199
       154                         -0.2516624              -6.8481
       155                         -0.2486754              -6.7668
       156                         -0.2358016              -6.4165
       157                         -0.2345704              -6.3830
       158                         -0.2304913              -6.2720
       159                         -0.2276961              -6.1959
       160                         -0.2236167              -6.0849
       ...                                ...                  ...
       283                          0.7177721              19.5316
      -------------------------------------------------------------
                  HL-Gap            0.0193537 Eh            0.5266 eV

     #   Z          covCN         q      C6AA      α(0)
     1   9 F        0.791    -0.220    11.448     3.997
     2   6 C        3.336     0.485    17.296     6.586
     3   9 F        0.790    -0.230    11.551     4.015
     4   9 F        0.791    -0.219    11.435     3.994
     5   6 C        2.975    -0.044    29.098     8.848
     6   6 C        2.918    -0.023    28.581     8.767
     7   6 C        2.920    -0.038    28.940     8.822
     8   6 C        2.908     0.065    26.543     8.448
     9   7 N        2.813    -0.054    22.276     7.010
    10   6 C        3.138     0.124    25.077     8.196
    11   6 C        2.968    -0.009    28.231     8.715
    12   6 C        2.911    -0.041    29.030     8.835
    13   6 C        2.916    -0.034    28.851     8.808
    14   6 C        2.971     0.007    27.861     8.658
    15   6 C        2.971     0.011    27.778     8.645
    16   6 C        2.923    -0.034    28.856     8.809
    17   6 C        2.915    -0.039    28.981     8.828
    18   6 C        2.913     0.055    26.774     8.485
    19   7 N        2.846    -0.034    21.894     6.949
    20   6 C        3.157     0.130    24.873     8.154
    21   6 C        2.974     0.001    28.004     8.680
    22   6 C        2.922    -0.033    28.830     8.805
    23   6 C        2.918    -0.028    28.706     8.786
    24   6 C        2.919    -0.027    28.683     8.783
    25   6 C        2.918    -0.027    28.673     8.781
    26   6 C        2.927    -0.028    28.712     8.787
    27   7 N        1.910    -0.306    28.774     7.953
    28   6 C        3.163     0.059    26.350     8.390
    29   6 C        2.973     0.008    27.831     8.653
    30   6 C        2.922    -0.037    28.913     8.818
    31   6 C        2.918    -0.030    28.741     8.791
    32   6 C        2.919    -0.030    28.743     8.792
    33   6 C        2.918    -0.029    28.731     8.790
    34   6 C        2.927    -0.029    28.729     8.790
    35   6 C        3.067     0.020    27.482     8.596
    36   6 C        2.971     0.007    27.856     8.657
    37   6 C        2.925    -0.032    28.789     8.799
    38   6 C        2.918    -0.027    28.686     8.783
    39   6 C        2.919    -0.029    28.714     8.787
    40   6 C        2.918    -0.028    28.700     8.785
    41   6 C        2.923    -0.032    28.800     8.801
    42   6 C        2.916    -0.040    28.984     8.828
    43   6 C        2.923    -0.035    28.864     8.810
    44   6 C        2.915    -0.035    28.871     8.811
    45   6 C        2.922    -0.032    28.795     8.800
    46   7 N        1.881    -0.305    28.745     7.948
    47   6 C        3.166     0.083    25.825     8.304
    48   6 C        2.984    -0.003    28.105     8.696
    49   6 C        2.922    -0.026    28.649     8.778
    50   6 C        2.916    -0.030    28.740     8.791
    51   6 C        2.917    -0.026    28.659     8.779
    52   6 C        2.922    -0.033    28.827     8.805
    53   6 C        2.977     0.002    27.977     8.676
    54   6 C        2.977     0.001    27.997     8.679
    55   6 C        2.920    -0.032    28.793     8.799
    56   6 C        2.916    -0.030    28.752     8.793
    57   6 C        2.914    -0.030    28.747     8.792
    58   6 C        2.918    -0.038    28.953     8.824
    59   6 C        2.973    -0.007    28.196     8.710
    60   6 C        3.034     0.033    27.237     8.560
    61   6 C        2.919    -0.038    28.957     8.824
    62   6 C        2.917    -0.025    28.627     8.774
    63   1 H        0.926     0.058     2.226     2.333
    64   1 H        0.926     0.056     2.249     2.345
    65   1 H        0.926     0.027     2.624     2.533
    66   1 H        0.926     0.037     2.487     2.466
    67   1 H        0.926     0.047     2.357     2.401
    68   1 H        0.926     0.038     2.480     2.463
    69   1 H        0.926     0.032     2.564     2.504
    70   1 H        0.926     0.039     2.455     2.450
    71   1 H        0.926     0.041     2.431     2.438
    72   1 H        0.926     0.042     2.420     2.433
    73   1 H        0.926     0.047     2.351     2.398
    74   1 H        0.926     0.029     2.595     2.519
    75   1 H        0.926     0.034     2.525     2.485
    76   1 H        0.926     0.036     2.506     2.475
    77   1 H        0.926     0.036     2.501     2.473
    78   1 H        0.926     0.047     2.359     2.402
    79   1 H        0.926     0.033     2.545     2.495
    80   1 H        0.926     0.039     2.462     2.454
    81   1 H        0.926     0.039     2.460     2.453
    82   1 H        0.926     0.038     2.481     2.463
    83   1 H        0.926     0.028     2.610     2.526
    84   1 H        0.926     0.035     2.518     2.482
    85   1 H        0.926     0.045     2.388     2.417
    86   1 H        0.926     0.042     2.422     2.434
    87   1 H        0.926     0.052     2.296     2.369
    88   1 H        0.926     0.052     2.291     2.367
    89   1 H        0.926     0.042     2.428     2.437
    90   1 H        0.926     0.042     2.423     2.434
    91   1 H        0.926     0.044     2.402     2.424
    92   1 H        0.926     0.044     2.393     2.419
    93   1 H        0.926     0.039     2.460     2.453
    94   1 H        0.926     0.036     2.502     2.474
    95   1 H        0.926     0.034     2.527     2.486
    96   1 H        0.926     0.058     2.219     2.329
    97   1 H        0.926     0.059     2.215     2.328

molecular dipole:
                 x           y           z       tot (Debye)
 q only:        0.043       2.475       0.615
   full:       -0.432       2.198       0.410       5.787

 projected vibrational frequencies (cm⁻¹)
eigval :       -0.00     0.00     0.00     0.00     0.00     0.00
eigval :        6.59     6.98    10.76    14.95    17.94    21.18
eigval :       23.61    33.48    35.47    39.54    44.09    47.66
eigval :       49.85    54.75    56.25    67.01    77.74    80.19
eigval :       82.93    88.36    98.53   104.77   116.13   123.47
eigval :      128.05   132.26   138.29   151.43   172.95   180.79
eigval :      187.06   201.61   220.36   226.49   236.72   240.18
eigval :      240.92   254.92   259.01   260.21   268.40   281.03
eigval :      302.35   322.02   345.48   353.08   364.15   368.67
eigval :      371.14   372.74   375.41   376.69   379.06   382.77
eigval :      387.39   390.89   394.58   404.47   410.04   412.89
eigval :      427.95   445.91   448.13   458.25   460.26   476.28
eigval :      482.81   492.64   497.94   504.90   513.05   518.53
eigval :      524.73   525.83   543.56   555.72   581.61   583.60
eigval :      585.76   587.94   590.22   594.92   599.28   611.38
eigval :      621.62   623.21   635.59   644.46   650.12   657.06
eigval :      658.66   660.04   663.63   669.14   670.74   671.63
eigval :      674.02   676.66   683.76   685.24   690.37   715.24
eigval :      728.36   740.12   752.16   754.71   756.79   760.83
eigval :      763.91   774.81   775.47   792.14   796.49   813.24
eigval :      816.44   820.99   840.10   851.56   859.76   866.92
eigval :      874.76   875.04   876.25   898.95   901.34   902.92
eigval :      904.66   905.33   906.02   910.02   911.56   912.95
eigval :      914.32   915.81   917.61   921.78   923.75   927.31
eigval :      928.08   929.01   930.15   931.47   932.11   932.53
eigval :      936.84   940.71   956.30   961.88   973.56   980.80
eigval :      988.32   998.52  1006.87  1025.28  1027.38  1043.94
eigval :     1051.66  1057.71  1079.11  1080.39  1080.60  1081.86
eigval :     1090.71  1102.44  1105.26  1117.62  1118.65  1119.98
eigval :     1132.82  1133.60  1139.01  1149.92  1154.13  1159.06
eigval :     1170.04  1176.63  1176.95  1179.10  1179.35  1180.32
eigval :     1185.37  1192.25  1194.90  1196.58  1199.31  1201.61
eigval :     1212.78  1227.52  1236.63  1245.05  1247.86  1253.74
eigval :     1261.71  1262.01  1272.26  1277.10  1278.73  1280.37
eigval :     1281.88  1283.02  1306.57  1311.54  1314.43  1319.25
eigval :     1321.76  1325.09  1326.71  1328.60  1331.88  1333.55
eigval :     1348.30  1357.73  1385.47  1390.53  1394.98  1404.12
eigval :     1409.84  1415.28  1419.90  1425.07  1426.82  1427.52
eigval :     1430.31  1437.82  1442.45  1448.76  1455.52  1461.09
eigval :     1469.42  1472.06  1480.09  1481.86  1493.32  1503.53
eigval :     1511.65  1524.84  1527.38  1537.37  1540.55  1549.60
eigval :     1560.76  1572.01  1574.14  1574.53  1576.19  1579.09
eigval :     1586.25  1589.65  1592.77  1592.85  3070.42  3073.72
eigval :     3073.92  3074.80  3075.13  3076.80  3078.54  3079.15
eigval :     3080.17  3081.57  3083.69  3083.90  3084.74  3085.99
eigval :     3087.20  3087.79  3089.09  3090.14  3093.16  3093.21
eigval :     3094.15  3095.18  3096.61  3098.68  3100.37  3101.36
eigval :     3101.91  3104.20  3104.55  3104.91  3107.06  3108.78
eigval :     3112.41  3114.20  3128.24

   temp. (K)  partition function   enthalpy   heat capacity  entropy
                                   cal/mol     cal/K/mol   cal/K/mol   J/K/mol
 298.15  VIB  0.124E+26            29807.130    182.701    189.166
         ROT  0.255E+09              888.752      2.981     41.448
         INT  0.316E+34            30695.882    185.682    230.614
         TR   0.223E+29             1481.254      4.968     45.928
         TOT                       32177.1359   190.6503   276.5422  1157.0527

       T/K    H(0)-H(T)+PV         H(T)/Eh          T*S/Eh         G(T)/Eh
   ------------------------------------------------------------------------
    298.15    0.512775E-01    0.773370E+00    0.131394E+00    0.641976E+00
   ------------------------------------------------------------------------

         :::::::::::::::::::::::::::::::::::::::::::::::::::::
         ::                  THERMODYNAMIC                  ::
         :::::::::::::::::::::::::::::::::::::::::::::::::::::
         :: total free energy        -160.936443718403 Eh   ::
         ::.................................................::
         :: total energy             -161.578420004536 Eh   ::
         :: zero point energy           0.722092895983 Eh   ::
         :: G(RRHO) w/o ZPVE           -0.080116609850 Eh   ::
         :: G(RRHO) contrib.            0.641976286133 Eh   ::
         :::::::::::::::::::::::::::::::::::::::::::::::::::::

           -------------------------------------------------
          | TOTAL ENERGY             -161.578420004536 Eh   |
          | TOTAL ENTHALPY           -160.805049578511 Eh   |
          | TOTAL FREE ENERGY        -160.936443718403 Eh   |
          | GRADIENT NORM               0.000045831306 Eh/α |
          | HOMO-LUMO GAP               0.526640206409 eV   |
           -------------------------------------------------

 * finished run on 2025/08/26 at 03:10:56.592
