   * xtb version 6.7.1 (edcfbbe) compiled by 'albert@albert-system' on 2024-07-22

   ID    Z sym.   atoms
    1    6 C      1-9, 11-15, 17-21, 23-26, 28-44, 46-54
    2    7 N      10, 27, 45
    3    8 O      16, 22
    4    1 H      55-93

          program call               : xtb data2507/toluene/25DAcBPy/25DAcBPy_toluene_T1_crest.xyz --gfn 2 --uhf 2 --gbsa toluene --ohess vtight --parallel 40 --molden --ceasefiles --namespace data2507/toluene/25DAcBPy/25DAcBPy_toluene_T1_finalOpt
      * Solvation model:               GBSA
        Solvent                        toluene
        Solvent mass                       9.2140E+01 g/mol
          :  Hamiltonian                  GFN2-xTB          :
 * total energy  :  -141.7617094 Eh     change        0.4194760E-09 Eh
 * total energy  :  -141.7620465 Eh     change       -0.3370985E-03 Eh
 * total energy  :  -141.7621596 Eh     change       -0.1131275E-03 Eh
 * total energy  :  -141.7621768 Eh     change       -0.1713928E-04 Eh
 * total energy  :  -141.7621958 Eh     change       -0.1905481E-04 Eh
 * total energy  :  -141.7622049 Eh     change       -0.9093184E-05 Eh
 * total energy  :  -141.7622286 Eh     change       -0.2372559E-04 Eh
 * total energy  :  -141.7622378 Eh     change       -0.9160562E-05 Eh
 * total energy  :  -141.7622485 Eh     change       -0.1069738E-04 Eh
 * total energy  :  -141.7622574 Eh     change       -0.8926471E-05 Eh
 * total energy  :  -141.7623575 Eh     change       -0.7585796E-06 Eh
 * total energy  :  -141.7623583 Eh     change       -0.7337862E-06 Eh
 * total energy  :  -141.7623589 Eh     change       -0.6319443E-06 Eh
 * total energy  :  -141.7623595 Eh     change       -0.5959970E-06 Eh
 * total energy  :  -141.7623601 Eh     change       -0.6119301E-06 Eh
 * total energy  :  -141.7623609 Eh     change       -0.7807047E-06 Eh
 * total energy  :  -141.7623619 Eh     change       -0.9862875E-06 Eh
 * total energy  :  -141.7623629 Eh     change       -0.1051249E-05 Eh
 * total energy  :  -141.7623629 Eh     change       -0.4994604E-08 Eh
   *** GEOMETRY OPTIMIZATION CONVERGED AFTER 68 ITERATIONS ***

 final structure:
================
93
 xtb: 6.7.1 (edcfbbe)
C            8.46140513012582        3.73207402447851        0.57812797960462
C            7.39439470724761        3.20705484451382       -0.40260501596141
C            7.24114495787769        4.17804423986966       -1.59010817447134
C            6.06966226427990        3.11778281982277        0.32553842431802
C            5.51031304142053        4.26118466139669        0.88040010748535
C            4.30697460696648        4.23201828895131        1.56133165338872
C            3.63198903245480        3.02930118948082        1.70504185996408
C            4.16192749852472        1.87846299379666        1.16583612926044
C            5.37761851107438        1.90522190130889        0.46782363546944
N            5.88169566944435        0.73599938080083       -0.06591188983645
C            5.14922232053280       -0.47409660284407        0.11575566684551
C            5.46722871554532       -1.32600311144873        1.16805082814363
C            4.74965847330726       -2.49175953019090        1.34455576720153
C            3.69318285738359       -2.81550209802625        0.49319702534680
C            2.96845888433549       -4.09532205338078        0.70419044618210
O            3.60246015095267       -5.11698126050875        1.02257382254062
C            1.53069580769857       -4.10452350817774        0.54229539020462
C            0.82801229814649       -5.33378107603541        0.45313665697270
C           -0.52905381891495       -5.34018705603375        0.33201505877528
C           -1.23834090705249       -4.11180460422338        0.30469424969584
C           -2.67993883452330       -4.13957769579756        0.18707943139050
O           -3.29155942055814       -5.23291875505641        0.16419257614330
C           -3.45465064408162       -2.88326841218932        0.11399521292415
C           -2.92311289554405       -1.64564016891145       -0.25109501838161
C           -3.72763088006196       -0.52617468874672       -0.31794833980579
C           -5.08412548754798       -0.62056649505515       -0.02169756924968
N           -5.90732361960633        0.54029613663073       -0.08612625626927
C           -5.93768427582900        1.39788050603299        0.99458949007835
C           -5.16293541304882        1.10850045251318        2.12750481050225
C           -5.16999734843526        1.94721888629131        3.21912625033723
C           -5.95504089860218        3.09072087100118        3.20540736756542
C           -6.72856244789649        3.37397851551226        2.09465769612900
C           -6.74199770284892        2.54849781403577        0.97810376504380
C           -7.61938105028030        2.89943448198530       -0.20468175523420
C           -7.19721258810419        4.28114759565070       -0.74275903608787
C           -9.08682415123710        2.93977202361617        0.26599927980160
C           -7.49465969049197        1.88672530747898       -1.32306353633388
C           -8.22762011549497        2.05535074209286       -2.49024993557346
C           -8.14060087947775        1.16474028289696       -3.54466975359983
C           -7.29403013329235        0.07017207392650       -3.44787157854315
C           -6.55629043114552       -0.12541335332937       -2.30215258002712
C           -6.65092546810972        0.76879609651152       -1.22564307732924
C           -5.63213589010200       -1.85005136625864        0.33261577347028
C           -4.82584509005444       -2.96489405765919        0.39013689403571
N           -0.56535116517256       -2.95386966392464        0.44247095451667
C            0.73217115153384       -2.94452047748258        0.55571515762224
C            3.39991757499911       -1.96617819061465       -0.57415406139113
C            4.12246823918703       -0.80372271351950       -0.76239091915828
C            7.07786113839690        0.69742026513340       -0.75355317532763
C            7.53084457971765       -0.51901686316724       -1.28353116671340
C            8.72376350999519       -0.58956986436218       -1.96766243306731
C            9.48814299781245        0.55452883063000       -2.14047054278833
C            9.03966108149124        1.75808996950256       -1.62767829427525
C            7.84146227080563        1.86114816965220       -0.93377336463655
H            9.42485490182466        3.82504921194462        0.08600646425424
H            8.56739752851666        3.04476002960104        1.41542499043536
H            8.18164455217635        4.70671498565071        0.96651916287935
H            6.48831809240764        3.80367151402743       -2.28134777258019
H            8.17945594973439        4.28156122818355       -2.12667003933620
H            6.93430458838492        5.16134906253598       -1.24650778735674
H            6.02421349049940        5.20453220413596        0.78233227058852
H            3.90022930389402        5.13981524012431        1.97973618361720
H            2.69425302472996        2.98727729029062        2.23808505792833
H            3.63810394782402        0.94296941644450        1.28339431546793
H            6.27513407910981       -1.07156004713594        1.83793560093827
H            4.98915742654860       -3.16999664193393        2.15034243433458
H            1.39929409175973       -6.25140093091687        0.47389147433461
H           -1.10103152218369       -6.25258345799663        0.24988071661352
H           -1.87178086022191       -1.56868796918933       -0.47652793790633
H           -3.31111359500520        0.42863102787951       -0.60351262396354
H           -4.55633329740801        0.21676888771152        2.14146412327090
H           -4.56569251868948        1.70777119765305        4.08092181026774
H           -5.96706569933356        3.75457565412075        4.05620254197254
H           -7.33800471985502        4.26391630213022        2.10454398877053
H           -6.16134627243965        4.25009413554007       -1.07517195633714
H           -7.28872858091242        5.03921498864121        0.02919055587158
H           -7.81966487810395        4.57372051020859       -1.58290039163177
H           -9.38274233592274        1.96395683003672        0.64660687233954
H           -9.21743411008219        3.67125256441429        1.05781191650896
H           -9.74710314676030        3.20339247258988       -0.55471302033754
H           -8.88678527685430        2.90387916424937       -2.58548701467162
H           -8.72493799662147        1.32502677202707       -4.43773366118636
H           -7.20849754810943       -0.63023096845347       -4.26475948384467
H           -5.89517530745003       -0.97459255353021       -2.22927965373093
H           -6.68564956115251       -1.92164456186250        0.55912689626856
H           -5.23129067067175       -3.93046432290576        0.65576017894893
H            1.17669811560157       -1.96698750894622        0.69715661734765
H            2.61829906911523       -2.23182165776978       -1.27018165067633
H            3.89683665615098       -0.14716952751170       -1.58970136393211
H            6.93666272537700       -1.40980774099131       -1.15244955981896
H            9.05628000224414       -1.53615046800546       -2.36620194458731
H           10.42529475656423        0.50926551288684       -2.67372796532196
H            9.64487920139657        2.63871239840613       -1.77588317684722

          :  Hamiltonian                  GFN2-xTB          :
         :: gradient norm              0.000066645885 Eh/a0 ::
         :: HOMO-LUMO gap              0.871865535112 eV    ::
         :: SCC energy              -144.208103036139 Eh    ::
         :: -> dispersion             -0.126666093704 Eh    ::
         :: -> Gsolv                  -0.080310040328 Eh    ::
         :: repulsion energy           2.445740094414 Eh    ::

    * Orbital Energies and Occupations

         #    Occupation            Energy/Eh            Energy/eV
      -------------------------------------------------------------
         1        2.0000           -0.6861712             -18.6717
       ...           ...                  ...                  ...
       120        2.0000           -0.4144908             -11.2789
       121        2.0000           -0.4122699             -11.2184
       122        2.0000           -0.4120820             -11.2133
       123        2.0000           -0.4095837             -11.1453
       124        2.0000           -0.4080236             -11.1029
       125        2.0000           -0.4064776             -11.0608
       126        2.0000           -0.4062826             -11.0555
       127        2.0000           -0.3874267             -10.5424
       128        2.0000           -0.3805530             -10.3554
       129        1.9549           -0.3653378              -9.9413
       130        1.6463           -0.3630112              -9.8780
       131        1.3989           -0.3620490              -9.8519
       132        1.0000           -0.3033956              -8.2558 (HOMO)
       133                         -0.2713548              -7.3839 (LUMO)
       134                         -0.2434534              -6.6247
       135                         -0.2421847              -6.5902
       136                         -0.2410950              -6.5605
       137                         -0.2404424              -6.5428
       138                         -0.2383525              -6.4859
       139                         -0.2345819              -6.3833
       140                         -0.2328890              -6.3372
       141                         -0.2326775              -6.3315
       142                         -0.2316559              -6.3037
       143                         -0.2310077              -6.2860
       ...                                ...                  ...
       255                          0.6691960              18.2098
      -------------------------------------------------------------
                  HL-Gap            0.0320408 Eh            0.8719 eV

     #   Z          covCN         q      C6AA      α(0)
     1   6 C        3.761    -0.107    22.599     6.777
     2   6 C        3.909     0.024    20.117     6.375
     3   6 C        3.761    -0.107    22.601     6.777
     4   6 C        2.978    -0.003    28.089     8.694
     5   6 C        2.926    -0.033    28.820     8.804
     6   6 C        2.917    -0.034    28.836     8.806
     7   6 C        2.918    -0.028    28.706     8.786
     8   6 C        2.923    -0.050    29.241     8.868
     9   6 C        2.929     0.060    26.654     8.467
    10   7 N        2.755    -0.028    21.791     6.933
    11   6 C        2.929     0.061    26.623     8.462
    12   6 C        2.918    -0.036    28.900     8.816
    13   6 C        2.925    -0.019    28.492     8.754
    14   6 C        2.971    -0.012    28.312     8.728
    15   6 C        2.828     0.196    23.829     7.999
    16   8 O        0.858    -0.494    23.661     6.522
    17   6 C        2.964    -0.043    29.067     8.843
    18   6 C        2.924    -0.017    28.430     8.744
    19   6 C        2.914    -0.035    28.883     8.813
    20   6 C        2.941     0.052    26.840     8.497
    21   6 C        2.832     0.184    24.061     8.038
    22   8 O        0.858    -0.506    23.923     6.558
    23   6 C        2.969    -0.007    28.188     8.709
    24   6 C        2.920    -0.034    28.843     8.807
    25   6 C        2.919    -0.037    28.916     8.818
    26   6 C        2.930     0.057    26.715     8.476
    27   7 N        2.755    -0.021    21.648     6.910
    28   6 C        2.929     0.060    26.647     8.466
    29   6 C        2.922    -0.048    29.202     8.862
    30   6 C        2.918    -0.027    28.687     8.783
    31   6 C        2.917    -0.032    28.802     8.801
    32   6 C        2.925    -0.033    28.813     8.803
    33   6 C        2.978    -0.002    28.059     8.689
    34   6 C        3.909     0.024    20.111     6.374
    35   6 C        3.761    -0.108    22.612     6.779
    36   6 C        3.761    -0.108    22.604     6.778
    37   6 C        2.978    -0.002    28.059     8.689
    38   6 C        2.925    -0.033    28.813     8.803
    39   6 C        2.917    -0.032    28.801     8.800
    40   6 C        2.918    -0.028    28.688     8.783
    41   6 C        2.922    -0.048    29.198     8.861
    42   6 C        2.929     0.060    26.646     8.465
    43   6 C        2.917    -0.038    28.947     8.823
    44   6 C        2.928    -0.022    28.550     8.763
    45   7 N        1.838    -0.232    26.918     7.689
    46   6 C        2.889     0.057    26.713     8.474
    47   6 C        2.921    -0.030    28.745     8.792
    48   6 C        2.919    -0.037    28.909     8.817
    49   6 C        2.929     0.060    26.649     8.466
    50   6 C        2.923    -0.050    29.235     8.867
    51   6 C        2.918    -0.028    28.704     8.786
    52   6 C        2.917    -0.034    28.836     8.806
    53   6 C        2.926    -0.033    28.822     8.804
    54   6 C        2.978    -0.003    28.091     8.694
    55   1 H        0.925     0.050     2.315     2.379
    56   1 H        0.925     0.036     2.503     2.474
    57   1 H        0.925     0.051     2.310     2.377
    58   1 H        0.925     0.036     2.496     2.471
    59   1 H        0.925     0.050     2.315     2.379
    60   1 H        0.925     0.051     2.307     2.375
    61   1 H        0.926     0.049     2.336     2.390
    62   1 H        0.926     0.042     2.417     2.431
    63   1 H        0.926     0.041     2.440     2.443
    64   1 H        0.926     0.036     2.509     2.477
    65   1 H        0.926     0.052     2.299     2.371
    66   1 H        0.926     0.046     2.368     2.406
    67   1 H        0.926     0.037     2.487     2.466
    68   1 H        0.926     0.039     2.458     2.452
    69   1 H        0.926     0.068     2.107     2.270
    70   1 H        0.926     0.052     2.295     2.369
    71   1 H        0.926     0.039     2.457     2.451
    72   1 H        0.926     0.041     2.435     2.440
    73   1 H        0.926     0.043     2.405     2.425
    74   1 H        0.926     0.050     2.318     2.381
    75   1 H        0.925     0.038     2.480     2.463
    76   1 H        0.925     0.052     2.297     2.370
    77   1 H        0.925     0.052     2.301     2.372
    78   1 H        0.925     0.036     2.497     2.471
    79   1 H        0.925     0.051     2.302     2.373
    80   1 H        0.925     0.051     2.303     2.373
    81   1 H        0.926     0.050     2.317     2.380
    82   1 H        0.926     0.043     2.407     2.426
    83   1 H        0.926     0.041     2.441     2.443
    84   1 H        0.926     0.038     2.469     2.457
    85   1 H        0.926     0.049     2.332     2.388
    86   1 H        0.926     0.049     2.326     2.385
    87   1 H        0.925     0.038     2.472     2.459
    88   1 H        0.926     0.043     2.414     2.430
    89   1 H        0.926     0.053     2.277     2.360
    90   1 H        0.926     0.035     2.509     2.477
    91   1 H        0.926     0.039     2.464     2.454
    92   1 H        0.926     0.042     2.429     2.437
    93   1 H        0.926     0.049     2.336     2.390

molecular dipole:
                 x           y           z       tot (Debye)
 q only:       -0.410       9.200      -1.055
   full:       -0.195       8.668      -1.022      22.189

 projected vibrational frequencies (cm⁻¹)
eigval :       -0.00    -0.00     0.00     0.00     0.00     0.00
eigval :       -2.43     7.43    10.37    15.03    20.44    25.31
eigval :       30.95    33.43    37.73    44.36    53.06    60.87
eigval :       79.53    82.25    85.70    95.20    96.10   102.67
eigval :      105.91   126.59   129.54   132.72   136.46   152.78
eigval :      160.24   166.24   191.92   194.85   198.15   215.03
eigval :      216.33   218.61   224.77   234.01   234.72   248.06
eigval :      255.41   295.45   297.56   309.89   315.73   323.96
eigval :      325.46   326.48   338.23   339.78   340.61   371.20
eigval :      373.39   377.79   378.63   385.97   390.65   396.66
eigval :      403.58   407.84   410.17   425.15   428.35   445.71
eigval :      448.73   450.31   474.85   492.03   504.29   505.06
eigval :      508.65   514.98   532.92   542.40   542.70   544.72
eigval :      555.85   574.40   575.15   580.85   587.34   591.92
eigval :      597.09   604.91   615.72   617.89   625.61   646.05
eigval :      648.78   663.71   678.45   688.04   688.11   694.83
eigval :      701.25   702.01   706.74   715.10   718.88   745.45
eigval :      770.52   773.04   773.77   775.59   775.79   810.30
eigval :      816.74   820.23   826.05   827.27   857.55   868.60
eigval :      869.06   869.39   871.01   871.23   886.22   887.62
eigval :      905.52   906.84   913.52   914.30   914.49   914.67
eigval :      915.24   915.54   918.66   919.18   921.55   922.50
eigval :      922.60   923.68   926.33   933.28   934.94   936.22
eigval :      937.70   956.78   957.21   957.63   994.39  1010.79
eigval :     1011.29  1017.60  1021.10  1073.25  1073.26  1083.76
eigval :     1084.17  1104.95  1105.89  1111.05  1111.41  1123.18
eigval :     1128.27  1131.37  1136.80  1137.40  1146.81  1148.26
eigval :     1160.14  1165.60  1167.34  1176.95  1179.75  1180.87
eigval :     1182.47  1182.75  1183.80  1186.44  1205.04  1209.16
eigval :     1232.74  1235.61  1238.42  1241.39  1242.18  1254.59
eigval :     1257.28  1259.35  1260.60  1263.45  1285.08  1291.30
eigval :     1291.45  1304.95  1305.63  1309.70  1311.19  1313.07
eigval :     1316.67  1317.42  1327.19  1327.28  1332.94  1333.41
eigval :     1394.50  1396.10  1396.68  1396.90  1408.19  1414.73
eigval :     1415.24  1416.83  1417.97  1420.54  1427.32  1429.26
eigval :     1437.74  1453.56  1454.79  1455.09  1463.86  1469.31
eigval :     1476.29  1478.88  1480.38  1480.66  1481.74  1482.11
eigval :     1490.50  1492.14  1495.57  1496.16  1539.71  1545.29
eigval :     1551.54  1552.10  1553.60  1557.63  1563.56  1567.33
eigval :     1574.95  1576.78  1577.46  1585.13  1586.70  1589.25
eigval :     3026.94  3027.74  3029.12  3030.03  3039.42  3047.83
eigval :     3048.33  3049.87  3050.02  3054.89  3055.17  3058.46
eigval :     3058.69  3067.87  3081.61  3082.05  3083.37  3083.63
eigval :     3084.04  3084.14  3084.35  3084.61  3084.75  3090.35
eigval :     3090.81  3091.34  3091.43  3091.61  3092.21  3093.97
eigval :     3099.95  3100.35  3100.77  3101.20  3105.89  3106.30
eigval :     3107.28  3107.83  3108.61

   temp. (K)  partition function   enthalpy   heat capacity  entropy
                                   cal/mol     cal/K/mol   cal/K/mol   J/K/mol
 298.15  VIB  0.601E+23            27484.259    169.907    173.506
         ROT  0.179E+09              888.752      2.981     40.749
         INT  0.108E+32            28373.011    172.888    214.255
         TR   0.180E+29             1481.254      4.968     45.506
         TOT                       29854.2652   177.8564   259.7603  1086.8369

       T/K    H(0)-H(T)+PV         H(T)/Eh          T*S/Eh         G(T)/Eh
   ------------------------------------------------------------------------
    298.15    0.475758E-01    0.774190E+00    0.123420E+00    0.650769E+00
   ------------------------------------------------------------------------

         :::::::::::::::::::::::::::::::::::::::::::::::::::::
         ::                  THERMODYNAMIC                  ::
         :::::::::::::::::::::::::::::::::::::::::::::::::::::
         :: total free energy        -141.111593544430 Eh   ::
         ::.................................................::
         :: total energy             -141.762362939542 Eh   ::
         :: zero point energy           0.726614075481 Eh   ::
         :: G(RRHO) w/o ZPVE           -0.075844680369 Eh   ::
         :: G(RRHO) contrib.            0.650769395111 Eh   ::
         :::::::::::::::::::::::::::::::::::::::::::::::::::::

           -------------------------------------------------
          | TOTAL ENERGY             -141.762362939542 Eh   |
          | TOTAL ENTHALPY           -140.988173064177 Eh   |
          | TOTAL FREE ENERGY        -141.111593544430 Eh   |
          | GRADIENT NORM               0.000065037074 Eh/α |
          | HOMO-LUMO GAP               0.871874535838 eV   |
           -------------------------------------------------

 * finished run on 2025/09/07 at 04:22:05.199
