   * xtb version 6.7.1 (edcfbbe) compiled by 'albert@albert-system' on 2024-07-22

   ID    Z sym.   atoms
    1    6 C      1-9, 11-15, 17-21, 23-26, 28-44, 46-54
    2    7 N      10, 27, 45
    3    8 O      16, 22
    4    1 H      55-93

          program call               : xtb data2507/toluene/25DAcBPy/25DAcBPy.xyz --gfn 2 --gbsa toluene --ohess vtight --parallel 40 --molden --ceasefiles --namespace data2507/toluene/25DAcBPy/25DAcBPy_toluene_S0_preOpt
      * Solvation model:               GBSA
        Solvent                        toluene
        Solvent mass                       9.2140E+01 g/mol
          :  Hamiltonian                  GFN2-xTB          :
 * total energy  :  -141.7763839 Eh     change       -0.1831467E-08 Eh
 * total energy  :  -141.7960271 Eh     change       -0.1964315E-01 Eh
 * total energy  :  -141.8024427 Eh     change       -0.6415677E-02 Eh
 * total energy  :  -141.8035321 Eh     change       -0.1089334E-02 Eh
 * total energy  :  -141.8042877 Eh     change       -0.7556134E-03 Eh
 * total energy  :  -141.8047138 Eh     change       -0.4261020E-03 Eh
 * total energy  :  -141.8050445 Eh     change       -0.3307435E-03 Eh
 * total energy  :  -141.8053796 Eh     change       -0.3350563E-03 Eh
 * total energy  :  -141.8056999 Eh     change       -0.3203169E-03 Eh
 * total energy  :  -141.8059396 Eh     change       -0.2397084E-03 Eh
 * total energy  :  -141.8074729 Eh     change       -0.2680871E-06 Eh
 * total energy  :  -141.8074729 Eh     change        0.3470865E-07 Eh
 * total energy  :  -141.8074731 Eh     change       -0.2126476E-06 Eh
 * total energy  :  -141.8074733 Eh     change       -0.1746803E-06 Eh
 * total energy  :  -141.8074735 Eh     change       -0.2514737E-06 Eh
 * total energy  :  -141.8074739 Eh     change       -0.3381443E-06 Eh
 * total energy  :  -141.8074743 Eh     change       -0.4656890E-06 Eh
 * total energy  :  -141.8074748 Eh     change       -0.4106398E-06 Eh
 * total energy  :  -141.8074748 Eh     change       -0.5342343E-08 Eh
   *** GEOMETRY OPTIMIZATION CONVERGED AFTER 94 ITERATIONS ***

 final structure:
================
93
 xtb: 6.7.1 (edcfbbe)
C           11.41363263486241       -0.31808418165963        0.55218835582677
C           10.29202713782318       -0.09150204302121       -0.47913269794416
C           10.87338013753677       -0.08387847954232       -1.90575956068567
C            9.64708376240009        1.25559888464391       -0.21601369897870
C           10.42069049501573        2.40652839049593       -0.29846852136495
C            9.88528823057405        3.66791852477642       -0.11766735435765
C            8.52939093507202        3.79562914891397        0.12504549265358
C            7.73903731051287        2.66886544643380        0.21453905615146
C            8.28657746583564        1.38901842906314        0.07948150192984
N            7.46585780916875        0.27053040685677        0.19326635076936
C            6.11138874472233        0.44574511873482        0.55201026468795
C            5.09792112027837        0.14342527907245       -0.35722932521354
C            3.77325923860674        0.29966950086214       -0.00468148071910
C            3.43452721000371        0.77028019337891        1.26620884556918
C            2.03544971941225        0.97412422866600        1.68618281795655
O            1.72384119545043        1.77954365187402        2.54911727399863
C            0.99864378951890        0.14398954470045        1.01598321375017
C            1.18572213731377       -1.20592567616720        0.72178161539566
C            0.15033224204921       -1.90739829011967        0.13201340337439
C           -1.05065236057974       -1.24617086956642       -0.12852509739337
C           -2.16198679641400       -1.99049135411047       -0.79498969267576
O           -1.90522783198259       -2.96567901732881       -1.48690222620541
C           -3.53710097366233       -1.50169767099120       -0.61012128320750
C           -4.48723758410135       -1.83778780041080       -1.58039822605012
C           -5.79245983812080       -1.41334544141070       -1.46679010465966
C           -6.18402378681577       -0.65179071139210       -0.36556786221975
N           -7.52089521650175       -0.21207826732951       -0.24237648763562
C           -8.52829923598557       -1.14967049755994       -0.03869569420431
C           -8.20052338645124       -2.50099740815686        0.11290177504463
C           -9.17823393663928       -3.45531896204253        0.30098487833672
C          -10.50786526431479       -3.07746147854612        0.35671865260148
C          -10.83153800482133       -1.73768258113720        0.25189245991877
C           -9.86695647456176       -0.75614718942258        0.06261529316423
C          -10.29183967733047        0.69848406318396        0.00530471458822
C          -10.98160548697027        1.05879648851400        1.33486932376754
C          -11.26812385373821        0.88603614630451       -1.17131502389018
C           -9.10788020906595        1.62414097943158       -0.19779519770134
C           -9.32488214491201        2.99370130715802       -0.28193878542272
C           -8.29642128301192        3.88936149067450       -0.50653772805100
C           -7.01069976116434        3.40887707740198       -0.67947177374475
C           -6.76710373667634        2.05371375895057       -0.59932917288771
C           -7.79889823918703        1.14874407082979       -0.32967430751919
C           -5.24649855445351       -0.33362444550994        0.61634952826917
C           -3.93767342069415       -0.75261305555411        0.49821809013249
N           -1.23124758569714        0.04249282173573        0.15486707890271
C           -0.24257061734042        0.70927663406286        0.70830300316243
C            4.45442995158277        1.09810841378918        2.16391119265883
C            5.77706945208451        0.92866900786941        1.81749556104495
C            7.95467426832861       -1.01575750760731       -0.01661613932089
C            7.11368957803167       -2.11897773327205        0.16069007313514
C            7.56623833441270       -3.40393345241535       -0.05464182684968
C            8.87803517216120       -3.61645600405659       -0.43835691148927
C            9.72333319843768       -2.53120973129711       -0.57342141818736
C            9.29374535461873       -1.22720399231577       -0.36172437385863
H           11.91097431115104       -1.26877461366926        0.38178160565905
H           10.99792497169399       -0.32389913960401        1.55849167776930
H           12.15838777419733        0.47066430393591        0.49355229764798
H           11.61722191204979        0.69980398320748       -2.01763561098769
H           10.07893910209953        0.09080029442053       -2.62953222073469
H           11.34515655993131       -1.03464613231585       -2.13722379252829
H           11.47490959853916        2.32104974734851       -0.51328796852121
H           10.51714731238886        4.54089446760437       -0.18221311696267
H            8.08104592141766        4.77149274508788        0.24018799039652
H            6.67990372138831        2.78486596094195        0.38435553565643
H            5.36149022845275       -0.20986011866371       -1.34307541407253
H            3.00070513783683        0.08828983568203       -0.72852286063684
H            2.11579641303958       -1.69715945143321        0.96671147651351
H            0.24229269932288       -2.95204390885278       -0.12200513730135
H           -4.16935157857023       -2.42174300891596       -2.43166407154105
H           -6.51884964500324       -1.66278826592202       -2.22588421833812
H           -7.16635872440188       -2.80739822598249        0.09182943210430
H           -8.89672086421458       -4.49258034753669        0.40851359144056
H          -11.28409920071834       -3.81467841308028        0.49677713227088
H          -11.87012121109857       -1.45249644536600        0.32245427655338
H          -10.28734259009453        0.91933474435582        2.16192808270247
H          -11.84947447090813        0.42810037021742        1.50560702091421
H          -11.30896234689687        2.09468432977838        1.33317991217934
H          -11.60783722175409        1.91599549966333       -1.23386262607741
H          -10.77411905813048        0.63019312345476       -2.10719661668672
H          -12.13932216811637        0.24709283394820       -1.05749023785290
H          -10.32739539989216        3.37848553837565       -0.17301757363448
H           -8.50028964482899        4.94821331415109       -0.56073603131199
H           -6.19384546399850        4.08566723277233       -0.88261810313701
H           -5.76298332917474        1.69187335012948       -0.75566552938656
H           -5.55806159300312        0.24088908475053        1.47600560431067
H           -3.23044886006236       -0.51530471030830        1.27591598978055
H           -0.42936894583327        1.75459485071636        0.91817639975512
H            4.18148301585158        1.46858334612613        3.14094980246444
H            6.56254663117868        1.16839951152563        2.51847670007666
H            6.09389486346265       -1.97022536230477        0.47906948474617
H            6.89268253478975       -4.23686965297187        0.08394921340226
H            9.24450515097818       -4.61627572487808       -0.61606843741741
H           10.75112209240527       -2.71160511282225       -0.84900550353755

          :  Hamiltonian                  GFN2-xTB          :
         :: gradient norm              0.000050855585 Eh/a0 ::
         :: HOMO-LUMO gap              0.790513513066 eV    ::
         :: SCC energy              -144.263006536973 Eh    ::
         :: -> dispersion             -0.127307028303 Eh    ::
         :: -> Gsolv                  -0.060193131649 Eh    ::
         :: repulsion energy           2.455531775790 Eh    ::

    * Orbital Energies and Occupations

         #    Occupation            Energy/Eh            Energy/eV
      -------------------------------------------------------------
         1        2.0000           -0.7235517             -19.6888
       ...           ...                  ...                  ...
       119        2.0000           -0.4115546             -11.1990
       120        2.0000           -0.4095191             -11.1436
       121        2.0000           -0.4087503             -11.1227
       122        2.0000           -0.4070347             -11.0760
       123        2.0000           -0.4066780             -11.0663
       124        2.0000           -0.4040470             -10.9947
       125        2.0000           -0.4005913             -10.9006
       126        2.0000           -0.3979693             -10.8293
       127        2.0000           -0.3952042             -10.7541
       128        2.0000           -0.3925914             -10.6830
       129        2.0000           -0.3874370             -10.5427
       130        2.0000           -0.3517282              -9.5710
       131        2.0000           -0.3488149              -9.4917 (HOMO)
       132        0.0000           -0.3197640              -8.7012 (LUMO)
       133                         -0.2947489              -8.0205
       134                         -0.2716683              -7.3925
       135                         -0.2572264              -6.9995
       136                         -0.2475636              -6.7365
       137                         -0.2415761              -6.5736
       138                         -0.2277137              -6.1964
       139                         -0.2250655              -6.1243
       140                         -0.2238046              -6.0900
       141                         -0.2213477              -6.0232
       142                         -0.2211628              -6.0181
       ...                                ...                  ...
       255                          0.6773248              18.4309
      -------------------------------------------------------------
                  HL-Gap            0.0290509 Eh            0.7905 eV

     #   Z          covCN         q      C6AA      α(0)
     1   6 C        3.761    -0.104    22.535     6.767
     2   6 C        3.909     0.021    20.158     6.382
     3   6 C        3.761    -0.104    22.538     6.768
     4   6 C        2.979    -0.012    28.298     8.726
     5   6 C        2.928    -0.037    28.913     8.818
     6   6 C        2.917    -0.044    29.093     8.845
     7   6 C        2.919    -0.034    28.845     8.807
     8   6 C        2.924    -0.059    29.461     8.901
     9   6 C        2.926     0.057    26.726     8.478
    10   7 N        2.753    -0.065    22.492     7.044
    11   6 C        2.926     0.079    26.238     8.400
    12   6 C        2.919    -0.036    28.898     8.815
    13   6 C        2.919    -0.025    28.619     8.773
    14   6 C        2.971    -0.017    28.422     8.745
    15   6 C        2.827     0.227    23.229     7.898
    16   8 O        0.858    -0.406    21.798     6.260
    17   6 C        2.968    -0.014    28.368     8.736
    18   6 C        2.926    -0.008    28.221     8.712
    19   6 C        2.917    -0.026    28.659     8.779
    20   6 C        2.960     0.075    26.313     8.414
    21   6 C        2.830     0.223    23.308     7.911
    22   8 O        0.858    -0.407    21.825     6.264
    23   6 C        2.971    -0.011    28.279     8.723
    24   6 C        2.925    -0.015    28.388     8.738
    25   6 C        2.918    -0.036    28.897     8.815
    26   6 C        2.927     0.079    26.236     8.400
    27   7 N        2.753    -0.063    22.464     7.039
    28   6 C        2.926     0.057    26.722     8.477
    29   6 C        2.924    -0.059    29.466     8.902
    30   6 C        2.919    -0.034    28.846     8.808
    31   6 C        2.917    -0.044    29.103     8.846
    32   6 C        2.928    -0.037    28.918     8.819
    33   6 C        2.979    -0.012    28.300     8.726
    34   6 C        3.909     0.021    20.159     6.382
    35   6 C        3.761    -0.104    22.536     6.767
    36   6 C        3.761    -0.104    22.537     6.768
    37   6 C        2.979    -0.012    28.302     8.726
    38   6 C        2.928    -0.037    28.919     8.819
    39   6 C        2.917    -0.044    29.100     8.846
    40   6 C        2.920    -0.034    28.842     8.807
    41   6 C        2.924    -0.059    29.465     8.902
    42   6 C        2.926     0.057    26.724     8.478
    43   6 C        2.920    -0.035    28.881     8.813
    44   6 C        2.919    -0.019    28.478     8.751
    45   7 N        1.838    -0.220    26.635     7.648
    46   6 C        2.910     0.071    26.402     8.426
    47   6 C        2.923    -0.015    28.381     8.736
    48   6 C        2.919    -0.035    28.879     8.812
    49   6 C        2.926     0.057    26.726     8.478
    50   6 C        2.924    -0.060    29.480     8.904
    51   6 C        2.919    -0.034    28.849     8.808
    52   6 C        2.917    -0.044    29.099     8.846
    53   6 C        2.928    -0.037    28.911     8.818
    54   6 C        2.979    -0.012    28.297     8.726
    55   1 H        0.925     0.043     2.413     2.429
    56   1 H        0.925     0.031     2.573     2.509
    57   1 H        0.925     0.043     2.411     2.428
    58   1 H        0.925     0.043     2.413     2.429
    59   1 H        0.925     0.031     2.574     2.509
    60   1 H        0.925     0.043     2.410     2.428
    61   1 H        0.926     0.035     2.510     2.478
    62   1 H        0.926     0.028     2.611     2.527
    63   1 H        0.926     0.029     2.605     2.524
    64   1 H        0.926     0.026     2.640     2.541
    65   1 H        0.926     0.057     2.229     2.335
    66   1 H        0.926     0.050     2.320     2.382
    67   1 H        0.926     0.063     2.158     2.297
    68   1 H        0.926     0.068     2.104     2.269
    69   1 H        0.926     0.059     2.211     2.325
    70   1 H        0.926     0.057     2.235     2.338
    71   1 H        0.926     0.027     2.630     2.536
    72   1 H        0.926     0.028     2.609     2.526
    73   1 H        0.926     0.028     2.618     2.530
    74   1 H        0.926     0.035     2.515     2.480
    75   1 H        0.925     0.031     2.573     2.508
    76   1 H        0.925     0.043     2.415     2.430
    77   1 H        0.925     0.043     2.411     2.428
    78   1 H        0.925     0.043     2.414     2.430
    79   1 H        0.925     0.031     2.572     2.508
    80   1 H        0.925     0.043     2.413     2.429
    81   1 H        0.926     0.035     2.518     2.481
    82   1 H        0.926     0.028     2.618     2.530
    83   1 H        0.926     0.029     2.599     2.521
    84   1 H        0.926     0.029     2.598     2.520
    85   1 H        0.926     0.058     2.227     2.334
    86   1 H        0.926     0.057     2.233     2.337
    87   1 H        0.925     0.058     2.218     2.329
    88   1 H        0.926     0.059     2.211     2.325
    89   1 H        0.926     0.057     2.237     2.339
    90   1 H        0.926     0.027     2.635     2.538
    91   1 H        0.926     0.029     2.602     2.522
    92   1 H        0.926     0.028     2.614     2.528
    93   1 H        0.926     0.035     2.513     2.479

molecular dipole:
                 x           y           z       tot (Debye)
 q only:        0.476       0.046      -0.184
   full:        0.841      -0.073      -0.098       2.160

 projected vibrational frequencies (cm⁻¹)
eigval :       -0.00    -0.00    -0.00     0.00     0.00     0.00
eigval :       -2.42     7.52    10.84    12.26    18.39    23.54
eigval :       24.86    36.50    40.86    44.58    52.99    60.19
eigval :       62.86    78.96    89.83   101.15   102.09   105.54
eigval :      107.38   119.36   120.77   129.09   143.06   149.83
eigval :      151.10   170.59   183.33   184.23   195.41   215.04
eigval :      218.61   220.05   225.41   236.30   237.58   244.29
eigval :      252.67   285.81   300.29   306.86   310.35   319.93
eigval :      331.32   332.11   341.75   343.80   345.50   354.47
eigval :      369.52   373.94   375.21   379.85   383.18   392.30
eigval :      393.64   408.19   409.90   425.41   444.75   452.80
eigval :      454.74   464.40   482.07   488.39   496.95   501.96
eigval :      514.01   515.37   538.78   546.84   548.14   549.03
eigval :      561.18   574.75   578.35   582.63   590.54   592.96
eigval :      602.95   606.92   613.31   628.42   647.60   650.88
eigval :      664.92   672.74   683.23   684.05   690.98   694.83
eigval :      695.35   703.60   718.91   727.02   746.61   755.04
eigval :      777.29   778.10   778.44   779.51   780.58   815.43
eigval :      820.11   826.35   829.11   837.11   862.16   868.87
eigval :      869.01   870.88   871.98   876.05   891.32   900.94
eigval :      909.18   912.02   912.77   913.00   914.20   914.26
eigval :      914.72   917.89   920.39   921.41   921.94   922.90
eigval :      924.84   927.46   927.93   934.39   936.85   938.41
eigval :      941.95   957.00   958.54   963.24  1011.63  1012.56
eigval :     1013.16  1020.37  1035.78  1075.19  1075.45  1084.08
eigval :     1084.69  1113.60  1114.17  1118.43  1119.84  1129.56
eigval :     1130.61  1133.84  1139.38  1139.49  1157.73  1158.23
eigval :     1170.07  1171.04  1173.51  1178.57  1182.48  1184.54
eigval :     1185.42  1186.00  1187.91  1190.17  1204.89  1209.03
eigval :     1234.28  1241.41  1244.24  1248.46  1248.69  1252.01
eigval :     1258.11  1259.54  1266.45  1267.03  1268.44  1293.02
eigval :     1293.77  1296.11  1310.87  1311.54  1313.13  1314.84
eigval :     1325.11  1325.85  1329.60  1330.58  1331.53  1331.75
eigval :     1373.28  1399.89  1400.59  1402.42  1402.73  1418.57
eigval :     1419.13  1431.34  1433.40  1434.50  1436.43  1437.39
eigval :     1468.19  1468.33  1473.52  1473.67  1484.90  1486.25
eigval :     1486.99  1487.24  1492.15  1492.22  1496.56  1497.17
eigval :     1500.78  1501.57  1536.98  1547.46  1548.18  1555.45
eigval :     1569.91  1570.51  1573.36  1573.50  1588.38  1588.66
eigval :     1589.78  1590.00  1599.19  1599.49  1643.08  1651.65
eigval :     3021.22  3022.34  3023.60  3024.81  3039.50  3040.39
eigval :     3041.33  3042.45  3048.21  3049.11  3052.17  3053.29
eigval :     3061.64  3073.61  3073.61  3074.45  3075.03  3080.76
eigval :     3081.13  3081.51  3081.93  3082.54  3084.58  3085.00
eigval :     3087.44  3090.45  3091.83  3092.35  3092.55  3093.03
eigval :     3094.65  3096.07  3097.60  3100.77  3100.82  3102.00
eigval :     3102.46  3103.76  3112.85

   temp. (K)  partition function   enthalpy   heat capacity  entropy
                                   cal/mol     cal/K/mol   cal/K/mol   J/K/mol
 298.15  VIB  0.108E+24            27461.903    169.021    174.028
         ROT  0.178E+09              888.752      2.981     40.738
         INT  0.193E+32            28350.655    172.001    214.766
         TR   0.180E+29             1481.254      4.968     45.506
         TOT                       29831.9090   176.9696   260.2720  1088.9781

       T/K    H(0)-H(T)+PV         H(T)/Eh          T*S/Eh         G(T)/Eh
   ------------------------------------------------------------------------
    298.15    0.475402E-01    0.776400E+00    0.123664E+00    0.652737E+00
   ------------------------------------------------------------------------

         :::::::::::::::::::::::::::::::::::::::::::::::::::::
         ::                  THERMODYNAMIC                  ::
         :::::::::::::::::::::::::::::::::::::::::::::::::::::
         :: total free energy        -141.154737901374 Eh   ::
         ::.................................................::
         :: total energy             -141.807474759543 Eh   ::
         :: zero point energy           0.728860311975 Eh   ::
         :: G(RRHO) w/o ZPVE           -0.076123453806 Eh   ::
         :: G(RRHO) contrib.            0.652736858169 Eh   ::
         :::::::::::::::::::::::::::::::::::::::::::::::::::::

           -------------------------------------------------
          | TOTAL ENERGY             -141.807474759543 Eh   |
          | TOTAL ENTHALPY           -141.031074274590 Eh   |
          | TOTAL FREE ENERGY        -141.154737901374 Eh   |
          | GRADIENT NORM               0.000050852406 Eh/α |
          | HOMO-LUMO GAP               0.790514399050 eV   |
           -------------------------------------------------

 * finished run on 2025/09/07 at 04:00:33.473
