   * xtb version 6.7.1 (edcfbbe) compiled by 'albert@albert-system' on 2024-07-22

   ID    Z sym.   atoms
    1    6 C      1-9, 11-15, 17-21, 23-26, 28-44, 46-54
    2    7 N      10, 27, 45
    3    8 O      16, 22
    4    1 H      55-93

          program call               : xtb data2507/toluene/25DAcBPy/25DAcBPy_toluene_S0_crest.xyz --gfn 2 --gbsa toluene --ohess vtight --parallel 40 --molden --ceasefiles --namespace data2507/toluene/25DAcBPy/25DAcBPy_toluene_S0_finalOpt
      * Solvation model:               GBSA
        Solvent                        toluene
        Solvent mass                       9.2140E+01 g/mol
          :  Hamiltonian                  GFN2-xTB          :
 * total energy  :  -141.8068981 Eh     change       -0.2749317E-08 Eh
 * total energy  :  -141.8070705 Eh     change       -0.1724657E-03 Eh
 * total energy  :  -141.8071340 Eh     change       -0.6350692E-04 Eh
 * total energy  :  -141.8071518 Eh     change       -0.1778593E-04 Eh
 * total energy  :  -141.8071763 Eh     change       -0.2448701E-04 Eh
 * total energy  :  -141.8072005 Eh     change       -0.2415075E-04 Eh
 * total energy  :  -141.8072243 Eh     change       -0.2386882E-04 Eh
 * total energy  :  -141.8072461 Eh     change       -0.2179456E-04 Eh
 * total energy  :  -141.8072702 Eh     change       -0.2411512E-04 Eh
 * total energy  :  -141.8072875 Eh     change       -0.1720585E-04 Eh
 * total energy  :  -141.8085870 Eh     change       -0.1419340E-05 Eh
 * total energy  :  -141.8085884 Eh     change       -0.1350437E-05 Eh
 * total energy  :  -141.8085896 Eh     change       -0.1211644E-05 Eh
 * total energy  :  -141.8085907 Eh     change       -0.1054159E-05 Eh
 * total energy  :  -141.8085916 Eh     change       -0.9469211E-06 Eh
 * total energy  :  -141.8085925 Eh     change       -0.9086858E-06 Eh
 * total energy  :  -141.8085934 Eh     change       -0.9033592E-06 Eh
 * total energy  :  -141.8085943 Eh     change       -0.8963336E-06 Eh
 * total energy  :  -141.8085943 Eh     change       -0.6932623E-08 Eh
   *** GEOMETRY OPTIMIZATION CONVERGED AFTER 122 ITERATIONS ***

 final structure:
================
93
 xtb: 6.7.1 (edcfbbe)
C            6.07676763786567        1.37585266438291        2.69848130945358
C            6.11892794464010        2.51350273488203        1.65743871805555
C            6.81533998931863        3.71517627314984        2.29668373703427
C            4.70062071854569        2.83324610011200        1.21460674013117
C            3.99548238172260        3.96756891499038        1.58823737476129
C            2.70830811706107        4.18960128964662        1.12663596812832
C            2.11366729554298        3.29306179599410        0.25592074575644
C            2.80313045377365        2.16089005682577       -0.13750272871889
C            4.07612196362733        1.91705704680450        0.36322644306469
N            4.82195664280713        0.79153245420166       -0.05581272593755
C            4.35837260091606       -0.49234248910516        0.02762139084577
C            3.08616855657833       -0.76543252198489        0.56472565920719
C            2.58305298260608       -2.04093945037704        0.58916724332546
C            3.32881998350878       -3.12278947270413        0.10243036184117
C            2.79908780077878       -4.48161717378891        0.03238647472636
O            3.50558016586407       -5.48158333502595       -0.04310565544359
C            1.31233010376015       -4.60310927593388        0.02225156923098
C            0.66617425500326       -5.63038348310883        0.70635624132109
C           -0.71722796406122       -5.68457859268316        0.69468779584299
C           -1.41295611640720       -4.68146518028137        0.02273710891608
C           -2.90565879112265       -4.61307859561615        0.04613529690409
O           -3.59353036841085       -5.61886903432461        0.08058381079389
C           -3.45629904250293       -3.24580433359290       -0.00120947448613
C           -4.65214788739331       -3.00349611345345       -0.67837770127505
C           -5.14651015229684       -1.71996148316681       -0.79045582769002
C           -4.46797046282533       -0.65565099108073       -0.19860486057688
N           -4.94039829238338        0.66951465598873       -0.33137419557822
C           -6.13584118647838        1.03857084921118        0.27703727120382
C           -6.85504617511047        0.10118017190157        1.02536084117825
C           -8.04945115369710        0.43485092075623        1.62882482256585
C           -8.54670595447197        1.72015118690678        1.50836202341598
C           -7.81820299989923        2.65971800292223        0.80339473123362
C           -6.61126416972222        2.35139000799441        0.18858491758527
C           -5.84191053216586        3.44822582380357       -0.52254574264253
C           -5.51307872847695        4.55466932564203        0.49772502022469
C           -6.71471639873641        4.01251463676246       -1.65945846444920
C           -4.54741540598897        2.93226616348557       -1.12066829430801
C           -3.72161710404274        3.81088884449515       -1.81096380979257
C           -2.54945435633859        3.39819687426667       -2.41601242236837
C           -2.19806258193910        2.06130471919194       -2.35983696801597
C           -2.99987932111114        1.16767122240902       -1.68098483041440
C           -4.16221578056870        1.59079141817162       -1.02722273897947
C           -3.30182173535129       -0.90303880250431        0.52503040895846
C           -2.79538814096104       -2.18128061341297        0.61454522110254
N           -0.79752086363430       -3.73802104217997       -0.68844726509958
C            0.51602548052391       -3.71664098158874       -0.70989014636983
C            4.64763480664553       -2.87045073196462       -0.29836406225896
C            5.15317571282063       -1.59550589508298       -0.33659382362580
C            6.14198721388762        1.13850685726920       -0.42267370968494
C            6.69347162027175        0.71059100831239       -1.62358996716927
C            7.97406628150868        1.10071065831304       -1.97056141513503
C            8.68832703653613        1.93757287896221       -1.13158304000240
C            8.11527828286873        2.40719368773342        0.03886613172094
C            6.83571050486980        2.02286368973977        0.41001385514512
H            7.08903420458933        1.11309762575656        2.99829826383893
H            5.59563489937771        0.48426229390662        2.30596441682032
H            5.52584963823537        1.70213763208459        3.57819623195217
H            6.87251753215963        4.54938113365855        1.60105141213844
H            7.82022217866913        3.44272845094610        2.60878312510880
H            6.27599692066753        4.02982528940485        3.18640702698720
H            4.44269112843794        4.69375521963304        2.24687305210746
H            2.17476480875658        5.07527431792625        1.43782826199244
H            1.12074343237581        3.47657800705817       -0.12671550949274
H            2.36424848279528        1.47135977969921       -0.84308811824932
H            2.49862670609071        0.03617546518908        0.98252206546057
H            1.60744195390772       -2.20810092511053        1.02003756048746
H            1.25295339550817       -6.35916630728013        1.24687092435248
H           -1.26172796161996       -6.45875066751186        1.21264601042274
H           -5.16457519636446       -3.83330840233727       -1.14219292061800
H           -6.05458884216587       -1.53064957785417       -1.34329459608074
H           -6.46970180796312       -0.89934916072940        1.14460743073015
H           -8.58623756117174       -0.31095651413871        2.19660166964394
H           -9.48346706557792        1.99342190833076        1.97039238071562
H           -8.20473613013058        3.66529196276778        0.73638397076487
H           -4.89819248024996        4.14876141895416        1.29932446063597
H           -6.42043280204908        4.96173049402570        0.93468581815599
H           -4.96915562643015        5.36806009796662        0.02579051980507
H           -6.20033755855366        4.81333240514044       -2.18327053158134
H           -6.94406552783152        3.22541473285113       -2.37596369868366
H           -7.64999895748086        4.40593092964425       -1.27133467055145
H           -3.99964483165506        4.85123822485520       -1.88427660830985
H           -1.92803173054905        4.10970195998951       -2.93892411357708
H           -1.30269218566232        1.70722353866075       -2.84941773288875
H           -2.72344112470416        0.12510149235178       -1.66507390114584
H           -2.79413170008996       -0.07953749106923        1.00485167264659
H           -1.89936480241357       -2.36101181648315        1.18729801995769
H            0.96003145780936       -2.95486101180259       -1.33714347912567
H            5.25784863237293       -3.70848846247825       -0.60274159721522
H            6.17723925762387       -1.44635522223159       -0.63766996058273
H            6.11258115496542        0.09163192586332       -2.29073708460112
H            8.40466433291955        0.76097159265513       -2.90060351900057
H            9.68954656251922        2.24295651774780       -1.39646849590459
H            8.68264567543291        3.08103595294758        0.65940909963987

          :  Hamiltonian                  GFN2-xTB          :
         :: gradient norm              0.000064593763 Eh/a0 ::
         :: HOMO-LUMO gap              1.007339752309 eV    ::
         :: SCC energy              -144.265079582848 Eh    ::
         :: -> dispersion             -0.129233224818 Eh    ::
         :: -> Gsolv                  -0.062997981366 Eh    ::
         :: repulsion energy           2.456485262031 Eh    ::

    * Orbital Energies and Occupations

         #    Occupation            Energy/Eh            Energy/eV
      -------------------------------------------------------------
         1        2.0000           -0.7220287             -19.6474
       ...           ...                  ...                  ...
       119        2.0000           -0.4130040             -11.2384
       120        2.0000           -0.4087694             -11.1232
       121        2.0000           -0.4070831             -11.0773
       122        2.0000           -0.4070650             -11.0768
       123        2.0000           -0.4044312             -11.0051
       124        2.0000           -0.4040541             -10.9949
       125        2.0000           -0.4031624             -10.9706
       126        2.0000           -0.4023294             -10.9479
       127        2.0000           -0.3979906             -10.8299
       128        2.0000           -0.3926514             -10.6846
       129        2.0000           -0.3850986             -10.4791
       130        2.0000           -0.3649028              -9.9295
       131        2.0000           -0.3486845              -9.4882 (HOMO)
       132                         -0.3116655              -8.4808 (LUMO)
       133                         -0.2846847              -7.7467
       134                         -0.2678701              -7.2891
       135                         -0.2531857              -6.8895
       136                         -0.2420545              -6.5866
       137                         -0.2332876              -6.3481
       138                         -0.2328128              -6.3352
       139                         -0.2300923              -6.2611
       140                         -0.2272929              -6.1850
       141                         -0.2251408              -6.1264
       142                         -0.2246541              -6.1131
       ...                                ...                  ...
       255                          0.6784375              18.4612
      -------------------------------------------------------------
                  HL-Gap            0.0370191 Eh            1.0073 eV

     #   Z          covCN         q      C6AA      α(0)
     1   6 C        3.761    -0.100    22.458     6.756
     2   6 C        3.910     0.023    20.127     6.377
     3   6 C        3.759    -0.110    22.649     6.785
     4   6 C        2.987    -0.004    28.119     8.698
     5   6 C        2.923    -0.037    28.928     8.820
     6   6 C        2.919    -0.035    28.876     8.812
     7   6 C        2.919    -0.032    28.809     8.802
     8   6 C        2.920    -0.045    29.117     8.849
     9   6 C        2.952     0.052    26.825     8.495
    10   7 N        2.754    -0.051    22.225     7.002
    11   6 C        2.911     0.078    26.268     8.404
    12   6 C        2.921    -0.056    29.402     8.892
    13   6 C        2.920    -0.028    28.690     8.784
    14   6 C        2.970    -0.036    28.890     8.816
    15   6 C        2.827     0.220    23.374     7.922
    16   8 O        0.858    -0.438    22.454     6.353
    17   6 C        2.968    -0.014    28.357     8.735
    18   6 C        2.929    -0.001    28.060     8.687
    19   6 C        2.914    -0.028    28.710     8.786
    20   6 C        2.962     0.074    26.354     8.420
    21   6 C        2.829     0.228    23.217     7.896
    22   8 O        0.857    -0.401    21.698     6.245
    23   6 C        2.973    -0.009    28.246     8.718
    24   6 C        2.922    -0.015    28.380     8.736
    25   6 C        2.919    -0.036    28.892     8.814
    26   6 C        2.926     0.078    26.258     8.403
    27   7 N        2.752    -0.064    22.485     7.043
    28   6 C        2.925     0.057    26.720     8.477
    29   6 C        2.924    -0.060    29.480     8.904
    30   6 C        2.920    -0.034    28.849     8.808
    31   6 C        2.917    -0.045    29.113     8.848
    32   6 C        2.928    -0.037    28.922     8.820
    33   6 C        2.979    -0.012    28.310     8.728
    34   6 C        3.909     0.021    20.161     6.382
    35   6 C        3.761    -0.104    22.537     6.768
    36   6 C        3.761    -0.104    22.534     6.767
    37   6 C        2.979    -0.012    28.303     8.727
    38   6 C        2.928    -0.037    28.924     8.820
    39   6 C        2.917    -0.045    29.111     8.848
    40   6 C        2.920    -0.034    28.846     8.808
    41   6 C        2.924    -0.059    29.472     8.903
    42   6 C        2.927     0.057    26.727     8.478
    43   6 C        2.920    -0.035    28.881     8.813
    44   6 C        2.921    -0.018    28.459     8.748
    45   7 N        1.841    -0.224    26.747     7.664
    46   6 C        2.908     0.064    26.567     8.452
    47   6 C        2.923    -0.017    28.425     8.743
    48   6 C        2.919    -0.056    29.403     8.892
    49   6 C        2.950     0.053    26.814     8.493
    50   6 C        2.920    -0.045    29.128     8.850
    51   6 C        2.920    -0.033    28.818     8.803
    52   6 C        2.919    -0.035    28.879     8.812
    53   6 C        2.923    -0.037    28.928     8.820
    54   6 C        2.987    -0.004    28.117     8.698
    55   1 H        0.925     0.043     2.411     2.428
    56   1 H        0.925     0.034     2.535     2.490
    57   1 H        0.925     0.043     2.408     2.426
    58   1 H        0.925     0.042     2.423     2.434
    59   1 H        0.925     0.046     2.374     2.409
    60   1 H        0.925     0.046     2.368     2.407
    61   1 H        0.926     0.049     2.337     2.391
    62   1 H        0.926     0.039     2.465     2.455
    63   1 H        0.926     0.040     2.448     2.447
    64   1 H        0.926     0.041     2.434     2.440
    65   1 H        0.926     0.049     2.330     2.387
    66   1 H        0.926     0.034     2.526     2.485
    67   1 H        0.926     0.060     2.204     2.322
    68   1 H        0.926     0.061     2.188     2.313
    69   1 H        0.926     0.056     2.249     2.345
    70   1 H        0.926     0.058     2.221     2.331
    71   1 H        0.926     0.027     2.629     2.535
    72   1 H        0.926     0.028     2.619     2.531
    73   1 H        0.926     0.027     2.628     2.535
    74   1 H        0.926     0.035     2.522     2.483
    75   1 H        0.925     0.031     2.570     2.507
    76   1 H        0.925     0.042     2.421     2.433
    77   1 H        0.925     0.043     2.408     2.427
    78   1 H        0.925     0.043     2.416     2.431
    79   1 H        0.925     0.031     2.578     2.511
    80   1 H        0.925     0.042     2.419     2.432
    81   1 H        0.926     0.035     2.522     2.483
    82   1 H        0.926     0.028     2.615     2.529
    83   1 H        0.926     0.029     2.600     2.522
    84   1 H        0.926     0.029     2.597     2.520
    85   1 H        0.926     0.058     2.225     2.333
    86   1 H        0.926     0.045     2.389     2.417
    87   1 H        0.925     0.054     2.266     2.354
    88   1 H        0.926     0.046     2.372     2.408
    89   1 H        0.926     0.048     2.342     2.393
    90   1 H        0.926     0.041     2.436     2.441
    91   1 H        0.926     0.038     2.477     2.461
    92   1 H        0.926     0.038     2.473     2.459
    93   1 H        0.926     0.049     2.335     2.390

molecular dipole:
                 x           y           z       tot (Debye)
 q only:        1.167       4.732       0.575
   full:        1.351       4.325       0.696      11.651

 projected vibrational frequencies (cm⁻¹)
eigval :       -0.00    -0.00    -0.00     0.00     0.00     0.00
eigval :        7.21     9.16    13.24    15.34    21.10    25.70
eigval :       31.56    43.91    49.80    58.20    63.94    65.09
eigval :       70.81    78.40    91.82   105.58   108.23   117.96
eigval :      132.23   134.77   140.21   143.69   158.38   162.20
eigval :      176.69   181.78   186.58   198.65   200.14   207.73
eigval :      219.29   221.81   234.82   239.69   248.12   274.10
eigval :      281.88   287.55   298.83   311.59   317.13   319.68
eigval :      329.82   332.99   339.38   344.78   355.36   359.46
eigval :      362.40   376.00   380.76   387.59   394.77   399.37
eigval :      404.03   408.47   410.15   428.64   446.79   455.43
eigval :      455.92   468.00   474.40   489.38   499.76   501.79
eigval :      512.98   515.06   544.40   546.99   547.52   558.43
eigval :      564.52   574.00   575.04   580.58   590.66   592.71
eigval :      601.63   610.17   613.47   628.66   647.09   649.98
eigval :      664.55   671.47   684.50   692.14   693.30   695.59
eigval :      705.43   714.14   722.61   725.82   743.39   753.69
eigval :      775.67   776.61   777.46   779.87   785.64   809.34
eigval :      817.95   822.25   827.60   838.51   858.22   865.55
eigval :      871.00   872.96   885.23   887.22   890.47   901.32
eigval :      906.62   909.33   913.56   913.82   915.30   916.88
eigval :      917.62   919.89   921.49   923.77   924.52   925.98
eigval :      927.52   931.04   936.27   939.05   942.07   945.60
eigval :      946.94   956.84   958.80   967.74  1009.47  1010.78
eigval :     1014.59  1019.33  1034.63  1072.49  1075.88  1078.53
eigval :     1084.05  1098.62  1104.97  1114.80  1119.72  1125.51
eigval :     1131.26  1136.78  1140.60  1151.17  1153.54  1157.86
eigval :     1171.56  1174.56  1175.49  1181.96  1183.58  1186.68
eigval :     1187.83  1188.73  1190.09  1197.26  1206.13  1214.72
eigval :     1227.87  1237.70  1244.09  1250.44  1252.37  1255.86
eigval :     1260.53  1263.04  1269.12  1269.44  1270.80  1271.89
eigval :     1289.44  1293.77  1302.57  1310.62  1314.00  1317.95
eigval :     1324.37  1324.87  1330.38  1331.46  1340.06  1354.06
eigval :     1373.02  1396.09  1399.94  1401.78  1413.77  1418.63
eigval :     1427.09  1428.21  1433.82  1436.90  1437.08  1442.90
eigval :     1451.67  1469.77  1470.50  1474.25  1487.22  1488.32
eigval :     1488.92  1491.33  1492.54  1493.65  1498.04  1502.53
eigval :     1502.96  1519.35  1529.04  1537.88  1550.85  1555.23
eigval :     1570.22  1573.09  1573.55  1574.74  1583.36  1587.13
eigval :     1588.54  1589.88  1596.52  1599.48  1636.27  1669.64
eigval :     3021.36  3023.82  3027.12  3029.71  3033.11  3033.44
eigval :     3039.68  3041.65  3048.27  3048.45  3052.59  3054.08
eigval :     3059.97  3072.92  3073.37  3079.04  3079.42  3079.76
eigval :     3080.61  3080.68  3084.10  3085.44  3085.82  3086.04
eigval :     3086.47  3089.30  3091.44  3092.19  3095.14  3095.70
eigval :     3095.80  3099.56  3101.52  3101.95  3103.68  3109.85
eigval :     3113.06  3114.26  3115.29

   temp. (K)  partition function   enthalpy   heat capacity  entropy
                                   cal/mol     cal/K/mol   cal/K/mol   J/K/mol
 298.15  VIB  0.163E+22            27022.295    169.497    168.292
         ROT  0.140E+09              888.752      2.981     40.259
         INT  0.228E+30            27911.047    172.477    208.551
         TR   0.180E+29             1481.254      4.968     45.506
         TOT                       29392.3013   177.4456   254.0568  1062.9736

       T/K    H(0)-H(T)+PV         H(T)/Eh          T*S/Eh         G(T)/Eh
   ------------------------------------------------------------------------
    298.15    0.468396E-01    0.777096E+00    0.120711E+00    0.656385E+00
   ------------------------------------------------------------------------

         :::::::::::::::::::::::::::::::::::::::::::::::::::::
         ::                  THERMODYNAMIC                  ::
         :::::::::::::::::::::::::::::::::::::::::::::::::::::
         :: total free energy        -141.152209342372 Eh   ::
         ::.................................................::
         :: total energy             -141.808594321536 Eh   ::
         :: zero point energy           0.730255939715 Eh   ::
         :: G(RRHO) w/o ZPVE           -0.073870960551 Eh   ::
         :: G(RRHO) contrib.            0.656384979164 Eh   ::
         :::::::::::::::::::::::::::::::::::::::::::::::::::::

           -------------------------------------------------
          | TOTAL ENERGY             -141.808594321536 Eh   |
          | TOTAL ENTHALPY           -141.031498768168 Eh   |
          | TOTAL FREE ENERGY        -141.152209342372 Eh   |
          | GRADIENT NORM               0.000064589510 Eh/α |
          | HOMO-LUMO GAP               1.007339721160 eV   |
           -------------------------------------------------

 * finished run on 2025/09/07 at 04:12:11.566
