   * xtb version 6.7.1 (edcfbbe) compiled by 'albert@albert-system' on 2024-07-22

   ID    Z sym.   atoms
    1    6 C      1-9, 11-15, 17-21, 23-26, 28-44, 46-54
    2    7 N      10, 27, 45
    3    8 O      16, 22
    4    1 H      55-93

          program call               : xtb data2507/toluene/25DAcBPy/25DAcBPy_toluene_S0_finalOpt.xtbopt.xyz --gfn 2 --uhf 2 --gbsa toluene --ohess vtight --parallel 40 --molden --ceasefiles --namespace data2507/toluene/25DAcBPy/25DAcBPy_toluene_T1_preOpt
      * Solvation model:               GBSA
        Solvent                        toluene
        Solvent mass                       9.2140E+01 g/mol
          :  Hamiltonian                  GFN2-xTB          :
 * total energy  :  -141.7444175 Eh     change       -0.8840800E-08 Eh
 * total energy  :  -141.7480162 Eh     change       -0.3598750E-02 Eh
 * total energy  :  -141.7499849 Eh     change       -0.1968643E-02 Eh
 * total energy  :  -141.7506347 Eh     change       -0.6497987E-03 Eh
 * total energy  :  -141.7514933 Eh     change       -0.8586428E-03 Eh
 * total energy  :  -141.7520976 Eh     change       -0.6043275E-03 Eh
 * total energy  :  -141.7524965 Eh     change       -0.3988747E-03 Eh
 * total energy  :  -141.7526841 Eh     change       -0.1875870E-03 Eh
 * total energy  :  -141.7527958 Eh     change       -0.1116862E-03 Eh
 * total energy  :  -141.7528906 Eh     change       -0.9484844E-04 Eh
 * total energy  :  -141.7569347 Eh     change       -0.1655511E-05 Eh
 * total energy  :  -141.7569358 Eh     change       -0.1076267E-05 Eh
 * total energy  :  -141.7569368 Eh     change       -0.9799111E-06 Eh
 * total energy  :  -141.7569378 Eh     change       -0.1048959E-05 Eh
 * total energy  :  -141.7569388 Eh     change       -0.9531350E-06 Eh
 * total energy  :  -141.7569396 Eh     change       -0.8116798E-06 Eh
 * total energy  :  -141.7569404 Eh     change       -0.7595828E-06 Eh
 * total energy  :  -141.7569411 Eh     change       -0.7075139E-06 Eh
 * total energy  :  -141.7569411 Eh     change       -0.7727976E-08 Eh
   *** GEOMETRY OPTIMIZATION CONVERGED AFTER 260 ITERATIONS ***

 final structure:
================
93
 xtb: 6.7.1 (edcfbbe)
C            7.84468546276043        0.81790325577705        2.64105010980473
C            7.84716134364484        2.13672385747473        1.83975478178240
C            8.92839390854953        3.04494279866970        2.42647924146481
C            6.46433586249656        2.76112519112382        1.90807619645519
C            6.14168977364351        3.87410071291959        2.66888892307085
C            4.85600654558719        4.39046171521768        2.66610544503012
C            3.87520496738944        3.81627917983908        1.87592345375458
C            4.17529001480074        2.70887296406861        1.10516216447405
C            5.45432686695399        2.16401289796416        1.14431533503197
N            5.80249016701474        1.06320265011957        0.33664595297763
C            5.11381605276069       -0.13116247439540        0.33982693904379
C            3.98732390513839       -0.31571640472715        1.15851980399732
C            3.29069468840030       -1.50287737123928        1.15343900170218
C            3.69363883252938       -2.57043133395763        0.34831424022196
C            2.99026261191032       -3.87116066448243        0.33440103940157
O            3.63435412354771       -4.93098581458051        0.25717801644549
C            1.53952629971583       -3.87300912438495        0.40438921293029
C            0.83865677870808       -5.06144329745057        0.73191936933163
C           -0.52321830744720       -5.06997367447220        0.76505664630252
C           -1.24184897598709       -3.88556363297863        0.45472775737290
C           -2.68756967505458       -3.92455970180726        0.48592221831964
O           -3.28003532697698       -4.99741491096793        0.75772557717946
C           -3.48807752427200       -2.72206549456092        0.18648815891908
C           -4.86603528060115       -2.90895531815115        0.00096027958673
C           -5.69866607960824       -1.84946155849177       -0.27867350066178
C           -5.17308587055799       -0.56312280085293       -0.36829187233230
N           -6.01745583921509        0.54602967560501       -0.65829487392906
C           -6.71375669719019        1.14361559412712        0.37190221373267
C           -6.58984959071555        0.63673103139109        1.67416596216843
C           -7.27888570921933        1.20649886593596        2.72077306495015
C           -8.10327557788347        2.29840423259385        2.49092211780437
C           -8.22051464562294        2.80744190165527        1.21040281669378
C           -7.53960821419154        2.25417413427422        0.13413918464064
C           -7.69950591778039        2.85644724538111       -1.24522047770340
C           -7.22855361077383        4.32372257122534       -1.19956322315876
C           -9.18691238016216        2.78955453292176       -1.64564767531119
C           -6.88669349224737        2.11536228884129       -2.28488937448414
C           -6.92048778790891        2.52965907094745       -3.60988597573342
C           -6.20865481197691        1.87656339047616       -4.59940853191510
C           -5.43926106748143        0.76938425707476       -4.27228307702906
C           -5.38403711516093        0.33585677272530       -2.96702830159276
C           -6.09589945391770        1.00196893555896       -1.95826389935390
C           -3.81018695748276       -0.35731379837192       -0.17029470043464
C           -2.98051280738382       -1.42430916984825        0.10464968368201
N           -0.56176653663368       -2.78113923737421        0.10023193597835
C            0.74054031040003       -2.76483169228908        0.07249363512916
C            4.87345902780028       -2.42413641966268       -0.38450656974675
C            5.57008735739224       -1.23845346570503       -0.39395453444205
C            7.02052078367105        1.26220773769811       -0.34344261990999
C            7.13441529923669        1.01170084354635       -1.70671419446732
C            8.33084896292258        1.25671835396961       -2.35412788096014
C            9.40305274357989        1.77167778842604       -1.64622051477875
C            9.27286561983819        2.06660421955874       -0.29874769344627
C            8.08398725484143        1.82573869006089        0.37208180734449
H            8.81835376644213        0.33870396303480        2.56458849621863
H            7.09369200885432        0.12221031948675        2.27646163423590
H            7.63828856131853        1.02412149266220        3.68913762177517
H            8.97427064596970        3.99233109120985        1.89426882348936
H            9.89753976867007        2.55649491609949        2.36894879251538
H            8.72613598994480        3.23542117413962        3.47718329520227
H            6.89207949605565        4.35362273273313        3.27530599657632
H            4.62606687511449        5.25454609788399        3.27112898147915
H            2.88076748022618        4.23529388446966        1.84775984545203
H            3.43020413244941        2.27723574041663        0.45398742291595
H            3.67322427950811        0.46781057973966        1.82911692542216
H            2.44164964453227       -1.61980168686513        1.81083338731329
H            1.41395429492715       -5.94739354880487        0.96174948286282
H           -1.09493416951656       -5.94978994401837        1.02082522249018
H           -5.25162052522916       -3.91525694304980        0.07889140033853
H           -6.75621295840796       -2.00729763065231       -0.43037584267125
H           -5.94596762481758       -0.20950221952530        1.85448034208514
H           -7.17189910377665        0.80053603222174        3.71514236551215
H           -8.64789796524554        2.75168378815465        3.30489833628467
H           -8.86137228977370        3.66034588589435        1.05148313917460
H           -6.17974361169784        4.36959683391005       -0.91271271437289
H           -7.80807607412143        4.89088790277980       -0.47751244494034
H           -7.34047182218389        4.79395549398088       -2.17182386799514
H           -9.34319092157159        3.23784203255740       -2.62213339873236
H           -9.51486940419955        1.75251292078732       -1.68606648054736
H           -9.80407676687203        3.31766753442415       -0.92518596882541
H           -7.51821875140075        3.38467194893436       -3.88392631079477
H           -6.25657097087887        2.22519211482194       -5.61959711242433
H           -4.88389799838051        0.24372651236333       -5.03408458214788
H           -4.78883191871499       -0.52727995572527       -2.71418590632363
H           -3.40965538699629        0.64383634317651       -0.23289518686538
H           -1.92331579940914       -1.26534832803989        0.25083388540180
H            1.18852058206838       -1.83675113694476       -0.26015455523838
H            5.23262078377947       -3.27061175251691       -0.95198847023958
H            6.49093694705947       -1.17943585244493       -0.95081376389093
H            6.27944398455826        0.65030576083022       -2.25800191243655
H            8.41859296496867        1.05736915140476       -3.41149056014458
H           10.34035127057727        1.96221811251143       -2.14693530911790
H           10.11518415849217        2.48936317472837        0.22331648474051

          :  Hamiltonian                  GFN2-xTB          :
         :: gradient norm              0.000071406009 Eh/a0 ::
         :: HOMO-LUMO gap              0.919232946329 eV    ::
         :: SCC energy              -144.202313171243 Eh    ::
         :: -> dispersion             -0.127167013119 Eh    ::
         :: -> Gsolv                  -0.079239654893 Eh    ::
         :: repulsion energy           2.445372085713 Eh    ::

    * Orbital Energies and Occupations

         #    Occupation            Energy/Eh            Energy/eV
      -------------------------------------------------------------
         1        2.0000           -0.6874897             -18.7075
       ...           ...                  ...                  ...
       120        2.0000           -0.4135643             -11.2537
       121        2.0000           -0.4103407             -11.1659
       122        2.0000           -0.4096411             -11.1469
       123        2.0000           -0.4093341             -11.1385
       124        2.0000           -0.4077383             -11.0951
       125        2.0000           -0.4065562             -11.0630
       126        2.0000           -0.4064174             -11.0592
       127        2.0000           -0.3892124             -10.5910
       128        2.0000           -0.3806082             -10.3569
       129        1.9578           -0.3669405              -9.9850
       130        1.7637           -0.3650897              -9.9346
       131        1.2785           -0.3630711              -9.8797
       132        1.0000           -0.3036273              -8.2621 (HOMO)
       133                         -0.2698461              -7.3429 (LUMO)
       134                         -0.2439187              -6.6374
       135                         -0.2425482              -6.6001
       136                         -0.2407341              -6.5507
       137                         -0.2358586              -6.4180
       138                         -0.2351804              -6.3996
       139                         -0.2341716              -6.3721
       140                         -0.2330924              -6.3428
       141                         -0.2318673              -6.3094
       142                         -0.2298385              -6.2542
       143                         -0.2276515              -6.1947
       ...                                ...                  ...
       255                          0.6733381              18.3225
      -------------------------------------------------------------
                  HL-Gap            0.0337813 Eh            0.9192 eV

     #   Z          covCN         q      C6AA      α(0)
     1   6 C        3.761    -0.100    22.460     6.756
     2   6 C        3.910     0.024    20.119     6.375
     3   6 C        3.759    -0.111    22.672     6.788
     4   6 C        2.987    -0.002    28.071     8.691
     5   6 C        2.922    -0.036    28.895     8.815
     6   6 C        2.919    -0.033    28.823     8.804
     7   6 C        2.919    -0.032    28.786     8.798
     8   6 C        2.919    -0.043    29.080     8.843
     9   6 C        2.951     0.053    26.799     8.491
    10   7 N        2.754    -0.040    22.008     6.968
    11   6 C        2.910     0.070    26.430     8.430
    12   6 C        2.921    -0.053    29.314     8.879
    13   6 C        2.920    -0.031    28.769     8.796
    14   6 C        2.969    -0.022    28.561     8.766
    15   6 C        2.828     0.199    23.761     7.988
    16   8 O        0.858    -0.490    23.554     6.507
    17   6 C        2.965    -0.041    29.020     8.836
    18   6 C        2.924    -0.016    28.416     8.742
    19   6 C        2.915    -0.035    28.861     8.809
    20   6 C        2.938     0.053    26.813     8.492
    21   6 C        2.832     0.181    24.117     8.047
    22   8 O        0.858    -0.506    23.916     6.557
    23   6 C        2.968    -0.007    28.198     8.710
    24   6 C        2.928    -0.022    28.564     8.765
    25   6 C        2.916    -0.038    28.949     8.823
    26   6 C        2.930     0.056    26.751     8.482
    27   7 N        2.755    -0.017    21.581     6.900
    28   6 C        2.929     0.060    26.646     8.466
    29   6 C        2.922    -0.048    29.182     8.859
    30   6 C        2.918    -0.027    28.677     8.781
    31   6 C        2.917    -0.031    28.777     8.797
    32   6 C        2.925    -0.032    28.804     8.801
    33   6 C        2.978    -0.001    28.039     8.686
    34   6 C        3.909     0.024    20.107     6.374
    35   6 C        3.761    -0.108    22.613     6.779
    36   6 C        3.761    -0.108    22.613     6.779
    37   6 C        2.978    -0.001    28.039     8.686
    38   6 C        2.925    -0.032    28.804     8.801
    39   6 C        2.917    -0.031    28.777     8.797
    40   6 C        2.918    -0.027    28.676     8.781
    41   6 C        2.922    -0.048    29.181     8.859
    42   6 C        2.930     0.060    26.649     8.466
    43   6 C        2.918    -0.036    28.904     8.816
    44   6 C        2.920    -0.037    28.927     8.820
    45   7 N        1.839    -0.221    26.671     7.653
    46   6 C        2.887     0.058    26.694     8.470
    47   6 C        2.923    -0.020    28.509     8.756
    48   6 C        2.920    -0.053    29.304     8.877
    49   6 C        2.951     0.054    26.793     8.490
    50   6 C        2.919    -0.043    29.077     8.843
    51   6 C        2.919    -0.031    28.785     8.798
    52   6 C        2.919    -0.033    28.821     8.804
    53   6 C        2.922    -0.036    28.897     8.815
    54   6 C        2.987    -0.002    28.071     8.691
    55   1 H        0.925     0.044     2.390     2.418
    56   1 H        0.925     0.033     2.541     2.493
    57   1 H        0.925     0.045     2.385     2.415
    58   1 H        0.925     0.044     2.393     2.419
    59   1 H        0.925     0.048     2.348     2.396
    60   1 H        0.925     0.048     2.344     2.394
    61   1 H        0.926     0.053     2.289     2.366
    62   1 H        0.926     0.042     2.417     2.431
    63   1 H        0.926     0.043     2.415     2.430
    64   1 H        0.926     0.044     2.392     2.418
    65   1 H        0.926     0.051     2.313     2.378
    66   1 H        0.926     0.035     2.513     2.479
    67   1 H        0.926     0.040     2.451     2.448
    68   1 H        0.926     0.042     2.418     2.431
    69   1 H        0.926     0.051     2.305     2.374
    70   1 H        0.926     0.050     2.323     2.383
    71   1 H        0.926     0.040     2.450     2.448
    72   1 H        0.926     0.042     2.425     2.435
    73   1 H        0.926     0.044     2.391     2.418
    74   1 H        0.926     0.051     2.304     2.373
    75   1 H        0.925     0.038     2.475     2.460
    76   1 H        0.925     0.052     2.292     2.368
    77   1 H        0.925     0.052     2.292     2.368
    78   1 H        0.925     0.052     2.294     2.369
    79   1 H        0.925     0.037     2.488     2.467
    80   1 H        0.925     0.052     2.294     2.369
    81   1 H        0.926     0.051     2.304     2.373
    82   1 H        0.926     0.044     2.392     2.419
    83   1 H        0.926     0.042     2.426     2.436
    84   1 H        0.926     0.040     2.448     2.447
    85   1 H        0.926     0.052     2.300     2.372
    86   1 H        0.926     0.074     2.046     2.237
    87   1 H        0.925     0.043     2.407     2.426
    88   1 H        0.926     0.040     2.452     2.449
    89   1 H        0.926     0.049     2.329     2.386
    90   1 H        0.926     0.044     2.398     2.422
    91   1 H        0.926     0.041     2.431     2.438
    92   1 H        0.926     0.042     2.423     2.434
    93   1 H        0.926     0.053     2.287     2.365

molecular dipole:
                 x           y           z       tot (Debye)
 q only:       -1.097       8.773      -0.726
   full:       -0.908       8.312      -0.688      21.323

 projected vibrational frequencies (cm⁻¹)
eigval :       -0.00    -0.00     0.00     0.00     0.00     0.00
eigval :        5.77     7.99    10.11    11.66    21.50    24.69
eigval :       31.27    36.11    43.42    51.40    60.69    64.67
eigval :       76.54    78.48    85.17    94.32   103.63   127.20
eigval :      130.45   131.72   134.93   139.20   146.49   164.05
eigval :      175.02   179.99   188.05   194.89   198.96   213.19
eigval :      216.36   221.77   234.39   247.02   257.40   279.81
eigval :      283.85   290.38   297.78   315.04   318.83   325.82
eigval :      328.68   334.58   340.11   342.52   360.62   367.62
eigval :      370.98   376.76   379.00   389.80   394.71   400.24
eigval :      400.37   406.00   411.13   425.16   441.87   448.50
eigval :      452.90   456.96   472.78   483.99   498.06   503.34
eigval :      506.40   515.22   530.99   542.00   546.42   557.45
eigval :      562.85   572.47   573.13   576.72   586.52   588.92
eigval :      594.32   607.65   611.17   614.94   621.31   639.36
eigval :      646.26   664.71   675.72   688.72   692.47   694.14
eigval :      697.47   702.72   707.90   717.41   725.21   741.57
eigval :      768.55   773.33   775.21   776.05   783.50   809.57
eigval :      809.84   816.14   816.97   826.34   851.47   855.52
eigval :      869.33   871.03   873.76   883.80   885.87   888.69
eigval :      902.31   905.72   906.82   910.72   912.27   913.78
eigval :      915.08   918.51   918.71   919.90   921.03   924.22
eigval :      925.80   926.24   932.24   936.83   939.55   942.06
eigval :      944.45   954.32   958.89   968.20   991.69  1009.54
eigval :     1012.75  1014.82  1019.02  1072.40  1073.21  1077.81
eigval :     1083.79  1097.17  1103.29  1104.46  1110.46  1121.36
eigval :     1124.23  1135.06  1137.48  1146.36  1149.77  1153.02
eigval :     1154.46  1165.84  1170.83  1178.47  1180.78  1181.14
eigval :     1183.34  1185.32  1187.43  1192.75  1204.69  1212.53
eigval :     1227.15  1229.24  1236.81  1241.02  1251.10  1252.00
eigval :     1256.28  1261.29  1262.70  1267.36  1269.90  1278.64
eigval :     1285.93  1291.86  1304.01  1306.47  1311.40  1316.40
eigval :     1316.98  1323.62  1326.46  1327.25  1329.96  1333.52
eigval :     1394.17  1396.06  1397.41  1402.53  1409.87  1413.52
eigval :     1414.24  1415.97  1416.47  1426.96  1431.24  1433.55
eigval :     1434.40  1447.41  1451.32  1453.31  1463.49  1465.28
eigval :     1469.50  1474.50  1480.78  1482.12  1488.76  1490.23
eigval :     1491.42  1496.09  1502.73  1518.13  1528.86  1533.53
eigval :     1542.43  1550.55  1555.90  1563.43  1568.70  1575.18
eigval :     1576.17  1577.71  1581.52  1581.63  1586.70  1592.62
eigval :     3028.34  3028.67  3030.78  3031.03  3034.70  3036.29
eigval :     3041.15  3049.11  3049.17  3050.75  3051.15  3056.31
eigval :     3060.10  3068.90  3078.92  3079.78  3080.25  3081.25
eigval :     3081.70  3083.74  3084.63  3085.24  3085.78  3087.56
eigval :     3087.93  3089.10  3090.83  3092.12  3092.72  3096.32
eigval :     3097.20  3101.69  3101.89  3107.69  3109.41  3109.54
eigval :     3111.45  3116.48  3117.34

   temp. (K)  partition function   enthalpy   heat capacity  entropy
                                   cal/mol     cal/K/mol   cal/K/mol   J/K/mol
 298.15  VIB  0.785E+22            27196.839    170.057    170.144
         ROT  0.183E+09              888.752      2.981     40.783
         INT  0.143E+31            28085.592    173.037    210.927
         TR   0.180E+29             1481.254      4.968     45.506
         TOT                       29566.8458   178.0056   256.4328  1072.9147

       T/K    H(0)-H(T)+PV         H(T)/Eh          T*S/Eh         G(T)/Eh
   ------------------------------------------------------------------------
    298.15    0.471178E-01    0.774371E+00    0.121839E+00    0.652532E+00
   ------------------------------------------------------------------------

         :::::::::::::::::::::::::::::::::::::::::::::::::::::
         ::                  THERMODYNAMIC                  ::
         :::::::::::::::::::::::::::::::::::::::::::::::::::::
         :: total free energy        -141.104409104025 Eh   ::
         ::.................................................::
         :: total energy             -141.756941086401 Eh   ::
         :: zero point energy           0.727253696989 Eh   ::
         :: G(RRHO) w/o ZPVE           -0.074721714612 Eh   ::
         :: G(RRHO) contrib.            0.652531982377 Eh   ::
         :::::::::::::::::::::::::::::::::::::::::::::::::::::

           -------------------------------------------------
          | TOTAL ENERGY             -141.756941086401 Eh   |
          | TOTAL ENTHALPY           -140.982569621532 Eh   |
          | TOTAL FREE ENERGY        -141.104409104025 Eh   |
          | GRADIENT NORM               0.000071825882 Eh/α |
          | HOMO-LUMO GAP               0.919234627526 eV   |
           -------------------------------------------------

 * finished run on 2025/09/07 at 04:12:45.383
