   * xtb version 6.7.1 (edcfbbe) compiled by 'albert@albert-system' on 2024-07-22

   ID    Z sym.   atoms
    1    6 C      1-4, 6-13, 15, 16, 18-31
    2   15 P      5, 17
    3   16 S      14
    4    1 H      32-53

          program call               : xtb data2507/gas/1G-F1/1G-F1_gas_T1_crest.xyz --gfn 2 --spinpol --tblite --uhf 2 --ohess vtight --parallel 40 --molden --ceasefiles --namespace data2507/gas/1G-F1/1G-F1_gas_T1_finalOpt
 * total energy  :   -79.2984993 Eh     change       -0.8727852E-08 Eh
 * total energy  :   -79.2985091 Eh     change       -0.9817551E-05 Eh
 * total energy  :   -79.2985123 Eh     change       -0.3162774E-05 Eh
 * total energy  :   -79.2985132 Eh     change       -0.9759974E-06 Eh
 * total energy  :   -79.2985136 Eh     change       -0.3709207E-06 Eh
 * total energy  :   -79.2985140 Eh     change       -0.4260212E-06 Eh
 * total energy  :   -79.2985145 Eh     change       -0.4337822E-06 Eh
 * total energy  :   -79.2985148 Eh     change       -0.3312235E-06 Eh
 * total energy  :   -79.2985150 Eh     change       -0.1526231E-06 Eh
 * total energy  :   -79.2985150 Eh     change        0.5095671E-08 Eh
 * total energy  :   -79.2985150 Eh     change       -0.9203501E-07 Eh
   *** GEOMETRY OPTIMIZATION CONVERGED AFTER 11 ITERATIONS ***

 final structure:
================
53
 xtb: 6.7.1 (edcfbbe)
C            1.77277694450305        4.09451063693954       -0.39950858471340
C            1.67519520467410        3.65024186726200        0.91233118872760
C            1.58104675138656        2.30238197226532        1.18166876788156
C            1.61069914107781        1.37259309387426        0.13573603999022
P            1.29602800073286       -0.37284289445643        0.50034973540989
C            2.95084480440466       -1.09964974550982        0.79520010615867
C            3.07906147343700       -2.48622101147499        0.72932751551434
C            4.29088892791621       -3.08178855521159        1.01397584751952
C            5.37159794037185       -2.30326617576702        1.40512300815459
C            5.23523835454014       -0.92757137207842        1.50855841254930
C            4.02647940753215       -0.32310231226964        1.21999465699903
C            0.70834757669352       -1.18535192358144       -0.97769927629143
C            1.24894641320525       -1.68220032964001       -2.12952054705782
S           -0.00802126774854       -2.15846157211101       -3.24958821453326
C           -1.26025606372018       -1.67840079954125       -2.12579133588763
C           -0.71481683872112       -1.18323102986240       -0.97544597674578
P           -1.29482883717611       -0.36758151907148        0.50413082381327
C           -1.60220617144191        1.37922407101375        0.14010806578078
C           -1.71134925519516        1.82724456681540       -1.17969362156490
C           -1.79334481019155        3.17762955678728       -1.44128901500997
C           -1.75382021933163        4.09999352713670       -0.40328725771251
C           -1.63358047591802        3.66024647908949        0.90827453556781
C           -1.54472561560335        2.31285086118887        1.18139394765665
C           -2.95293842591650       -1.08544839691441        0.80191135233124
C           -4.02146949902693       -0.30235879316844        1.23256513395213
C           -5.23396315638101       -0.89862866449298        1.52238606742981
C           -5.38086435465345       -2.27291108628277        1.41452230115276
C           -4.30708551486339       -3.05815002760417        1.01786652773903
C           -3.09157652517031       -2.47075016628335        0.73172654080389
C            1.69670268293599        1.82541277003683       -1.18405947240556
C            1.78415044696654        3.17617423752853       -1.44181261976978
H            1.83732739580332        5.15131460079647       -0.60956066957970
H            1.66641353402174        4.36383336700449        1.72367839890517
H            1.49678902703850        1.94684224553979        2.20016729868708
H            2.22600275395094       -3.08174835934491        0.43194251062910
H            4.39687954138739       -4.15424049645549        0.93810700389590
H            6.31703001665124       -2.77084441667890        1.63677528975394
H            6.07626424118424       -0.32367680593179        1.81755980415452
H            3.91712360366164        0.75014398765353        1.29005879922539
H            2.27562621839164       -1.82435505024775       -2.40023506477736
H           -2.28811022504322       -1.81760737908630       -2.39359225678894
H           -1.73741560057016        1.10714605607666       -1.98580823953359
H           -1.88681373013342        3.52006558293293       -2.46185384108255
H           -1.81431951441579        5.15642217112126       -0.61641100619620
H           -1.60308745063100        4.37706762918278        1.71621373887008
H           -1.44325035108701        1.96063227002162        2.19943323329223
H           -3.90344113828552        0.76976315992182        1.30630960166884
H           -6.06955573056028       -0.28954653278759        1.83589616900878
H           -6.32914596132392       -2.73421208869294        1.64714284630451
H           -4.42132720290199       -4.12952059372927        0.93870871698759
H           -2.24391343034541       -3.07165171002182        0.42984647499602
H            1.70074556006991        1.10871607833567       -1.99358411379628
H            1.85960364151861        3.52215908617377       -2.46264897736475

 projected vibrational frequencies (cm⁻¹)
eigval :       -0.00    -0.00    -0.00    -0.00     0.00     0.00
eigval :       22.67    22.82    25.01    35.60    35.98    42.76
eigval :       43.62    49.33    53.69    59.29    59.72    81.35
eigval :      133.25   150.69   160.59   163.66   182.74   183.93
eigval :      192.17   214.53   223.78   231.60   252.85   294.23
eigval :      349.17   352.11   358.42   358.61   360.91   364.50
eigval :      373.87   405.06   410.45   424.36   428.92   432.74
eigval :      462.05   475.01   478.97   511.09   581.14   581.34
eigval :      582.49   583.05   629.77   635.13   636.15   641.13
eigval :      642.51   648.29   662.59   673.57   687.10   689.06
eigval :      711.91   719.31   728.24   732.27   732.74   789.23
eigval :      789.72   858.45   863.88   865.59   866.39   873.52
eigval :      878.01   891.49   891.70   915.67   916.78   917.14
eigval :      920.02   920.55   921.60   926.87   926.95   941.32
eigval :      962.70   962.98   963.14   964.20  1064.18  1064.71
eigval :     1067.55  1071.74  1072.86  1075.07  1076.16  1082.88
eigval :     1088.50  1089.85  1113.18  1114.22  1114.49  1115.64
eigval :     1176.32  1178.59  1178.69  1179.24  1189.29  1190.01
eigval :     1191.67  1195.32  1266.13  1266.61  1268.81  1269.60
eigval :     1304.81  1321.97  1322.28  1325.14  1326.36  1401.99
eigval :     1414.88  1418.58  1419.09  1419.13  1428.95  1429.70
eigval :     1433.51  1434.86  1440.61  1519.30  1529.16  1552.19
eigval :     1554.35  1556.24  1556.70  1562.54  1572.02  3051.24
eigval :     3054.14  3054.90  3055.47  3063.78  3065.04  3067.18
eigval :     3067.55  3073.10  3074.86  3075.71  3075.84  3076.50
eigval :     3079.29  3080.52  3080.61  3091.83  3092.22  3092.44
eigval :     3095.04  3160.79  3161.38

   temp. (K)  partition function   enthalpy   heat capacity  entropy
                                   cal/mol     cal/K/mol   cal/K/mol   J/K/mol
 298.15  VIB  0.174E+14            16512.306     99.086    103.808
         ROT  0.212E+08              888.752      2.981     36.507
         INT  0.370E+21            17401.059    102.067    140.315
         TR   0.931E+28             1481.254      4.968     44.198
         TOT                       18882.3125   107.0351   184.5129   772.0022

       T/K    H(0)-H(T)+PV         H(T)/Eh          T*S/Eh         G(T)/Eh
   ------------------------------------------------------------------------
    298.15    0.300909E-01    0.425314E+00    0.876681E-01    0.337646E+00
   ------------------------------------------------------------------------

         :::::::::::::::::::::::::::::::::::::::::::::::::::::
         ::                  THERMODYNAMIC                  ::
         :::::::::::::::::::::::::::::::::::::::::::::::::::::
         :: total free energy         -78.960869199251 Eh   ::
         ::.................................................::
         :: total energy              -79.298515051854 Eh   ::
         :: zero point energy           0.395223026219 Eh   ::
         :: G(RRHO) w/o ZPVE           -0.057577173616 Eh   ::
         :: G(RRHO) contrib.            0.337645852603 Eh   ::
         :::::::::::::::::::::::::::::::::::::::::::::::::::::

           -------------------------------------------------
          | TOTAL ENERGY              -79.298515051854 Eh   |
          | TOTAL ENTHALPY            -78.873201145270 Eh   |
          | TOTAL FREE ENERGY         -78.960869199251 Eh   |
          | GRADIENT NORM               0.000065638950 Eh/α |
           -------------------------------------------------

 * finished run on 2025/09/12 at 12:00:22.761
