   * xtb version 6.7.1 (edcfbbe) compiled by 'albert@albert-system' on 2024-07-22

   ID    Z sym.   atoms
    1    6 C      1-4, 6-13, 15, 16, 18-31
    2   15 P      5, 17
    3   16 S      14
    4    1 H      32-53

          program call               : xtb data2507/gas/1G-F1/1G-F1.xyz --gfn 2 --ohess vtight --parallel 40 --molden --ceasefiles --namespace data2507/gas/1G-F1/1G-F1_gas_S0_preOpt
          :  Hamiltonian                  GFN2-xTB          :
 * total energy  :   -79.3741551 Eh     change       -0.1599773E-08 Eh
 * total energy  :   -79.3835858 Eh     change       -0.9430739E-02 Eh
 * total energy  :   -79.3867177 Eh     change       -0.3131859E-02 Eh
 * total energy  :   -79.3886406 Eh     change       -0.1922912E-02 Eh
 * total energy  :   -79.3899389 Eh     change       -0.1298311E-02 Eh
 * total energy  :   -79.3908712 Eh     change       -0.9322902E-03 Eh
 * total energy  :   -79.3915985 Eh     change       -0.7272561E-03 Eh
 * total energy  :   -79.3921300 Eh     change       -0.5315034E-03 Eh
 * total energy  :   -79.3923871 Eh     change       -0.2571282E-03 Eh
 * total energy  :   -79.3924545 Eh     change       -0.6742659E-04 Eh
 * total energy  :   -79.3948954 Eh     change       -0.3409391E-06 Eh
 * total energy  :   -79.3948957 Eh     change       -0.3635655E-06 Eh
 * total energy  :   -79.3948961 Eh     change       -0.4108910E-06 Eh
 * total energy  :   -79.3948966 Eh     change       -0.4869615E-06 Eh
 * total energy  :   -79.3948972 Eh     change       -0.6016513E-06 Eh
 * total energy  :   -79.3948980 Eh     change       -0.7367010E-06 Eh
 * total energy  :   -79.3948988 Eh     change       -0.8346250E-06 Eh
 * total energy  :   -79.3948996 Eh     change       -0.7890149E-06 Eh
 * total energy  :   -79.3948996 Eh     change       -0.2936261E-08 Eh
   *** GEOMETRY OPTIMIZATION CONVERGED AFTER 94 ITERATIONS ***

 final structure:
================
53
 xtb: 6.7.1 (edcfbbe)
C            1.91534121867978        3.85030018543854       -0.21665193050305
C            2.20081050274462        3.36595673200008        1.04960084101253
C            2.05000429962269        2.01998112846931        1.32072849621507
C            1.62774042960701        1.14177296509698        0.32575251017921
P            1.44526512080850       -0.61165926841988        0.82582520262672
C            3.15984160529239       -1.20682251447404        0.54073621190035
C            3.35454907221180       -2.58062944894973        0.66858218661791
C            4.60829665498014       -3.13127369185085        0.48988911387111
C            5.68704259223199       -2.31158420846165        0.19686090064288
C            5.50333636143570       -0.94407352795331        0.08731755836352
C            4.24686056404746       -0.38914319656625        0.26130053941774
C            0.68126630920443       -1.32499533272581       -0.65745061125980
C            1.22681446369843       -1.77856707291890       -1.81522189204676
S            0.02668473407698       -2.40229503299208       -2.88526563605410
C           -1.22822551609373       -2.04199648209534       -1.75426521780038
C           -0.73793716912786       -1.48048677482269       -0.62049261256660
P           -1.52954151971743       -0.92534242483679        0.91901626608260
C           -1.61701891177319        0.86122875427757        0.50938129089114
C           -1.98639252952578        1.31555695708914       -0.75197292827868
C           -2.01173767199519        2.67113979193975       -1.01740397686245
C           -1.66811260232003        3.58109039753487       -0.02997430476330
C           -1.30394945309192        3.13389978428261        1.22791943501117
C           -1.27689064168293        1.77713187879590        1.49659152701720
C           -3.25702513646268       -1.43305248566359        0.57098608734974
C           -4.33000013140653       -0.55017535930563        0.58800217195392
C           -5.61748942490496       -1.01778638917484        0.39027659214453
C           -5.84813138696136       -2.36798033195411        0.18982949311917
C           -4.78585219273760       -3.25817603618821        0.20240180863374
C           -3.50020261634557       -2.79482784940133        0.40349854154575
C            1.34217677298447        1.63348380014525       -0.94049168250194
C            1.48532927008619        2.98355954249910       -1.20646791231426
H            2.02549263553833        4.90330241034596       -0.43064611474328
H            2.53512497490367        4.03991969029967        1.82519094875678
H            2.26087756949028        1.63273887093738        2.30917742956662
H            2.50785149120269       -3.21261334123438        0.90408896192518
H            4.74840266359128       -4.19856125029355        0.58288494630707
H            6.66938785454814       -2.73873206797385        0.05816762902424
H            6.34347983884019       -0.30244787042054       -0.13702145311096
H            4.11386058638195        0.67948111796362        0.17236585698019
H            2.25815688800599       -1.80012220954093       -2.10977276097241
H           -2.24205576757827       -2.28754770276885       -2.00445494036350
H           -2.25465925718901        0.60410944440256       -1.52156817122203
H           -2.29795759472245        3.02146664269788       -1.99887688255990
H           -1.68397165391126        4.63977557669096       -0.24379649843283
H           -1.03525923049066        3.84240793623177        1.99775276462121
H           -0.98733158088913        1.41596007248653        2.47384997906895
H           -4.15848821499565        0.50469209672225        0.75065169905784
H           -6.44532778998387       -0.32319122060663        0.39500364579045
H           -6.85422733816722       -2.72839135776592        0.03301507508493
H           -4.96310028195349       -4.31470324717307        0.06068921164879
H           -2.66833173971910       -3.48682529474399        0.42789258881715
H            1.00542828885356        0.96483986745217       -1.71966364760440
H            1.25979259069936        3.36020734750569       -2.19376633731585

          :  Hamiltonian                  GFN2-xTB          :
         :: gradient norm              0.000037295849 Eh/a0 ::
         :: HOMO-LUMO gap              2.925627027158 eV    ::
         :: SCC energy               -80.824396478526 Eh    ::
         :: -> dispersion             -0.086512712835 Eh    ::
         :: repulsion energy           1.429496882924 Eh    ::

    * Orbital Energies and Occupations

         #    Occupation            Energy/Eh            Energy/eV
      -------------------------------------------------------------
         1        2.0000           -0.7344201             -19.9846
       ...           ...                  ...                  ...
        63        2.0000           -0.4162674             -11.3272
        64        2.0000           -0.4130853             -11.2406
        65        2.0000           -0.4129632             -11.2373
        66        2.0000           -0.4101128             -11.1597
        67        2.0000           -0.4073864             -11.0855
        68        2.0000           -0.4061398             -11.0516
        69        2.0000           -0.4049896             -11.0203
        70        2.0000           -0.4033194             -10.9749
        71        2.0000           -0.4018533             -10.9350
        72        2.0000           -0.3965381             -10.7904
        73        2.0000           -0.3957223             -10.7682
        74        2.0000           -0.3771555             -10.2629
        75        2.0000           -0.3648783              -9.9288 (HOMO)
        76                         -0.2573635              -7.0032 (LUMO)
        77                         -0.2440579              -6.6412
        78                         -0.2367102              -6.4412
        79                         -0.2347336              -6.3874
        80                         -0.2329381              -6.3386
        81                         -0.2299232              -6.2565
        82                         -0.2257749              -6.1436
        83                         -0.2251791              -6.1274
        84                         -0.2234646              -6.0808
        85                         -0.2130213              -5.7966
        86                         -0.2012517              -5.4763
       ...                                ...                  ...
       161                          1.1466595              31.2022
      -------------------------------------------------------------
                  HL-Gap            0.1075148 Eh            2.9256 eV

     #   Z          covCN         q      C6AA      α(0)
     1   6 C        2.921    -0.029    28.724     8.789
     2   6 C        2.918    -0.029    28.734     8.790
     3   6 C        3.028    -0.026    28.623     8.776
     4   6 C        2.918     0.020    27.550     8.607
     5  15 P        3.608    -0.100   164.746    23.057
     6   6 C        2.917     0.016    27.652     8.623
     7   6 C        3.026    -0.027    28.640     8.778
     8   6 C        2.918    -0.029    28.718     8.788
     9   6 C        2.920    -0.029    28.732     8.790
    10   6 C        2.920    -0.029    28.721     8.788
    11   6 C        2.958    -0.029    28.732     8.792
    12   6 C        3.221     0.001    27.262     8.489
    13   6 C        2.962    -0.019    28.475     8.753
    14  16 S        2.307    -0.036   142.559    20.096
    15   6 C        2.959    -0.022    28.544     8.763
    16   6 C        3.206     0.002    27.371     8.521
    17  15 P        3.599    -0.106   165.030    23.077
    18   6 C        2.919     0.022    27.515     8.602
    19   6 C        2.973    -0.024    28.609     8.774
    20   6 C        2.920    -0.029    28.725     8.789
    21   6 C        2.921    -0.027    28.682     8.782
    22   6 C        2.919    -0.028    28.705     8.786
    23   6 C        3.006    -0.025    28.600     8.773
    24   6 C        2.917     0.016    27.654     8.623
    25   6 C        2.967    -0.028    28.697     8.787
    26   6 C        2.919    -0.029    28.719     8.788
    27   6 C        2.920    -0.030    28.737     8.791
    28   6 C        2.918    -0.029    28.734     8.790
    29   6 C        3.013    -0.028    28.678     8.784
    30   6 C        2.962    -0.026    28.640     8.778
    31   6 C        2.920    -0.028    28.706     8.786
    32   1 H        0.926     0.032     2.563     2.503
    33   1 H        0.926     0.033     2.546     2.495
    34   1 H        0.925     0.041     2.434     2.440
    35   1 H        0.925     0.040     2.455     2.450
    36   1 H        0.926     0.033     2.543     2.494
    37   1 H        0.926     0.032     2.560     2.502
    38   1 H        0.926     0.031     2.570     2.507
    39   1 H        0.926     0.034     2.534     2.489
    40   1 H        0.926     0.044     2.394     2.420
    41   1 H        0.926     0.045     2.380     2.413
    42   1 H        0.925     0.035     2.521     2.483
    43   1 H        0.926     0.031     2.567     2.506
    44   1 H        0.926     0.031     2.568     2.506
    45   1 H        0.926     0.032     2.560     2.502
    46   1 H        0.925     0.046     2.371     2.408
    47   1 H        0.926     0.033     2.549     2.497
    48   1 H        0.926     0.030     2.580     2.512
    49   1 H        0.926     0.031     2.573     2.508
    50   1 H        0.926     0.031     2.566     2.505
    51   1 H        0.925     0.037     2.487     2.466
    52   1 H        0.926     0.030     2.579     2.511
    53   1 H        0.926     0.031     2.579     2.511

molecular dipole:
                 x           y           z       tot (Debye)
 q only:        0.076       0.404      -0.161
   full:        0.072       0.650      -0.532       2.143

 projected vibrational frequencies (cm⁻¹)
eigval :       -0.00    -0.00    -0.00    -0.00     0.00     0.00
eigval :        9.71    21.34    24.84    32.19    39.05    42.32
eigval :       51.31    54.45    63.38    70.19    71.22    78.92
eigval :       96.26   166.09   171.02   185.18   192.69   197.49
eigval :      211.18   219.78   236.58   241.87   283.50   324.35
eigval :      360.51   361.81   364.30   367.21   378.56   388.36
eigval :      403.90   416.45   423.51   434.46   441.48   461.04
eigval :      478.21   492.55   493.55   585.47   585.88   585.97
eigval :      586.41   600.65   654.96   655.91   656.70   657.49
eigval :      677.87   683.54   690.64   693.67   694.93   734.63
eigval :      738.86   740.20   742.38   746.49   760.02   838.87
eigval :      842.94   871.88   873.80   875.48   876.82   895.46
eigval :      897.62   899.73   900.47   924.29   926.29   926.66
eigval :      928.21   930.60   931.99   932.43   932.70   945.12
eigval :      968.13   968.75   969.23   969.79  1080.46  1081.73
eigval :     1082.01  1082.45  1092.70  1109.71  1111.21  1113.88
eigval :     1116.14  1116.90  1118.28  1118.79  1119.16  1119.62
eigval :     1180.24  1181.00  1181.33  1182.62  1194.07  1198.01
eigval :     1198.81  1199.99  1273.88  1275.15  1276.93  1277.10
eigval :     1306.14  1316.40  1317.01  1317.95  1318.83  1421.80
eigval :     1422.37  1423.92  1426.05  1448.41  1452.38  1452.70
eigval :     1453.72  1454.12  1509.01  1576.84  1577.58  1579.43
eigval :     1580.61  1586.23  1586.68  1587.87  1588.64  3050.98
eigval :     3052.65  3052.83  3059.66  3064.37  3067.16  3069.56
eigval :     3069.81  3072.37  3073.17  3074.64  3075.69  3078.58
eigval :     3079.17  3081.35  3081.74  3089.14  3089.33  3089.95
eigval :     3090.80  3150.45  3151.35

   temp. (K)  partition function   enthalpy   heat capacity  entropy
                                   cal/mol     cal/K/mol   cal/K/mol   J/K/mol
 298.15  VIB  0.131E+14            16016.404     97.163    101.533
         ROT  0.208E+08              888.752      2.981     36.464
         INT  0.273E+21            16905.156    100.144    137.997
         TR   0.931E+28             1481.254      4.968     44.198
         TOT                       18386.4104   105.1125   182.1945   762.3020

       T/K    H(0)-H(T)+PV         H(T)/Eh          T*S/Eh         G(T)/Eh
   ------------------------------------------------------------------------
    298.15    0.293006E-01    0.428896E+00    0.865665E-01    0.342330E+00
   ------------------------------------------------------------------------

         :::::::::::::::::::::::::::::::::::::::::::::::::::::
         ::                  THERMODYNAMIC                  ::
         :::::::::::::::::::::::::::::::::::::::::::::::::::::
         :: total free energy         -79.052569623937 Eh   ::
         ::.................................................::
         :: total energy              -79.394899595602 Eh   ::
         :: zero point energy           0.399595867151 Eh   ::
         :: G(RRHO) w/o ZPVE           -0.057265895487 Eh   ::
         :: G(RRHO) contrib.            0.342329971664 Eh   ::
         :::::::::::::::::::::::::::::::::::::::::::::::::::::

           -------------------------------------------------
          | TOTAL ENERGY              -79.394899595602 Eh   |
          | TOTAL ENTHALPY            -78.966003118413 Eh   |
          | TOTAL FREE ENERGY         -79.052569623937 Eh   |
          | GRADIENT NORM               0.000037297946 Eh/α |
          | HOMO-LUMO GAP               2.925627194945 eV   |
           -------------------------------------------------

 * finished run on 2025/09/12 at 11:56:31.996
