   * xtb version 6.7.1 (edcfbbe) compiled by 'albert@albert-system' on 2024-07-22

   ID    Z sym.   atoms
    1    6 C      1-4, 6-13, 15, 16, 18-31
    2   15 P      5, 17
    3   16 S      14
    4    1 H      32-53

          program call               : xtb data2507/gas/1G-F1/1G-F1_gas_S0_finalOpt.xtbopt.xyz --gfn 2 --spinpol --tblite --uhf 2 --ohess vtight --parallel 40 --molden --ceasefiles --namespace data2507/gas/1G-F1/1G-F1_gas_T1_preOpt
 * total energy  :   -79.2803934 Eh     change       -0.1745131E-07 Eh
 * total energy  :   -79.2886498 Eh     change       -0.8256448E-02 Eh
 * total energy  :   -79.2906725 Eh     change       -0.2022669E-02 Eh
 * total energy  :   -79.2912507 Eh     change       -0.5781884E-03 Eh
 * total energy  :   -79.2923915 Eh     change       -0.1140810E-02 Eh
 * total energy  :   -79.2930912 Eh     change       -0.6997597E-03 Eh
 * total energy  :   -79.2935280 Eh     change       -0.4367560E-03 Eh
 * total energy  :   -79.2939582 Eh     change       -0.4302586E-03 Eh
 * total energy  :   -79.2943525 Eh     change       -0.3942119E-03 Eh
 * total energy  :   -79.2948119 Eh     change       -0.4594510E-03 Eh
 * total energy  :   -79.2985090 Eh     change       -0.9464041E-06 Eh
 * total energy  :   -79.2985104 Eh     change       -0.1441684E-05 Eh
 * total energy  :   -79.2985118 Eh     change       -0.1388378E-05 Eh
 * total energy  :   -79.2985127 Eh     change       -0.8534723E-06 Eh
 * total energy  :   -79.2985132 Eh     change       -0.5390035E-06 Eh
 * total energy  :   -79.2985136 Eh     change       -0.4273507E-06 Eh
 * total energy  :   -79.2985140 Eh     change       -0.3567564E-06 Eh
 * total energy  :   -79.2985143 Eh     change       -0.3287607E-06 Eh
 * total energy  :   -79.2985144 Eh     change       -0.6070466E-07 Eh
   *** GEOMETRY OPTIMIZATION CONVERGED AFTER 55 ITERATIONS ***

 final structure:
================
53
 xtb: 6.7.1 (edcfbbe)
C            2.14726760436715        3.89541872008803       -0.80230655342466
C            2.06351867154620        3.51904896045242        0.53159161291290
C            1.85035352471654        2.19985062577382        0.86661084883899
C            1.74420678273309        1.22815211799924       -0.13548046487879
P            1.27546494419336       -0.45946643738650        0.32293644809904
C            2.86116033965993       -1.33465575062449        0.59299553356449
C            2.84702278619816       -2.72860707301310        0.59643092153010
C            4.00427160417466       -3.43007634455151        0.86651855851208
C            5.17324291825729       -2.74760943513750        1.17416345846071
C            5.17981000300575       -1.36172789131995        1.20896375606564
C            4.02629738951308       -0.65187999269985        0.93463625760499
C            0.55101121371505       -1.27427858333501       -1.09176258055726
C            0.99207133619351       -1.87462482150604       -2.23664596115098
S           -0.35092199336003       -2.27453530924945       -3.28430496675027
C           -1.50252121415599       -1.62197375730507       -2.14006958542696
C           -0.86392531149902       -1.13085646085998       -1.03695602781088
P           -1.29982595412935       -0.19812394001960        0.42264486779025
C           -1.44901797449481        1.55323948788491       -0.01130587861216
C           -1.56323486363115        1.95376342896292       -1.34589467358631
C           -1.52024134706960        3.29320354704999       -1.66629111163243
C           -1.34924776171921        4.24994502911672       -0.67368681137792
C           -1.22381134722476        3.85623005995081        0.65195278539359
C           -1.25938595398132        2.51958043387553        0.98352073788204
C           -3.00617371795683       -0.73509338242054        0.81468339940285
C           -3.97702380293084        0.16774184137892        1.24185912972113
C           -5.22889560727980       -0.29335490868441        1.60245905813511
C           -5.51082261385208       -1.65024780295816        1.56852454878951
C           -4.53347370764049       -2.55414271036999        1.17523930175529
C           -3.27937477782960       -2.10202237783927        0.81864617383419
C            1.81699809044185        1.61383207874157       -1.47722840134409
C            2.02457109570395        2.93710410080842       -1.80054713025640
H            2.30500665990351        4.93081805732361       -1.06346169756584
H            2.15903285932379        4.26382511382073        1.30861422437355
H            1.77580017833086        1.89776317683273        1.90297728748845
H            1.92658377402746       -3.24763222801241        0.36354516397940
H            3.99904868891861       -4.51019273492413        0.84395809363420
H            6.07629296986740       -3.29723418465331        1.39450266067287
H            6.08963465623086       -0.83241101837208        1.45292048665915
H            4.02788946040496        0.42905225700205        0.95135923458772
H            1.98781736924101       -2.13031361372796       -2.53778645745951
H           -2.54932676139348       -1.67051406484732       -2.36237161952389
H           -1.69146307526349        1.20647178711888       -2.11672118197137
H           -1.61780926264360        3.59992208996456       -2.69776106130480
H           -1.31181638150405        5.29707108707716       -0.93299797789229
H           -1.09115564469234        4.59985067145796        1.42459116697029
H           -1.15466819537088        2.20218557448688        2.01263649594525
H           -3.75403625629029        1.22549706584773        1.25762880323636
H           -5.98962063326684        0.40829104375694        1.91307687356869
H           -6.48931937600093       -2.00549515799100        1.85573083202806
H           -4.75271045514253       -3.61180283753969        1.15403684806213
H           -2.50529458874563       -2.79607249796468        0.51885014223129
H            1.71637395301673        0.86658269202385       -2.25216449758733
H            2.08959471374156        3.23035603137559       -2.83847352392078

 projected vibrational frequencies (cm⁻¹)
eigval :       -0.00    -0.00     0.00     0.00     0.00     0.00
eigval :       22.49    22.81    24.99    35.65    35.93    42.78
eigval :       44.10    49.58    53.56    59.56    59.65    81.13
eigval :      132.85   150.46   160.43   163.73   182.63   183.78
eigval :      192.32   214.49   223.69   231.70   252.70   294.19
eigval :      348.90   352.03   358.42   358.56   360.91   364.34
eigval :      373.89   405.04   410.75   424.47   429.09   432.96
eigval :      461.79   475.01   479.05   511.02   581.14   581.36
eigval :      582.49   583.03   629.66   634.98   635.92   641.33
eigval :      642.49   648.26   662.69   673.44   687.22   689.18
eigval :      711.95   719.65   728.22   732.01   732.73   789.18
eigval :      789.53   858.38   863.83   865.60   866.32   873.37
eigval :      877.82   891.47   891.75   915.60   916.71   917.10
eigval :      919.97   920.54   921.52   926.89   927.01   941.41
eigval :      962.69   963.02   963.12   964.45  1064.26  1064.50
eigval :     1068.01  1071.72  1072.77  1074.98  1076.07  1082.93
eigval :     1089.03  1089.79  1113.12  1114.15  1114.41  1115.54
eigval :     1176.36  1178.67  1178.78  1179.29  1189.31  1190.04
eigval :     1191.71  1195.49  1266.19  1266.69  1268.90  1269.71
eigval :     1304.69  1321.99  1322.31  1325.16  1326.39  1402.42
eigval :     1414.96  1418.90  1419.17  1419.25  1428.36  1429.91
eigval :     1433.64  1434.92  1441.29  1519.08  1528.99  1551.99
eigval :     1554.47  1556.32  1556.84  1562.69  1571.72  3051.11
eigval :     3053.88  3054.91  3055.43  3063.80  3064.82  3067.09
eigval :     3067.67  3073.13  3074.89  3075.77  3075.90  3076.66
eigval :     3079.42  3080.59  3080.72  3091.99  3092.38  3092.41
eigval :     3094.88  3160.70  3161.30

   temp. (K)  partition function   enthalpy   heat capacity  entropy
                                   cal/mol     cal/K/mol   cal/K/mol   J/K/mol
 298.15  VIB  0.174E+14            16512.984     99.101    103.829
         ROT  0.212E+08              888.752      2.981     36.507
         INT  0.369E+21            17401.737    102.081    140.336
         TR   0.931E+28             1481.254      4.968     44.198
         TOT                       18882.9908   107.0496   184.5334   772.0876

       T/K    H(0)-H(T)+PV         H(T)/Eh          T*S/Eh         G(T)/Eh
   ------------------------------------------------------------------------
    298.15    0.300920E-01    0.425317E+00    0.876778E-01    0.337639E+00
   ------------------------------------------------------------------------

         :::::::::::::::::::::::::::::::::::::::::::::::::::::
         ::                  THERMODYNAMIC                  ::
         :::::::::::::::::::::::::::::::::::::::::::::::::::::
         :: total free energy         -78.960875167107 Eh   ::
         ::.................................................::
         :: total energy              -79.298514383224 Eh   ::
         :: zero point energy           0.395225006031 Eh   ::
         :: G(RRHO) w/o ZPVE           -0.057585789915 Eh   ::
         :: G(RRHO) contrib.            0.337639216117 Eh   ::
         :::::::::::::::::::::::::::::::::::::::::::::::::::::

           -------------------------------------------------
          | TOTAL ENERGY              -79.298514383224 Eh   |
          | TOTAL ENTHALPY            -78.873197415980 Eh   |
          | TOTAL FREE ENERGY         -78.960875167107 Eh   |
          | GRADIENT NORM               0.000169821858 Eh/α |
           -------------------------------------------------

 * finished run on 2025/09/12 at 11:58:20.829
