   * xtb version 6.7.1 (edcfbbe) compiled by 'albert@albert-system' on 2024-07-22

   ID    Z sym.   atoms
    1    6 C      1-4, 6-13, 15, 16, 18-31
    2   15 P      5, 17
    3   16 S      14
    4    1 H      32-53

          program call               : xtb data2507/gas/1G-F1/1G-F1_gas_S0_crest.xyz --gfn 2 --ohess vtight --parallel 40 --molden --ceasefiles --namespace data2507/gas/1G-F1/1G-F1_gas_S0_finalOpt
          :  Hamiltonian                  GFN2-xTB          :
 * total energy  :   -79.3948977 Eh     change       -0.8788845E-09 Eh
 * total energy  :   -79.3948983 Eh     change       -0.6482470E-06 Eh
 * total energy  :   -79.3948991 Eh     change       -0.7318707E-06 Eh
 * total energy  :   -79.3949002 Eh     change       -0.1129068E-05 Eh
 * total energy  :   -79.3949012 Eh     change       -0.9823791E-06 Eh
 * total energy  :   -79.3949013 Eh     change       -0.1692655E-06 Eh
 * total energy  :   -79.3949019 Eh     change       -0.5286247E-06 Eh
 * total energy  :   -79.3949023 Eh     change       -0.4808607E-06 Eh
 * total energy  :   -79.3949031 Eh     change       -0.7302181E-06 Eh
 * total energy  :   -79.3949037 Eh     change       -0.6383583E-06 Eh
 * total energy  :   -79.3949044 Eh     change       -0.7329326E-06 Eh
 * total energy  :   -79.3949050 Eh     change       -0.5817656E-06 Eh
 * total energy  :   -79.3949053 Eh     change       -0.2817858E-06 Eh
 * total energy  :   -79.3949053 Eh     change       -0.2450486E-07 Eh
   *** GEOMETRY OPTIMIZATION CONVERGED AFTER 14 ITERATIONS ***

 final structure:
================
53
 xtb: 6.7.1 (edcfbbe)
C            2.35741299872874        3.84199735861002       -0.86558170292602
C            2.61007482182506        3.54059445554988        0.46299231281004
C            2.31366987136148        2.28294118448331        0.95086577004990
C            1.77653958363873        1.30827375956331        0.11329378639536
P            1.40243240903235       -0.30573003563672        0.89616412785997
C            3.03998578118738       -1.12492865507527        0.74824743684945
C            3.07924087044435       -2.46828729091055        1.11611994423046
C            4.26257809510575       -3.17770093029604        1.05707782835038
C            5.42557160688890       -2.54695289500066        0.64367766458556
C            5.39630170175945       -1.20795971709667        0.29403795130141
C            4.21085379165041       -0.49474019240661        0.34788891948557
C            0.56652224776962       -1.17448353133460       -0.46000232615490
C            1.06143778955762       -1.83733797560837       -1.53676583319727
S           -0.19638664046781       -2.51556573356586       -2.50213618741735
C           -1.40601240168567       -1.89304106081809       -1.43727288814258
C           -0.85994401182753       -1.20963298861820       -0.40018986183418
P           -1.58239344038440       -0.37984078500309        1.04718268885528
C           -1.47431589328278        1.33723371234642        0.41032302565706
C           -1.80055594688712        1.66365224013094       -0.90154946164416
C           -1.67428954296790        2.96766189595369       -1.34001795214748
C           -1.22140615947877        3.95260490358084       -0.47628909653048
C           -0.89939027376884        3.63325521277928        0.83101757999436
C           -1.02377934771133        2.32822904969466        1.27288287197656
C           -3.35584430275546       -0.74024970374159        0.75051850327869
C           -4.32661225310541        0.24683756579064        0.63087885116496
C           -5.65770009681015       -0.10227230226735        0.48372095222259
C           -6.03407364412976       -1.43442343510481        0.46999358598778
C           -5.07473728465173       -2.42346268180217        0.61980762971413
C           -3.74594482185380       -2.07781365571465        0.77110566432175
C            1.52326092257725        1.61742748668876       -1.21584904271533
C            1.81340574573883        2.88081615752673       -1.69964947721444
H            2.58230347487606        4.82634909114036       -1.24928166067214
H            3.03286634436588        4.28905552060431        1.11764420552096
H            2.49803976194600        2.04033539231338        1.98945447951527
H            2.16740725667473       -2.95104982264691        1.44370865360411
H            4.28189369602570       -4.22118569570167        1.33659323282141
H            6.35332276599180       -3.09818417526198        0.59781885641164
H            6.30251809999103       -0.71333350546660       -0.02528055164080
H            4.19824077646829        0.54980933018619        0.07162531820201
H            2.08458026941179       -1.98426548654962       -1.82410400917323
H           -2.43882790969239       -2.09043255819033       -1.64929008945424
H           -2.15414992370031        0.89350806440918       -1.57416333819537
H           -1.92662224410556        3.21857539573626       -2.36044108803431
H           -1.11844407206311        4.96956323697319       -0.82548167555239
H           -0.54545777430666        4.40017047905500        1.50437894409469
H           -0.76852547793654        2.06534539943109        2.29031605803775
H           -4.04139985505634        1.28942468921367        0.64788772261511
H           -6.40537230101593        0.67125831089802        0.38148820151297
H           -7.07379515337604       -1.70239700042920        0.35216612005814
H           -5.36594939972436       -3.46410716456256        0.62436242781922
H           -2.99404891505126       -2.84513250763406        0.90300132724432
H            1.09746230876371        0.87458769134385       -1.87492704816895
H            1.61320377101507        3.11486514414062       -2.73534970723063

          :  Hamiltonian                  GFN2-xTB          :
         :: gradient norm              0.000186778248 Eh/a0 ::
         :: HOMO-LUMO gap              2.929374986513 eV    ::
         :: SCC energy               -80.824442052042 Eh    ::
         :: -> dispersion             -0.086507263893 Eh    ::
         :: repulsion energy           1.429536716389 Eh    ::

    * Orbital Energies and Occupations

         #    Occupation            Energy/Eh            Energy/eV
      -------------------------------------------------------------
         1        2.0000           -0.7343843             -19.9836
       ...           ...                  ...                  ...
        63        2.0000           -0.4161082             -11.3229
        64        2.0000           -0.4133492             -11.2478
        65        2.0000           -0.4128554             -11.2344
        66        2.0000           -0.4099710             -11.1559
        67        2.0000           -0.4074627             -11.0876
        68        2.0000           -0.4060254             -11.0485
        69        2.0000           -0.4047573             -11.0140
        70        2.0000           -0.4035341             -10.9807
        71        2.0000           -0.4019052             -10.9364
        72        2.0000           -0.3961954             -10.7810
        73        2.0000           -0.3956994             -10.7675
        74        2.0000           -0.3771013             -10.2614
        75        2.0000           -0.3649067              -9.9296 (HOMO)
        76                         -0.2572541              -7.0002 (LUMO)
        77                         -0.2440717              -6.6415
        78                         -0.2368055              -6.4438
        79                         -0.2349197              -6.3925
        80                         -0.2326330              -6.3303
        81                         -0.2298090              -6.2534
        82                         -0.2258441              -6.1455
        83                         -0.2251128              -6.1256
        84                         -0.2234148              -6.0794
        85                         -0.2129200              -5.7938
        86                         -0.2015979              -5.4858
       ...                                ...                  ...
       161                          1.1308201              30.7712
      -------------------------------------------------------------
                  HL-Gap            0.1076525 Eh            2.9294 eV

     #   Z          covCN         q      C6AA      α(0)
     1   6 C        2.920    -0.029    28.726     8.789
     2   6 C        2.918    -0.029    28.735     8.790
     3   6 C        3.028    -0.026    28.622     8.775
     4   6 C        2.918     0.020    27.557     8.608
     5  15 P        3.613    -0.100   164.761    23.058
     6   6 C        2.917     0.016    27.648     8.622
     7   6 C        3.027    -0.027    28.635     8.778
     8   6 C        2.918    -0.029    28.716     8.788
     9   6 C        2.920    -0.029    28.731     8.790
    10   6 C        2.920    -0.029    28.721     8.788
    11   6 C        2.958    -0.029    28.734     8.792
    12   6 C        3.223     0.001    27.241     8.483
    13   6 C        2.962    -0.019    28.469     8.752
    14  16 S        2.307    -0.037   142.564    20.096
    15   6 C        2.959    -0.022    28.551     8.764
    16   6 C        3.205     0.002    27.370     8.521
    17  15 P        3.606    -0.108   165.128    23.083
    18   6 C        2.919     0.023    27.500     8.600
    19   6 C        2.973    -0.024    28.604     8.773
    20   6 C        2.920    -0.029    28.724     8.789
    21   6 C        2.921    -0.027    28.681     8.782
    22   6 C        2.919    -0.028    28.704     8.786
    23   6 C        3.006    -0.024    28.595     8.772
    24   6 C        2.917     0.016    27.648     8.623
    25   6 C        2.967    -0.028    28.695     8.787
    26   6 C        2.919    -0.029    28.719     8.788
    27   6 C        2.920    -0.029    28.737     8.791
    28   6 C        2.918    -0.029    28.735     8.790
    29   6 C        3.013    -0.028    28.679     8.785
    30   6 C        2.962    -0.026    28.644     8.779
    31   6 C        2.920    -0.028    28.708     8.786
    32   1 H        0.926     0.032     2.562     2.503
    33   1 H        0.926     0.033     2.547     2.496
    34   1 H        0.925     0.041     2.438     2.442
    35   1 H        0.925     0.040     2.450     2.448
    36   1 H        0.926     0.033     2.542     2.493
    37   1 H        0.926     0.032     2.559     2.501
    38   1 H        0.926     0.031     2.569     2.506
    39   1 H        0.926     0.034     2.533     2.489
    40   1 H        0.926     0.044     2.393     2.419
    41   1 H        0.926     0.045     2.378     2.411
    42   1 H        0.925     0.034     2.524     2.484
    43   1 H        0.926     0.031     2.570     2.507
    44   1 H        0.926     0.031     2.571     2.507
    45   1 H        0.926     0.032     2.559     2.502
    46   1 H        0.925     0.047     2.360     2.402
    47   1 H        0.926     0.033     2.549     2.496
    48   1 H        0.926     0.030     2.581     2.512
    49   1 H        0.926     0.031     2.574     2.509
    50   1 H        0.926     0.031     2.567     2.506
    51   1 H        0.925     0.037     2.487     2.466
    52   1 H        0.926     0.031     2.577     2.511
    53   1 H        0.926     0.031     2.577     2.510

molecular dipole:
                 x           y           z       tot (Debye)
 q only:        0.130       0.363      -0.212
   full:        0.148       0.550      -0.613       2.127

 projected vibrational frequencies (cm⁻¹)
eigval :       -0.00    -0.00    -0.00     0.00     0.00     0.00
eigval :       12.73    19.89    23.73    32.16    39.49    41.89
eigval :       51.15    54.22    62.90    69.29    71.32    79.94
eigval :       96.56   165.71   171.08   185.28   192.32   197.38
eigval :      211.37   218.89   236.94   241.76   283.00   324.28
eigval :      360.30   361.57   364.20   367.12   378.47   388.31
eigval :      403.88   416.29   423.41   434.99   441.03   461.90
eigval :      478.21   492.16   493.66   585.48   585.86   585.96
eigval :      586.42   600.57   654.92   655.93   656.70   657.44
eigval :      677.85   683.62   690.71   693.90   695.19   734.65
eigval :      738.74   740.12   742.17   746.78   759.80   838.41
eigval :      842.75   871.74   873.77   875.57   877.09   895.41
eigval :      897.63   899.80   900.44   924.17   926.23   926.67
eigval :      928.37   930.56   931.96   932.41   932.79   944.96
eigval :      968.13   968.77   969.27   969.85  1080.39  1081.70
eigval :     1082.00  1082.50  1092.46  1109.50  1111.22  1113.94
eigval :     1116.00  1116.82  1118.43  1118.75  1119.14  1119.61
eigval :     1180.18  1180.99  1181.34  1182.67  1193.95  1198.02
eigval :     1198.77  1199.98  1273.77  1275.08  1276.91  1277.09
eigval :     1306.10  1316.44  1316.98  1318.03  1318.96  1421.77
eigval :     1422.30  1423.85  1426.10  1448.85  1452.29  1452.74
eigval :     1453.73  1454.18  1509.28  1576.82  1577.55  1579.39
eigval :     1580.61  1586.22  1586.73  1587.94  1588.67  3050.74
eigval :     3052.30  3052.47  3058.87  3063.80  3067.10  3069.60
eigval :     3069.83  3072.44  3073.10  3074.75  3075.74  3078.49
eigval :     3079.19  3081.48  3081.76  3089.16  3089.31  3089.99
eigval :     3090.80  3150.49  3151.48

   temp. (K)  partition function   enthalpy   heat capacity  entropy
                                   cal/mol     cal/K/mol   cal/K/mol   J/K/mol
 298.15  VIB  0.114E+14            16018.197     97.139    101.370
         ROT  0.207E+08              888.752      2.981     36.462
         INT  0.237E+21            16906.950    100.120    137.831
         TR   0.931E+28             1481.254      4.968     44.198
         TOT                       18388.2036   105.0881   182.0292   761.6100

       T/K    H(0)-H(T)+PV         H(T)/Eh          T*S/Eh         G(T)/Eh
   ------------------------------------------------------------------------
    298.15    0.293035E-01    0.428890E+00    0.864879E-01    0.342402E+00
   ------------------------------------------------------------------------

         :::::::::::::::::::::::::::::::::::::::::::::::::::::
         ::                  THERMODYNAMIC                  ::
         :::::::::::::::::::::::::::::::::::::::::::::::::::::
         :: total free energy         -79.052503689212 Eh   ::
         ::.................................................::
         :: total energy              -79.394905335652 Eh   ::
         :: zero point energy           0.399586104931 Eh   ::
         :: G(RRHO) w/o ZPVE           -0.057184458492 Eh   ::
         :: G(RRHO) contrib.            0.342401646440 Eh   ::
         :::::::::::::::::::::::::::::::::::::::::::::::::::::

           -------------------------------------------------
          | TOTAL ENERGY              -79.394905335652 Eh   |
          | TOTAL ENTHALPY            -78.966015763042 Eh   |
          | TOTAL FREE ENERGY         -79.052503689212 Eh   |
          | GRADIENT NORM               0.000186871729 Eh/α |
          | HOMO-LUMO GAP               2.929374551410 eV   |
           -------------------------------------------------

 * finished run on 2025/09/12 at 11:58:14.663
