   * xtb version 6.7.1 (edcfbbe) compiled by 'albert@albert-system' on 2024-07-22

   ID    Z sym.   atoms
    1    8 O      1, 26, 45
    2    6 C      2-12, 14-18, 20-25, 27-37, 39-44, 46-55, 57, 58
    3    7 N      13, 19, 38, 56
    4    1 H      59-88

          program call               : xtb data2507/gas/DPXZ-DPPM/DPXZ-DPPM_gas_S0_finalOpt.xtbopt.xyz --gfn 2 --spinpol --tblite --uhf 2 --ohess vtight --parallel 40 --molden --ceasefiles --namespace data2507/gas/DPXZ-DPPM/DPXZ-DPPM_gas_T1_preOpt
 * total energy  :  -148.4345400 Eh     change        0.4926932E-08 Eh
 * total energy  :  -148.4372675 Eh     change       -0.2727463E-02 Eh
 * total energy  :  -148.4381498 Eh     change       -0.8823735E-03 Eh
 * total energy  :  -148.4382666 Eh     change       -0.1167248E-03 Eh
 * total energy  :  -148.4383246 Eh     change       -0.5803219E-04 Eh
 * total energy  :  -148.4383372 Eh     change       -0.1256994E-04 Eh
 * total energy  :  -148.4383632 Eh     change       -0.2604702E-04 Eh
 * total energy  :  -148.4383773 Eh     change       -0.1408674E-04 Eh
 * total energy  :  -148.4383995 Eh     change       -0.2222989E-04 Eh
 * total energy  :  -148.4384097 Eh     change       -0.1014100E-04 Eh
 * total energy  :  -148.4385966 Eh     change       -0.2158978E-05 Eh
 * total energy  :  -148.4385985 Eh     change       -0.1933980E-05 Eh
 * total energy  :  -148.4386007 Eh     change       -0.2183338E-05 Eh
 * total energy  :  -148.4386026 Eh     change       -0.1914182E-05 Eh
 * total energy  :  -148.4386044 Eh     change       -0.1718451E-05 Eh
 * total energy  :  -148.4386048 Eh     change       -0.4506775E-06 Eh
 * total energy  :  -148.4386068 Eh     change       -0.1950811E-05 Eh
 * total energy  :  -148.4386075 Eh     change       -0.7270097E-06 Eh
 * total energy  :  -148.4386075 Eh     change       -0.4357597E-07 Eh
   *** GEOMETRY OPTIMIZATION CONVERGED AFTER 47 ITERATIONS ***

 final structure:
================
88
 xtb: 6.7.1 (edcfbbe)
O            8.83526367660896       -2.70492601923693        0.46059394318182
C            8.06511231761514       -1.85004274697192        0.05647756096140
C            8.56935920960871       -0.54482256325007       -0.45062394422072
C            8.01705488418536        0.07117272397353       -1.57099551018422
C            8.54407800661944        1.26181141738227       -2.03710875399814
C            9.61806318678661        1.85075410987714       -1.38927659821162
C           10.18063429298859        1.23583382600280       -0.28243743733334
C            9.66695649188318        0.03812970577939        0.17751045776690
C            6.60567450421496       -2.06150750531799        0.04467434473239
C            6.12824370404694       -3.37857332594246        0.04474320141185
C            4.78123902390248       -3.64596317756402        0.03698407938129
C            3.84388649336321       -2.60617062808415        0.05668706287589
N            2.53562096800751       -2.82766981975077        0.04599708616877
C            1.65729811255282       -1.82901846123355        0.08499093529844
C            0.25467449301855       -2.08737413106735        0.07631386041334
C           -0.20024142429937       -3.41490508118362       -0.01191864529952
C           -1.53639082610732       -3.70358383586511       -0.05621260896120
C           -2.46983769159274       -2.65815869801004        0.01396693685353
N           -3.85376632529404       -2.94197837085161       -0.04852041627094
C           -4.63096734607524       -2.45761166167715       -1.09953124065279
C           -4.09913673238694       -1.69245279115538       -2.13240780544494
C           -4.90651041334604       -1.22072919478547       -3.15435380217569
C           -6.25661918039640       -1.51293424656732       -3.17210690926558
C           -6.79797874658645       -2.30093050076001       -2.16853452205611
C           -5.99705364249486       -2.77589442041422       -1.14550176433377
O           -6.59746278004974       -3.57300384175000       -0.20654727800359
C           -5.82118592089084       -4.03605881695455        0.82360953875056
C           -6.44321869858442       -4.82139215169574        1.77721254950903
C           -5.72667014233244       -5.29933127649593        2.86342523872489
C           -4.39160263593932       -4.96991378648526        2.99854153151667
C           -3.76236817508671       -4.18525549171567        2.04601746520855
C           -4.45747213880400       -3.72559599483710        0.93253860938162
C           -2.04229540448595       -1.35175774697766        0.12695571355408
C           -0.68068336901701       -1.02626041811802        0.14271221232880
C           -0.20528115041605        0.33447347086262        0.19850181852089
C           -1.06930426643324        1.43551061561340        0.25249903030407
C           -0.59034065919523        2.72885820295025        0.24396118516547
N           -1.49618837786326        3.81411459038505        0.25390958028692
C           -2.39939368696711        3.99618217233437       -0.79274688069271
C           -2.45378472397273        3.14435195231543       -1.89107241480654
C           -3.37278376660354        3.35304641479491       -2.90639930646067
C           -4.24615981216624        4.42190261088883       -2.85175944108043
C           -4.18423169565714        5.30009303107111       -1.78117514915373
C           -3.26840258613051        5.09768866736681       -0.76436742239986
O           -3.24655463042225        6.02511164035166        0.24419219812252
C           -2.36083522899256        5.82599733447474        1.27095258767161
C           -2.36703101755133        6.75389364902411        2.29661087240009
C           -1.51984291388664        6.59939098610470        3.38295755630305
C           -0.68328431612481        5.50156768218854        3.44490362175799
C           -0.67104377684422        4.56971005058690        2.41990169562388
C           -1.48925641034059        4.72752685681834        1.30649794193247
C            0.79094038396009        2.97047384967582        0.21065305160888
C            1.65714850880278        1.91108468346236        0.19097646254460
C            1.18644984012593        0.58799629558336        0.17655978061765
C            2.12881815372266       -0.48749625354174        0.13029562726947
N            3.43045210876307       -0.24923825890805        0.12269169542351
C            4.32655383046136       -1.24315860139179        0.09001554143262
C            5.69506260367764       -1.00580407878410        0.07939505440123
H            7.19162367400571       -0.39505016587240       -2.08925998588094
H            8.11642462152463        1.73246618737876       -2.91054086032567
H           10.02170606217812        2.78444413208264       -1.75303303798670
H           11.02440639655708        1.68849343722843        0.21744653285262
H           10.10077055049238       -0.46051413370498        1.03156239439912
H            6.85058792306940       -4.18090035775108        0.03930893482724
H            4.41206060540115       -4.65961323814049        0.02028925256218
H            0.54093281888768       -4.19725845248801       -0.06363615488176
H           -1.88371055855471       -4.72119350220817       -0.15221741567872
H           -3.04360778828853       -1.47190868937425       -2.14260471966094
H           -4.46742609618250       -0.62480016051822       -3.93937290835935
H           -6.88873251656007       -1.14341717040585       -3.96374179008823
H           -7.84318217810040       -2.56537243563189       -2.16237256794306
H           -7.49089067485744       -5.04312603260830        1.65211666854673
H           -6.21771999298457       -5.91455607227958        3.60044839652157
H           -3.82770559526058       -5.31891902053212        3.84960804095167
H           -2.72388142390009       -3.92207161201492        2.17008813370220
H           -2.79220554151057       -0.57927259634500        0.19371231021755
H           -2.13755547502465        1.29281896988597        0.29575246076684
H           -1.76568164448590        2.31673908772450       -1.95789429618105
H           -3.39619232563475        2.67211801855784       -3.74302798576363
H           -4.96596863451020        4.58453637595305       -3.63802538608540
H           -4.83641083130188        6.15620808038798       -1.71674386282053
H           -3.04657106350027        7.58801367302144        2.22664950001301
H           -1.52743188352477        7.32948034710009        4.17652230834755
H           -0.03360084560570        5.35864043037366        4.29437491269500
H           -0.02475037073769        3.70893994817452        2.48703274650991
H            1.15355883992034        3.98709729894732        0.19479597105752
H            2.72489170991597        2.06505415470858        0.16799059297905
H            6.03210513419403        0.01805475143302        0.12932741197284

 projected vibrational frequencies (cm⁻¹)
eigval :       -0.00    -0.00    -0.00    -0.00     0.00     0.00
eigval :        8.40    10.46    12.21    16.68    17.28    23.29
eigval :       30.51    32.74    41.17    43.93    48.60    54.29
eigval :       70.71    75.61    92.75    97.75   108.27   110.58
eigval :      120.82   122.37   137.23   145.56   154.85   172.23
eigval :      182.89   204.98   223.04   226.32   244.07   246.35
eigval :      249.33   252.18   264.83   267.53   274.22   288.51
eigval :      290.88   317.60   330.43   343.37   353.46   364.86
eigval :      368.74   371.84   388.95   389.77   394.87   404.98
eigval :      417.72   418.79   420.34   430.25   430.90   438.31
eigval :      438.97   441.20   449.70   457.50   476.81   486.54
eigval :      501.66   506.68   506.93   515.44   518.90   526.07
eigval :      526.62   540.74   556.85   567.82   575.92   577.98
eigval :      580.11   586.54   590.91   598.01   618.60   620.84
eigval :      625.11   631.77   639.96   652.00   661.96   662.37
eigval :      664.42   664.58   665.40   670.66   683.82   685.08
eigval :      695.91   705.00   708.30   720.67   723.03   764.99
eigval :      773.04   776.69   778.86   779.05   779.28   801.65
eigval :      811.67   817.64   826.81   828.68   831.31   838.86
eigval :      855.81   856.10   859.27   863.56   867.38   867.60
eigval :      868.33   873.24   880.69   884.88   897.58   898.83
eigval :      899.32   900.01   901.25   901.75   909.67   914.50
eigval :      915.45   915.57   916.85   916.94   917.71   922.50
eigval :      923.20   930.99   934.16   957.21   967.89  1000.47
eigval :     1008.36  1041.48  1064.63  1081.13  1088.94  1089.18
eigval :     1090.15  1090.79  1110.41  1110.74  1119.18  1119.51
eigval :     1124.83  1132.96  1141.19  1147.01  1158.98  1168.92
eigval :     1170.51  1174.54  1175.80  1181.62  1183.85  1186.81
eigval :     1192.00  1203.99  1205.01  1207.28  1208.15  1219.16
eigval :     1228.13  1230.79  1239.67  1242.29  1242.75  1252.99
eigval :     1258.46  1259.03  1262.96  1277.68  1280.17  1284.95
eigval :     1293.84  1306.90  1309.80  1311.80  1313.31  1320.13
eigval :     1326.12  1332.96  1333.55  1339.51  1345.35  1349.47
eigval :     1353.15  1369.41  1401.58  1406.81  1418.80  1421.20
eigval :     1422.95  1424.56  1429.87  1442.62  1443.89  1460.43
eigval :     1463.96  1470.24  1470.82  1472.92  1479.52  1485.24
eigval :     1492.46  1513.26  1513.65  1534.74  1540.73  1563.91
eigval :     1564.28  1570.69  1573.91  1574.45  1580.70  1580.77
eigval :     1583.45  1585.64  1591.98  1595.31  1597.05  1663.50
eigval :     3071.79  3076.43  3083.02  3089.30  3089.54  3089.89
eigval :     3090.28  3091.51  3092.33  3092.82  3092.88  3093.58
eigval :     3095.02  3096.15  3100.20  3101.85  3101.99  3102.04
eigval :     3102.18  3103.14  3103.79  3107.22  3108.66  3109.06
eigval :     3109.13  3109.74  3114.71  3114.76  3115.00  3115.29

   temp. (K)  partition function   enthalpy   heat capacity  entropy
                                   cal/mol     cal/K/mol   cal/K/mol   J/K/mol
 298.15  VIB  0.108E+22            26155.089    165.501    162.350
         ROT  0.177E+09              888.752      2.981     40.727
         INT  0.191E+30            27043.841    168.482    203.077
         TR   0.197E+29             1481.254      4.968     45.691
         TOT                       28525.0953   173.4498   248.7672  1040.8418

       T/K    H(0)-H(T)+PV         H(T)/Eh          T*S/Eh         G(T)/Eh
   ------------------------------------------------------------------------
    298.15    0.454576E-01    0.695794E+00    0.118197E+00    0.577597E+00
   ------------------------------------------------------------------------

         :::::::::::::::::::::::::::::::::::::::::::::::::::::
         ::                  THERMODYNAMIC                  ::
         :::::::::::::::::::::::::::::::::::::::::::::::::::::
         :: total free energy        -147.861010659248 Eh   ::
         ::.................................................::
         :: total energy             -148.438607480693 Eh   ::
         :: zero point energy           0.650336493528 Eh   ::
         :: G(RRHO) w/o ZPVE           -0.072739672083 Eh   ::
         :: G(RRHO) contrib.            0.577596821446 Eh   ::
         :::::::::::::::::::::::::::::::::::::::::::::::::::::

           -------------------------------------------------
          | TOTAL ENERGY             -148.438607480693 Eh   |
          | TOTAL ENTHALPY           -147.742813354301 Eh   |
          | TOTAL FREE ENERGY        -147.861010659248 Eh   |
          | GRADIENT NORM               0.000124208350 Eh/α |
           -------------------------------------------------

 * finished run on 2025/09/09 at 04:05:28.092
