   * xtb version 6.7.1 (edcfbbe) compiled by 'albert@albert-system' on 2024-07-22

   ID    Z sym.   atoms
    1    8 O      1, 26, 45
    2    6 C      2-12, 14-18, 20-25, 27-37, 39-44, 46-55, 57, 58
    3    7 N      13, 19, 38, 56
    4    1 H      59-88

          program call               : xtb data2507/gas/DPXZ-DPPM/DPXZ-DPPM_gas_T1_crest.xyz --gfn 2 --spinpol --tblite --uhf 2 --ohess vtight --parallel 40 --molden --ceasefiles --namespace data2507/gas/DPXZ-DPPM/DPXZ-DPPM_gas_T1_finalOpt
 * total energy  :  -148.4385654 Eh     change        0.5634320E-08 Eh
 * total energy  :  -148.4385947 Eh     change       -0.2929692E-04 Eh
 * total energy  :  -148.4386035 Eh     change       -0.8769024E-05 Eh
 * total energy  :  -148.4386056 Eh     change       -0.2069437E-05 Eh
 * total energy  :  -148.4386072 Eh     change       -0.1584088E-05 Eh
 * total energy  :  -148.4386084 Eh     change       -0.1281750E-05 Eh
 * total energy  :  -148.4386096 Eh     change       -0.1206401E-05 Eh
 * total energy  :  -148.4386104 Eh     change       -0.7422761E-06 Eh
 * total energy  :  -148.4386104 Eh     change       -0.1242995E-08 Eh
 * total energy  :  -148.4386111 Eh     change       -0.7277875E-06 Eh
 * total energy  :  -148.4386185 Eh     change       -0.3677374E-06 Eh
 * total energy  :  -148.4386187 Eh     change       -0.1972603E-06 Eh
 * total energy  :  -148.4386189 Eh     change       -0.2124358E-06 Eh
 * total energy  :  -148.4386190 Eh     change       -0.4604468E-07 Eh
 * total energy  :  -148.4386192 Eh     change       -0.1994095E-06 Eh
 * total energy  :  -148.4386193 Eh     change       -0.1576848E-06 Eh
 * total energy  :  -148.4386194 Eh     change       -0.3207049E-07 Eh
 * total energy  :  -148.4386195 Eh     change       -0.1225158E-06 Eh
 * total energy  :  -148.4386196 Eh     change       -0.8192751E-07 Eh
   *** GEOMETRY OPTIMIZATION CONVERGED AFTER 34 ITERATIONS ***

 final structure:
================
88
 xtb: 6.7.1 (edcfbbe)
O            8.79619975022056       -2.79352693637246        0.54175328448093
C            8.04074038516212       -1.92451187983038        0.13990703196287
C            8.56589814627219       -0.61738644359492       -0.34055973863222
C            8.04069504821233        0.01732923258015       -1.46350567128018
C            8.58576660102068        1.20980478687838       -1.90341751201661
C            9.65100851730737        1.78191707098534       -1.22671060840715
C           10.18693049716610        1.14816299054436       -0.11730434195776
C            9.65527020005189       -0.05144139747497        0.31661505455088
C            6.57949968007241       -2.11984965704988        0.10538053963177
C            6.08826912011002       -3.43186239689134        0.09076290911778
C            4.73887014538287       -3.68518494493855        0.06450186021361
C            3.81219699987193       -2.63570419149830        0.07820163039517
N            2.50190955802353       -2.84383851196750        0.05282549912276
C            1.63379298985309       -1.83602953284518        0.08489173258523
C            0.22868196509479       -2.08022322135370        0.06852977972608
C           -0.23760217942980       -3.40475512542611       -0.00335505086165
C           -1.57622344452139       -3.68213040475121       -0.04215025555034
C           -2.49970020156198       -2.62706960672889        0.00986648531747
N           -3.88641177227313       -2.90272362777327       -0.04120453015870
C           -4.65923925889509       -2.46290060777785       -1.11384125325548
C           -4.12163624382989       -1.74337524990801       -2.17589098663064
C           -4.92372738673863       -1.31846646317716       -3.22230131866404
C           -6.27362871924419       -1.61225581464684       -3.23397743789700
C           -6.82116089883973       -2.35250966252189       -2.19776694573915
C           -6.02578527746669       -2.78050778533767       -1.15010745804048
O           -6.63133583702759       -3.53070029348940       -0.17624874589020
C           -5.85887362446390       -3.94889460107277        0.87583398623381
C           -6.48520397628075       -4.68653130201967        1.86402289472790
C           -5.77105755042752       -5.11861525143510        2.97094535010580
C           -4.43358892821067       -4.79282005572475        3.09047533263447
C           -3.79994706177152       -4.05563889327828        2.10356721982127
C           -4.49369306193086       -3.64057246888556        0.97195229438359
C           -2.06154193594715       -1.32260200915405        0.09926678543509
C           -0.69682156416228       -1.00937449814123        0.11749459728472
C           -0.20805811539327        0.34682314478640        0.17065052498004
C           -1.06074027844275        1.45759177363602        0.20944847920894
C           -0.56658167629440        2.74498545270077        0.21972267268497
N           -1.45937869632548        3.84188565183361        0.22363366663058
C           -2.31867700706223        4.06317247595672       -0.85121065169594
C           -2.34405420651162        3.23682101528341       -1.96969054945417
C           -3.21685085955211        3.48641402063221       -3.01612370228064
C           -4.07205657976401        4.57038688474578       -2.97128207810676
C           -4.03998294079916        5.42134980052158       -1.87751542854900
C           -3.17041774371105        5.17824792038245       -0.82959273730528
O           -3.17569468793803        6.07864455303303        0.20353812615148
C           -2.33103131754800        5.84199587988407        1.25669616989259
C           -2.36169100639624        6.74449429385321        2.30428975101029
C           -1.55497934247709        6.55218211778013        3.41524261496963
C           -0.73327082153283        5.44324870634564        3.47833867677659
C           -0.69672810219481        4.53640392368103        2.43169537621394
C           -1.47566254183496        4.73092569628665        1.29622501706982
C            0.81741804944869        2.97178584659852        0.21504064206923
C            1.67198158978561        1.90294860570826        0.20140741611977
C            1.18664163528051        0.58545671759428        0.17200380222895
C            2.11856143072382       -0.49960470388969        0.13637917574749
N            3.42255055664743       -0.27454572950514        0.14648124245339
C            4.30854283663213       -1.27798714749187        0.12313713430095
C            5.67943862558253       -1.05485684702477        0.13317394659135
H            7.22225746808527       -0.43581904883725       -2.00398838704132
H            8.17902106356676        1.69510752216632       -2.77881227911766
H           10.06868997051749        2.71719386775516       -1.56995026127658
H           11.02397374774287        1.58768286145846        0.40511386869419
H           10.06832505789431       -0.56427480788998        1.17255804441090
H            6.80238422332850       -4.24155558283258        0.09000438418560
H            4.35941381554397       -4.69482650782738        0.03781354633251
H            0.49686946262394       -4.19412719798904       -0.04230761081448
H           -1.93356514590807       -4.69794347314331       -0.11835197511874
H           -3.06613910760072       -1.52242592289587       -2.18838033723857
H           -4.48093818129335       -0.75801709108195       -4.03103127401520
H           -6.90131480709975       -1.28008734446758       -4.04545163216688
H           -7.86678272097345       -2.61506132109096       -2.18474104445921
H           -7.53404557906977       -4.90821821752777        1.74907656296888
H           -6.26573577031525       -5.69634862689695        3.73538350929670
H           -3.87135352008477       -5.10750692722936        3.95590536753831
H           -2.75923615920202       -3.79489776719836        2.21386605617228
H           -2.80499250743607       -0.54264188767663        0.15004512123864
H           -2.13135264754205        1.32739217984928        0.22736872925669
H           -1.66930694670049        2.39745644556207       -2.02650270787794
H           -3.21840095412274        2.82579919534022       -3.86922691178590
H           -4.75515759999789        4.76547013380426       -3.78252715788303
H           -4.68008876080028        6.28693458375332       -1.81869510859530
H           -3.02776384342879        7.58918317399881        2.23164059752500
H           -1.58194601386167        7.26236069150429        4.22626530995133
H           -0.11455270840406        5.27200626952299        4.34550858302029
H           -0.06226546927119        3.66677706281099        2.49825728626779
H            1.19088470667293        3.98459504051971        0.21616384949779
H            2.74164677122134        2.04472323686410        0.19742451649044
H            6.02616767059338       -0.03478942407999        0.19319614098593

 projected vibrational frequencies (cm⁻¹)
eigval :       -0.00    -0.00     0.00     0.00     0.00     0.00
eigval :        7.08     8.09    10.90    15.72    16.61    22.20
eigval :       28.98    32.05    40.35    42.70    47.84    53.33
eigval :       70.54    75.10    91.69    97.12   108.01   110.16
eigval :      118.74   120.89   135.68   144.85   154.03   171.54
eigval :      182.20   204.51   222.46   225.37   244.17   245.95
eigval :      247.94   251.23   264.85   266.80   273.81   287.60
eigval :      290.31   317.37   330.21   342.67   353.16   364.27
eigval :      368.64   371.65   387.86   389.80   395.27   405.75
eigval :      417.66   418.25   420.22   429.47   429.85   437.89
eigval :      438.41   440.50   449.31   457.47   476.20   486.62
eigval :      501.97   506.44   506.63   514.90   518.50   525.51
eigval :      526.05   540.30   556.46   567.74   575.50   578.04
eigval :      580.57   586.51   590.82   597.71   618.07   620.50
eigval :      625.12   631.84   639.82   652.10   661.96   662.13
eigval :      664.32   664.47   665.42   670.51   683.99   685.28
eigval :      695.81   704.56   708.14   720.89   723.26   765.14
eigval :      772.55   775.97   777.80   777.87   778.02   801.99
eigval :      810.77   817.92   825.05   826.80   830.07   838.55
eigval :      855.94   856.20   858.17   862.48   865.69   866.02
eigval :      868.23   870.57   879.84   881.97   897.55   897.72
eigval :      898.16   898.84   899.95   900.36   908.87   913.70
eigval :      914.37   914.51   915.48   916.96   917.54   920.17
eigval :      921.04   930.15   933.19   957.64   967.82  1000.56
eigval :     1008.26  1041.22  1064.00  1080.87  1088.02  1088.31
eigval :     1088.88  1089.69  1110.24  1110.56  1118.44  1119.22
eigval :     1124.20  1131.99  1140.19  1146.21  1158.64  1167.56
eigval :     1167.83  1173.00  1173.93  1179.77  1182.57  1184.99
eigval :     1190.39  1203.25  1203.99  1205.42  1206.35  1218.49
eigval :     1227.40  1230.60  1238.94  1241.09  1241.56  1252.52
eigval :     1257.62  1258.17  1262.45  1276.83  1280.53  1285.05
eigval :     1294.08  1306.86  1308.99  1312.15  1313.51  1320.03
eigval :     1326.49  1333.07  1333.20  1339.15  1344.31  1349.32
eigval :     1352.67  1368.63  1401.34  1406.41  1419.03  1421.18
eigval :     1422.78  1424.32  1429.70  1442.52  1443.69  1460.27
eigval :     1463.87  1470.21  1470.58  1472.61  1478.29  1483.34
eigval :     1491.56  1513.06  1513.98  1534.67  1541.01  1563.90
eigval :     1564.16  1570.71  1573.83  1574.31  1580.56  1580.70
eigval :     1583.02  1585.50  1591.95  1595.18  1596.97  1663.39
eigval :     3071.11  3075.82  3082.52  3088.91  3089.72  3089.86
eigval :     3090.16  3090.77  3091.44  3092.00  3092.11  3093.76
eigval :     3094.62  3095.36  3099.77  3101.01  3101.17  3101.26
eigval :     3101.44  3102.56  3103.77  3106.59  3107.51  3107.95
eigval :     3108.16  3108.84  3113.74  3113.87  3114.24  3114.83

   temp. (K)  partition function   enthalpy   heat capacity  entropy
                                   cal/mol     cal/K/mol   cal/K/mol   J/K/mol
 298.15  VIB  0.266E+22            26206.699    165.500    163.323
         ROT  0.178E+09              888.752      2.981     40.732
         INT  0.473E+30            27095.452    168.481    204.054
         TR   0.197E+29             1481.254      4.968     45.691
         TOT                       28576.7058   173.4489   249.7450  1044.9329

       T/K    H(0)-H(T)+PV         H(T)/Eh          T*S/Eh         G(T)/Eh
   ------------------------------------------------------------------------
    298.15    0.455399E-01    0.695536E+00    0.118662E+00    0.576874E+00
   ------------------------------------------------------------------------

         :::::::::::::::::::::::::::::::::::::::::::::::::::::
         ::                  THERMODYNAMIC                  ::
         :::::::::::::::::::::::::::::::::::::::::::::::::::::
         :: total free energy        -147.861745997047 Eh   ::
         ::.................................................::
         :: total energy             -148.438619616684 Eh   ::
         :: zero point energy           0.649995632878 Eh   ::
         :: G(RRHO) w/o ZPVE           -0.073122013241 Eh   ::
         :: G(RRHO) contrib.            0.576873619638 Eh   ::
         :::::::::::::::::::::::::::::::::::::::::::::::::::::

           -------------------------------------------------
          | TOTAL ENERGY             -148.438619616684 Eh   |
          | TOTAL ENTHALPY           -147.743084104443 Eh   |
          | TOTAL FREE ENERGY        -147.861745997047 Eh   |
          | GRADIENT NORM               0.000168432143 Eh/α |
           -------------------------------------------------

 * finished run on 2025/09/09 at 04:15:49.986
