   * xtb version 6.7.1 (edcfbbe) compiled by 'albert@albert-system' on 2024-07-22

   ID    Z sym.   atoms
    1    8 O      1, 26, 45
    2    6 C      2-12, 14-18, 20-25, 27-37, 39-44, 46-55, 57, 58
    3    7 N      13, 19, 38, 56
    4    1 H      59-88

          program call               : xtb data2507/gas/DPXZ-DPPM/DPXZ-DPPM.xyz --gfn 2 --ohess vtight --parallel 40 --molden --ceasefiles --namespace data2507/gas/DPXZ-DPPM/DPXZ-DPPM_gas_S0_preOpt
          :  Hamiltonian                  GFN2-xTB          :
 * total energy  :  -148.4456860 Eh     change       -0.4664969E-08 Eh
 * total energy  :  -148.4638301 Eh     change       -0.1814409E-01 Eh
 * total energy  :  -148.4696963 Eh     change       -0.5866122E-02 Eh
 * total energy  :  -148.4712900 Eh     change       -0.1593760E-02 Eh
 * total energy  :  -148.4723624 Eh     change       -0.1072417E-02 Eh
 * total energy  :  -148.4726874 Eh     change       -0.3249984E-03 Eh
 * total energy  :  -148.4727840 Eh     change       -0.9654474E-04 Eh
 * total energy  :  -148.4728437 Eh     change       -0.5970802E-04 Eh
 * total energy  :  -148.4728971 Eh     change       -0.5336363E-04 Eh
 * total energy  :  -148.4729550 Eh     change       -0.5797560E-04 Eh
 * total energy  :  -148.4757681 Eh     change       -0.6350459E-06 Eh
 * total energy  :  -148.4757690 Eh     change       -0.9062233E-06 Eh
 * total energy  :  -148.4757702 Eh     change       -0.1193268E-05 Eh
 * total energy  :  -148.4757715 Eh     change       -0.1346155E-05 Eh
 * total energy  :  -148.4757730 Eh     change       -0.1473437E-05 Eh
 * total energy  :  -148.4757745 Eh     change       -0.1527717E-05 Eh
 * total energy  :  -148.4757760 Eh     change       -0.1426225E-05 Eh
 * total energy  :  -148.4757771 Eh     change       -0.1171196E-05 Eh
 * total energy  :  -148.4757771 Eh     change       -0.7924967E-08 Eh
   *** GEOMETRY OPTIMIZATION CONVERGED AFTER 122 ITERATIONS ***

 final structure:
================
88
 xtb: 6.7.1 (edcfbbe)
O            8.61366267757691       -2.97290814020317        1.29129897017445
C            7.94513439276905       -2.15089439630285        0.69722095334589
C            8.55414552295267       -0.94030589183833        0.09195770942936
C            8.05955377876584       -0.36726076653602       -1.07803774198287
C            8.68282854666825        0.74106300056839       -1.62156817302443
C            9.79554873539102        1.28969078578243       -1.00401854647101
C           10.30017455506198        0.71677784704936        0.15265877745977
C            9.68960865069537       -0.39876236898605        0.69221295483426
C            6.47378268071835       -2.31548003012630        0.54969236868249
C            5.95972938725255       -3.63406837609386        0.49854748425418
C            4.62135179669391       -3.86651544839009        0.39189520694218
C            3.72062105239495       -2.77947157797287        0.35095042661499
N            2.40385289812713       -3.00373390238947        0.24582611299649
C            1.59652291296242       -1.95945734103221        0.22471736208450
C            0.17391177503413       -2.17553304002427        0.10849848219383
C           -0.31701655067254       -3.48297006696316        0.02566191777552
C           -1.66230898979328       -3.72724242758974       -0.09027596298365
C           -2.55411055282260       -2.65117077854953       -0.13796910012097
N           -3.93749722896142       -2.88584586724672       -0.25633523134165
C           -4.44593152935653       -3.57968935906833       -1.35860791238062
C           -3.64566350403432       -3.95988702298704       -2.42883435043346
C           -4.18161797480440       -4.64505308255748       -3.50851556212585
C           -5.52716900344557       -4.94991876919051       -3.54372973340483
C           -6.34660361835205       -4.54460754620050       -2.50089533460872
C           -5.81736183703849       -3.85913526240887       -1.42310355024773
O           -6.69658258499363       -3.45997998784671       -0.44845254771262
C           -6.18649182114514       -2.76427368187853        0.61850471834968
C           -7.08547386975723       -2.36956082831744        1.59207373453905
C           -6.64536461556006       -1.69366187095128        2.72008168667473
C           -5.29856935183893       -1.43525021652829        2.87372415138572
C           -4.39319423782458       -1.82718910709888        1.89938769100157
C           -4.82118941215328       -2.47453717730432        0.74683439648627
C           -2.07736832023366       -1.35222487776187       -0.06314371455299
C           -0.71450506633906       -1.08161159548802        0.07489271970646
C           -0.19654694924945        0.27660416471330        0.17257449196471
C           -1.03217459879402        1.39554519715410        0.17582257152544
C           -0.52090975834791        2.68060249911907        0.25716257774616
N           -1.39372815518952        3.78610321274747        0.23697913069405
C           -2.19570058357723        4.04229265287310       -0.87957019351225
C           -2.17710881719995        3.23738802842459       -2.01189543610998
C           -2.98438194648125        3.52409695864834       -3.10228511702645
C           -3.81506368631007        4.62578567102126       -3.08557138916386
C           -3.82173814268366        5.45807495485942       -1.97626889288110
C           -3.01762375571085        5.17754869208192       -0.88712373743349
O           -3.05589006445147        6.06817920396905        0.15606928211110
C           -2.25663190547756        5.80811488093562        1.24078220773850
C           -2.31119504625919        6.70803053667549        2.28887361644180
C           -1.55829209670426        6.49558142966611        3.43411550510429
C           -0.76894178225222        5.36755646928858        3.52894693956752
C           -0.70923501063900        4.46299802737059        2.47975051072329
C           -1.42926347240675        4.67963121561484        1.31153087987787
C            0.85957378215617        2.87970218640542        0.35310276732270
C            1.69750181575972        1.79293955070077        0.36988309116604
C            1.19202084008232        0.49182245205381        0.28106781076177
C            2.10607712472772       -0.62633368780977        0.30652180882117
N            3.40063603236792       -0.39337485141791        0.40635563920550
C            4.22975824546166       -1.44796626439249        0.43046732434731
C            5.61968209309834       -1.23918243182543        0.52883476978617
H            7.20463517283432       -0.80322452290064       -1.57385705170860
H            8.30004755813051        1.17889705928318       -2.53170937469489
H           10.27411422136169        2.15942468502208       -1.42954543055816
H           11.17287012457406        1.13802594811306        0.62917442061018
H           10.07290497115288       -0.86465000812568        1.58786315941729
H            6.66657950144339       -4.44918429140937        0.54528639421308
H            4.21742895067304       -4.86577101866678        0.34460605562153
H            0.39594327417549       -4.29099064008089        0.06644299466205
H           -2.04165592769819       -4.73680243784886       -0.13854921735388
H           -2.59551664668035       -3.71317985347440       -2.42355819003459
H           -3.53457696884140       -4.93361063615031       -4.32247594090520
H           -5.94796854074274       -5.48782281421736       -4.37839126417202
H           -7.40568145317108       -4.74683595056558       -2.50638564406361
H           -8.12728984947628       -2.60835294114827        1.45011932690401
H           -7.35426613459068       -1.38692986593961        3.47266591869624
H           -4.93607521500518       -0.92953357632293        3.75542406633278
H           -3.34167029409285       -1.63682068640866        2.04650469286824
H           -2.79611197188069       -0.55056719054094       -0.12422257474665
H           -2.10362885535672        1.28519786094234        0.12310568900897
H           -1.51795868757047        2.38431464757073       -2.05028816243877
H           -2.95138880056659        2.87733884421950       -3.96554781273862
H           -4.44771340685060        4.85120873800867       -3.92935660847496
H           -4.44209790396297        6.33911926219934       -1.93793033117135
H           -2.95450773376121        7.56765964971912        2.19007345251238
H           -1.60406119710506        7.20502711106099        4.24508515519811
H           -0.19364271463506        5.17669619592062        4.42173519127113
H           -0.10144534734475        3.57684545958200        2.57501835767826
H            1.25103620216565        3.88435903480084        0.40714756353913
H            2.76673883254092        1.91319539202347        0.44222085948050
H            5.97772338442196       -0.22410503108440        0.61006878275069

          :  Hamiltonian                  GFN2-xTB          :
         :: gradient norm              0.000061295279 Eh/a0 ::
         :: HOMO-LUMO gap              0.885827985511 eV    ::
         :: SCC energy              -151.047362202315 Eh    ::
         :: -> dispersion             -0.126694259153 Eh    ::
         :: repulsion energy           2.571585065533 Eh    ::

    * Orbital Energies and Occupations

         #    Occupation            Energy/Eh            Energy/eV
      -------------------------------------------------------------
         1        2.0000           -0.7302716             -19.8717
       ...           ...                  ...                  ...
       124        2.0000           -0.4179573             -11.3732
       125        2.0000           -0.4178552             -11.3704
       126        2.0000           -0.4157184             -11.3123
       127        2.0000           -0.4149492             -11.2913
       128        2.0000           -0.4113081             -11.1923
       129        2.0000           -0.4042588             -11.0004
       130        2.0000           -0.4015381             -10.9264
       131        2.0000           -0.3929594             -10.6930
       132        2.0000           -0.3922917             -10.6748
       133        2.0000           -0.3919943             -10.6667
       134        2.0000           -0.3578607              -9.7379
       135        2.0000           -0.3461580              -9.4194
       136        2.0000           -0.3458403              -9.4108 (HOMO)
       137                         -0.3132868              -8.5250 (LUMO)
       138                         -0.2878363              -7.8324
       139                         -0.2727921              -7.4231
       140                         -0.2667222              -7.2579
       141                         -0.2407679              -6.5516
       142                         -0.2405702              -6.5462
       143                         -0.2383883              -6.4869
       144                         -0.2358535              -6.4179
       145                         -0.2323614              -6.3229
       146                         -0.2319785              -6.3125
       147                         -0.2316498              -6.3035
       ...                                ...                  ...
       262                          0.7074139              19.2497
      -------------------------------------------------------------
                  HL-Gap            0.0325535 Eh            0.8858 eV

     #   Z          covCN         q      C6AA      α(0)
     1   8 O        0.858    -0.365    20.990     6.143
     2   6 C        2.828     0.226    23.248     7.901
     3   6 C        2.972    -0.011    28.293     8.725
     4   6 C        2.921    -0.026    28.642     8.776
     5   6 C        2.918    -0.027    28.665     8.780
     6   6 C        2.920    -0.022    28.564     8.764
     7   6 C        2.918    -0.026    28.654     8.778
     8   6 C        2.925    -0.017    28.432     8.744
     9   6 C        2.969    -0.009    28.234     8.716
    10   6 C        2.920    -0.020    28.496     8.754
    11   6 C        2.915    -0.039    28.962     8.825
    12   6 C        2.967     0.085    26.108     8.381
    13   7 N        1.848    -0.238    27.079     7.712
    14   6 C        2.961     0.085    26.112     8.382
    15   6 C        2.988    -0.004    28.126     8.700
    16   6 C        2.923    -0.027    28.678     8.782
    17   6 C        2.918    -0.040    29.004     8.832
    18   6 C        2.919     0.068    26.472     8.437
    19   7 N        2.752    -0.069    22.580     7.058
    20   6 C        2.922     0.042    27.054     8.530
    21   6 C        2.924    -0.059    29.473     8.903
    22   6 C        2.919    -0.038    28.955     8.824
    23   6 C        2.919    -0.039    28.979     8.828
    24   6 C        2.920    -0.056    29.387     8.890
    25   6 C        2.884     0.125    25.253     8.238
    26   8 O        1.709    -0.253    18.199     5.760
    27   6 C        2.884     0.125    25.253     8.238
    28   6 C        2.920    -0.056    29.384     8.889
    29   6 C        2.919    -0.039    28.979     8.828
    30   6 C        2.919    -0.038    28.957     8.824
    31   6 C        2.924    -0.060    29.495     8.906
    32   6 C        2.921     0.042    27.058     8.530
    33   6 C        2.925    -0.047    29.178     8.858
    34   6 C        2.976     0.008    27.841     8.655
    35   6 C        2.976     0.008    27.845     8.656
    36   6 C        2.925    -0.047    29.174     8.858
    37   6 C        2.919     0.068    26.475     8.438
    38   7 N        2.752    -0.070    22.597     7.060
    39   6 C        2.921     0.042    27.057     8.530
    40   6 C        2.924    -0.060    29.501     8.907
    41   6 C        2.919    -0.039    28.961     8.825
    42   6 C        2.919    -0.040    28.985     8.829
    43   6 C        2.920    -0.056    29.387     8.890
    44   6 C        2.884     0.125    25.255     8.239
    45   8 O        1.709    -0.254    18.206     5.761
    46   6 C        2.884     0.125    25.257     8.239
    47   6 C        2.920    -0.056    29.389     8.890
    48   6 C        2.919    -0.040    28.983     8.828
    49   6 C        2.919    -0.038    28.956     8.824
    50   6 C        2.924    -0.059    29.476     8.903
    51   6 C        2.922     0.042    27.054     8.530
    52   6 C        2.919    -0.040    29.005     8.832
    53   6 C        2.923    -0.027    28.686     8.783
    54   6 C        2.988    -0.005    28.128     8.700
    55   6 C        2.961     0.084    26.125     8.384
    56   7 N        1.849    -0.240    27.114     7.717
    57   6 C        2.966     0.082    26.167     8.391
    58   6 C        2.919    -0.037    28.926     8.820
    59   1 H        0.926     0.037     2.491     2.468
    60   1 H        0.926     0.038     2.473     2.459
    61   1 H        0.926     0.039     2.460     2.453
    62   1 H        0.926     0.041     2.441     2.443
    63   1 H        0.926     0.056     2.252     2.347
    64   1 H        0.926     0.062     2.173     2.305
    65   1 H        0.926     0.058     2.219     2.330
    66   1 H        0.926     0.067     2.117     2.276
    67   1 H        0.926     0.047     2.362     2.403
    68   1 H        0.926     0.035     2.510     2.478
    69   1 H        0.926     0.037     2.489     2.467
    70   1 H        0.926     0.039     2.460     2.453
    71   1 H        0.926     0.051     2.303     2.373
    72   1 H        0.926     0.052     2.301     2.372
    73   1 H        0.926     0.039     2.459     2.452
    74   1 H        0.926     0.037     2.496     2.470
    75   1 H        0.926     0.035     2.517     2.481
    76   1 H        0.926     0.046     2.367     2.406
    77   1 H        0.926     0.046     2.366     2.405
    78   1 H        0.926     0.034     2.526     2.485
    79   1 H        0.926     0.036     2.501     2.473
    80   1 H        0.926     0.039     2.463     2.454
    81   1 H        0.926     0.051     2.303     2.373
    82   1 H        0.926     0.051     2.305     2.374
    83   1 H        0.926     0.039     2.462     2.454
    84   1 H        0.926     0.037     2.491     2.468
    85   1 H        0.926     0.035     2.514     2.479
    86   1 H        0.926     0.046     2.370     2.407
    87   1 H        0.926     0.066     2.133     2.284
    88   1 H        0.926     0.056     2.243     2.342

molecular dipole:
                 x           y           z       tot (Debye)
 q only:       -0.349       0.715      -0.566
   full:       -0.291       0.770      -0.626       2.629

 projected vibrational frequencies (cm⁻¹)
eigval :       -0.00    -0.00     0.00     0.00     0.00     0.00
eigval :        7.61    11.67    13.04    16.23    16.73    23.33
eigval :       29.68    32.28    40.33    41.34    46.29    52.46
eigval :       70.92    75.47    91.94    96.87   106.12   109.52
eigval :      121.09   125.38   136.46   146.52   153.21   170.34
eigval :      190.19   206.91   217.94   234.31   244.14   248.99
eigval :      249.86   253.71   262.98   265.91   275.52   286.08
eigval :      289.33   319.89   335.31   341.00   359.87   368.68
eigval :      370.58   373.10   388.56   390.28   395.33   406.65
eigval :      418.27   418.94   420.70   429.97   430.91   437.87
eigval :      441.32   442.33   447.95   455.26   461.56   485.06
eigval :      499.86   509.79   509.90   514.85   519.70   523.73
eigval :      529.05   549.03   560.53   567.38   579.69   581.26
eigval :      584.60   587.49   594.74   599.67   619.57   625.67
eigval :      633.19   647.51   651.88   659.89   660.20   661.67
eigval :      661.85   666.40   671.65   672.84   692.60   697.67
eigval :      707.37   714.82   732.71   737.63   765.45   770.19
eigval :      776.23   778.70   779.19   779.40   779.68   803.32
eigval :      820.92   824.61   836.02   836.48   841.05   855.57
eigval :      855.76   862.03   863.44   867.60   868.08   873.20
eigval :      876.04   876.87   885.27   886.95   898.05   898.43
eigval :      899.66   901.08   908.35   912.25   915.07   915.13
eigval :      915.87   916.38   917.48   918.32   921.92   931.25
eigval :      931.58   931.78   935.02   965.61   975.33  1003.52
eigval :     1004.46  1048.34  1063.75  1080.78  1090.67  1090.78
eigval :     1091.55  1092.18  1108.84  1108.93  1119.74  1120.11
eigval :     1124.64  1138.54  1145.01  1146.51  1153.86  1170.30
eigval :     1170.43  1175.63  1175.70  1181.03  1185.82  1186.25
eigval :     1191.83  1202.20  1202.56  1206.98  1208.62  1215.48
eigval :     1230.29  1231.90  1239.46  1243.92  1244.33  1262.06
eigval :     1262.28  1264.62  1276.35  1277.28  1278.31  1294.94
eigval :     1309.19  1310.58  1310.97  1314.68  1321.94  1322.39
eigval :     1329.81  1337.28  1341.92  1345.91  1351.70  1356.13
eigval :     1380.69  1402.30  1404.42  1422.22  1424.05  1429.28
eigval :     1434.44  1434.83  1443.74  1444.82  1456.45  1462.20
eigval :     1478.33  1484.22  1486.66  1487.89  1495.54  1503.16
eigval :     1503.71  1526.04  1543.85  1550.78  1567.60  1567.71
eigval :     1576.79  1579.91  1580.32  1580.52  1585.89  1590.45
eigval :     1591.10  1591.51  1596.30  1602.63  1602.94  1693.78
eigval :     3076.38  3080.54  3086.77  3089.02  3089.49  3089.61
eigval :     3089.70  3091.12  3092.15  3092.62  3092.93  3094.12
eigval :     3097.65  3098.97  3099.16  3099.34  3099.42  3100.90
eigval :     3102.94  3105.43  3105.84  3106.12  3106.41  3111.68
eigval :     3112.60  3113.16  3113.48  3113.60  3114.01  3114.20

   temp. (K)  partition function   enthalpy   heat capacity  entropy
                                   cal/mol     cal/K/mol   cal/K/mol   J/K/mol
 298.15  VIB  0.118E+22            26060.626    164.448    161.852
         ROT  0.178E+09              888.752      2.981     40.734
         INT  0.210E+30            26949.379    167.429    202.586
         TR   0.197E+29             1481.254      4.968     45.691
         TOT                       28430.6327   172.3967   248.2767  1038.7895

       T/K    H(0)-H(T)+PV         H(T)/Eh          T*S/Eh         G(T)/Eh
   ------------------------------------------------------------------------
    298.15    0.453071E-01    0.697881E+00    0.117964E+00    0.579917E+00
   ------------------------------------------------------------------------

         :::::::::::::::::::::::::::::::::::::::::::::::::::::
         ::                  THERMODYNAMIC                  ::
         :::::::::::::::::::::::::::::::::::::::::::::::::::::
         :: total free energy        -147.895860562127 Eh   ::
         ::.................................................::
         :: total energy             -148.475777136779 Eh   ::
         :: zero point energy           0.652573728426 Eh   ::
         :: G(RRHO) w/o ZPVE           -0.072657153774 Eh   ::
         :: G(RRHO) contrib.            0.579916574652 Eh   ::
         :::::::::::::::::::::::::::::::::::::::::::::::::::::

           -------------------------------------------------
          | TOTAL ENERGY             -148.475777136779 Eh   |
          | TOTAL ENTHALPY           -147.777896311303 Eh   |
          | TOTAL FREE ENERGY        -147.895860562127 Eh   |
          | GRADIENT NORM               0.000061250286 Eh/α |
          | HOMO-LUMO GAP               0.885824717268 eV   |
           -------------------------------------------------

 * finished run on 2025/09/09 at 03:59:51.051
