   * xtb version 6.7.1 (edcfbbe) compiled by 'albert@albert-system' on 2024-07-22

   ID    Z sym.   atoms
    1    8 O      1, 26, 45
    2    6 C      2-12, 14-18, 20-25, 27-37, 39-44, 46-55, 57, 58
    3    7 N      13, 19, 38, 56
    4    1 H      59-88

          program call               : xtb data2507/gas/DPXZ-DPPM/DPXZ-DPPM_gas_S0_crest.xyz --gfn 2 --ohess vtight --parallel 40 --molden --ceasefiles --namespace data2507/gas/DPXZ-DPPM/DPXZ-DPPM_gas_S0_finalOpt
          :  Hamiltonian                  GFN2-xTB          :
 * total energy  :  -148.4765117 Eh     change       -0.2523166E-08 Eh
 * total energy  :  -148.4765135 Eh     change       -0.1822801E-05 Eh
 * total energy  :  -148.4765161 Eh     change       -0.2584593E-05 Eh
 * total energy  :  -148.4765203 Eh     change       -0.4162340E-05 Eh
 * total energy  :  -148.4765223 Eh     change       -0.2046842E-05 Eh
 * total energy  :  -148.4765223 Eh     change       -0.4302598E-07 Eh
 * total energy  :  -148.4765244 Eh     change       -0.2088637E-05 Eh
 * total energy  :  -148.4765272 Eh     change       -0.2754647E-05 Eh
 * total energy  :  -148.4765302 Eh     change       -0.2994797E-05 Eh
 * total energy  :  -148.4765333 Eh     change       -0.3138700E-05 Eh
 * total energy  :  -148.4765665 Eh     change       -0.1465927E-06 Eh
 * total energy  :  -148.4765666 Eh     change       -0.1135216E-06 Eh
 * total energy  :  -148.4765667 Eh     change       -0.1182011E-06 Eh
 * total energy  :  -148.4765668 Eh     change       -0.1357838E-06 Eh
 * total energy  :  -148.4765670 Eh     change       -0.1608653E-06 Eh
 * total energy  :  -148.4765672 Eh     change       -0.2027386E-06 Eh
 * total energy  :  -148.4765674 Eh     change       -0.2472758E-06 Eh
 * total energy  :  -148.4765677 Eh     change       -0.2373739E-06 Eh
 * total energy  :  -148.4765677 Eh     change       -0.2263732E-08 Eh
   *** GEOMETRY OPTIMIZATION CONVERGED AFTER 44 ITERATIONS ***

 final structure:
================
88
 xtb: 6.7.1 (edcfbbe)
O            8.80198063055880       -2.55260328288930        0.82210168247578
C            8.06621833551875       -1.77010338167794        0.25482208000257
C            8.58789281511561       -0.55145261992398       -0.41281745950324
C            7.99885169563557       -0.02718837630791       -1.56175461515792
C            8.54144538177569        1.09112484813816       -2.16766820372488
C            9.66662781762391        1.69835661200324       -1.63312286100118
C           10.26455587526735        1.17452427418937       -0.49784868989439
C            9.73490823965455        0.04908696476093        0.10323894519162
C            6.59614282417144       -1.99225771849278        0.20210320745617
C            6.12983344224694       -3.32923714086923        0.20015903271387
C            4.79694530851963       -3.61160158545634        0.17635131585252
C            3.85568245668539       -2.55881137746011        0.17415679155748
N            2.54420842271706       -2.83268130549248        0.14765931954209
C            1.69859353075213       -1.81923274593420        0.16159123075686
C            0.28106375364671       -2.08937570910059        0.12448398847552
C           -0.16747153606060       -3.41058237736468        0.02078782429756
C           -1.50730856419816       -3.70071122811326       -0.04658375418790
C           -2.43953686543254       -2.65958529859206        0.01143674488026
N           -3.81705808443668       -2.93183995409038       -0.07564130899509
C           -4.59393861216701       -2.36345447203958       -1.09173011064772
C           -4.05434845787971       -1.55089615567234       -2.08193584843434
C           -4.85769102056730       -0.99965561868025       -3.06810759843086
C           -6.21223661036866       -1.26142224229520       -3.09334159198333
C           -6.76027393447984       -2.10415415121036       -2.13848168152609
C           -5.96280799637843       -2.65820834122765       -1.15385549764100
O           -6.57468097924492       -3.51323090764601       -0.27290267672977
C           -5.80331546877185       -4.05366254648185        0.72469821249345
C           -6.44061043805844       -4.88637729396503        1.62597530391844
C           -5.73809510434643       -5.43959724628826        2.68577641141952
C           -4.40232149074943       -5.13302375879590        2.84874350878941
C           -3.75834935373858       -4.30067807546893        1.94618797066474
C           -4.43718243618963       -3.77169594954481        0.85531567925867
C           -2.00505962200754       -1.34971179380460        0.13761785406301
C           -0.64723218140307       -1.03043888721680        0.17773437516816
C           -0.17608285255461        0.34616498877046        0.23623598866493
C           -1.05379243232525        1.43067496839936        0.27305350338882
C           -0.59386003463128        2.73757594839778        0.25365316450515
N           -1.51430750765853        3.80194549136496        0.24705824683981
C           -2.47157258187658        3.91314788569403       -0.76794292554980
C           -2.54213481047817        3.02243350369287       -1.83258768736099
C           -3.51005126176153        3.16113534321011       -2.81537744176195
C           -4.41589514417758        4.20058657392817       -2.76227140670873
C           -4.33370858006134        5.12266397147393       -1.73006415685615
C           -3.36914761060287        4.98951864593558       -0.74817145663740
O           -3.33029437884268        5.96594093037380        0.21465512771766
C           -2.39809064152694        5.83449901584375        1.21268391391763
C           -2.39624743113168        6.80453889546632        2.19795488011839
C           -1.51032893282040        6.72076955914923        3.26144745927543
C           -0.64612300205401        5.64778338258403        3.34216822045480
C           -0.64268535021716        4.67386772477465        2.35540075281179
C           -1.49493421350334        4.76457140967020        1.26177761590381
C            0.78108059780021        2.99195989508014        0.22561265712979
C            1.66211523820878        1.93925165193840        0.22401688492057
C            1.20665311133066        0.61663872508022        0.22453564790019
C            2.16178331559943       -0.46672752523627        0.20528723974199
N            3.45032969152118       -0.18533976230967        0.22512801288126
C            4.31831658173400       -1.20864627832311        0.20814784115458
C            5.70276055317816       -0.94813317433022        0.21913590600367
H            7.13324579005331       -0.50849204177714       -1.99288768675961
H            8.08562143261638        1.49092399588084       -3.06151926148969
H           10.08195736719930        2.57565411169041       -2.10681647177260
H           11.14676041530124        1.64178277098897       -0.08614334143742
H           10.19145501728605       -0.37906877831262        0.98323882530330
H            6.86796154823090       -4.11737986966687        0.21510499288151
H            4.42822816294232       -4.62543136462851        0.16543072538471
H            0.57519068237260       -4.19116108620366       -0.02494429634844
H           -1.84943535731540       -4.71863247975327       -0.15675204162654
H           -2.99403637331504       -1.35390294314054       -2.09410269963810
H           -4.40917122683120       -0.36731675943998       -3.81857548747081
H           -6.84291092004709       -0.82971860273537       -3.85412008100466
H           -7.80952720251905       -2.35231156559507       -2.14283336533204
H           -7.49079943291498       -5.08416767830848        1.48265482980514
H           -6.24197513310396       -6.09201479265180        3.38109291739514
H           -3.84721081211527       -5.53496561944889        3.68221386992951
H           -2.71929150305719       -4.05481271139748        2.09891331458974
H           -2.75540291289908       -0.57786594062147        0.19987001126031
H           -2.11996267785842        1.27603190632377        0.31701510074529
H           -1.82795415823756        2.21752757479957       -1.90548212198133
H           -3.54329162433673        2.44819711596028       -3.62455907864593
H           -5.17495008303248        4.30945541103980       -3.52048153445411
H           -5.00789247567943        5.96199242867275       -1.67037656700042
H           -3.10204170536243        7.61554160598098        2.11612679718582
H           -1.51240904271961        7.48450543980722        4.02284759563558
H            0.03250696878927        5.55422309665650        4.17591299527106
H            0.02509451559239        3.83140073392528        2.44350186108831
H            1.13514323459303        4.01137986170137        0.19647345857230
H            2.72770380019693        2.10414699630202        0.20441623091471
H            6.02740258441447        0.08033488403456        0.26448950392258

          :  Hamiltonian                  GFN2-xTB          :
         :: gradient norm              0.000033734025 Eh/a0 ::
         :: HOMO-LUMO gap              0.915168935759 eV    ::
         :: SCC energy              -151.048477074660 Eh    ::
         :: -> dispersion             -0.128257077547 Eh    ::
         :: repulsion energy           2.571909386273 Eh    ::

    * Orbital Energies and Occupations

         #    Occupation            Energy/Eh            Energy/eV
      -------------------------------------------------------------
         1        2.0000           -0.7307629             -19.8851
       ...           ...                  ...                  ...
       124        2.0000           -0.4181671             -11.3789
       125        2.0000           -0.4174830             -11.3603
       126        2.0000           -0.4158750             -11.3165
       127        2.0000           -0.4154458             -11.3049
       128        2.0000           -0.4104166             -11.1680
       129        2.0000           -0.4038488             -10.9893
       130        2.0000           -0.4008024             -10.9064
       131        2.0000           -0.3925718             -10.6824
       132        2.0000           -0.3924723             -10.6797
       133        2.0000           -0.3920435             -10.6680
       134        2.0000           -0.3570624              -9.7162
       135        2.0000           -0.3468968              -9.4395
       136        2.0000           -0.3460464              -9.4164 (HOMO)
       137                         -0.3124146              -8.5012 (LUMO)
       138                         -0.2871737              -7.8144
       139                         -0.2721094              -7.4045
       140                         -0.2659864              -7.2379
       141                         -0.2412048              -6.5635
       142                         -0.2410804              -6.5601
       143                         -0.2380397              -6.4774
       144                         -0.2355318              -6.4091
       145                         -0.2325895              -6.3291
       146                         -0.2323476              -6.3225
       147                         -0.2314803              -6.2989
       ...                                ...                  ...
       262                          0.7082116              19.2714
      -------------------------------------------------------------
                  HL-Gap            0.0336318 Eh            0.9152 eV

     #   Z          covCN         q      C6AA      α(0)
     1   8 O        0.858    -0.365    20.992     6.143
     2   6 C        2.828     0.226    23.247     7.901
     3   6 C        2.972    -0.011    28.292     8.725
     4   6 C        2.921    -0.026    28.642     8.776
     5   6 C        2.918    -0.027    28.666     8.780
     6   6 C        2.920    -0.022    28.565     8.765
     7   6 C        2.918    -0.026    28.655     8.778
     8   6 C        2.925    -0.017    28.432     8.744
     9   6 C        2.969    -0.009    28.238     8.716
    10   6 C        2.920    -0.020    28.500     8.754
    11   6 C        2.915    -0.039    28.964     8.825
    12   6 C        2.967     0.085    26.111     8.382
    13   7 N        1.848    -0.239    27.090     7.714
    14   6 C        2.961     0.085    26.112     8.382
    15   6 C        2.988    -0.005    28.134     8.701
    16   6 C        2.923    -0.027    28.681     8.782
    17   6 C        2.918    -0.041    29.022     8.834
    18   6 C        2.919     0.068    26.484     8.439
    19   7 N        2.751    -0.068    22.558     7.054
    20   6 C        2.921     0.042    27.065     8.531
    21   6 C        2.924    -0.060    29.487     8.905
    22   6 C        2.919    -0.038    28.945     8.823
    23   6 C        2.919    -0.039    28.976     8.827
    24   6 C        2.920    -0.056    29.385     8.889
    25   6 C        2.885     0.125    25.248     8.238
    26   8 O        1.709    -0.253    18.195     5.759
    27   6 C        2.885     0.125    25.254     8.239
    28   6 C        2.920    -0.056    29.385     8.889
    29   6 C        2.919    -0.039    28.974     8.827
    30   6 C        2.919    -0.038    28.952     8.824
    31   6 C        2.924    -0.059    29.471     8.903
    32   6 C        2.922     0.042    27.057     8.530
    33   6 C        2.926    -0.048    29.197     8.861
    34   6 C        2.976     0.008    27.846     8.656
    35   6 C        2.977     0.007    27.851     8.657
    36   6 C        2.926    -0.048    29.197     8.861
    37   6 C        2.919     0.068    26.488     8.440
    38   7 N        2.751    -0.069    22.569     7.056
    39   6 C        2.921     0.042    27.065     8.531
    40   6 C        2.924    -0.060    29.492     8.906
    41   6 C        2.919    -0.038    28.948     8.823
    42   6 C        2.919    -0.039    28.979     8.828
    43   6 C        2.920    -0.056    29.387     8.890
    44   6 C        2.885     0.125    25.251     8.238
    45   8 O        1.709    -0.254    18.200     5.760
    46   6 C        2.885     0.125    25.255     8.239
    47   6 C        2.920    -0.056    29.387     8.890
    48   6 C        2.919    -0.039    28.978     8.828
    49   6 C        2.919    -0.038    28.955     8.824
    50   6 C        2.924    -0.059    29.474     8.903
    51   6 C        2.922     0.042    27.057     8.530
    52   6 C        2.918    -0.041    29.024     8.834
    53   6 C        2.923    -0.028    28.689     8.784
    54   6 C        2.988    -0.005    28.137     8.701
    55   6 C        2.961     0.084    26.125     8.384
    56   7 N        1.849    -0.240    27.124     7.719
    57   6 C        2.966     0.082    26.171     8.391
    58   6 C        2.919    -0.037    28.928     8.820
    59   1 H        0.926     0.037     2.492     2.469
    60   1 H        0.926     0.038     2.474     2.460
    61   1 H        0.926     0.039     2.462     2.454
    62   1 H        0.926     0.040     2.442     2.444
    63   1 H        0.926     0.055     2.254     2.348
    64   1 H        0.926     0.062     2.178     2.308
    65   1 H        0.926     0.058     2.222     2.331
    66   1 H        0.926     0.067     2.123     2.279
    67   1 H        0.926     0.047     2.362     2.403
    68   1 H        0.926     0.035     2.511     2.478
    69   1 H        0.926     0.036     2.508     2.476
    70   1 H        0.926     0.039     2.457     2.451
    71   1 H        0.926     0.052     2.299     2.371
    72   1 H        0.926     0.051     2.302     2.373
    73   1 H        0.926     0.039     2.456     2.451
    74   1 H        0.926     0.038     2.482     2.463
    75   1 H        0.926     0.037     2.491     2.468
    76   1 H        0.926     0.046     2.372     2.408
    77   1 H        0.926     0.046     2.372     2.408
    78   1 H        0.926     0.035     2.513     2.479
    79   1 H        0.926     0.036     2.507     2.476
    80   1 H        0.926     0.039     2.459     2.452
    81   1 H        0.926     0.052     2.301     2.372
    82   1 H        0.926     0.051     2.303     2.373
    83   1 H        0.926     0.039     2.459     2.452
    84   1 H        0.926     0.037     2.486     2.466
    85   1 H        0.926     0.036     2.496     2.471
    86   1 H        0.926     0.046     2.370     2.407
    87   1 H        0.926     0.065     2.139     2.287
    88   1 H        0.926     0.056     2.247     2.344

molecular dipole:
                 x           y           z       tot (Debye)
 q only:       -0.502       0.714      -0.518
   full:       -0.461       0.772      -0.586       2.727

 projected vibrational frequencies (cm⁻¹)
eigval :       -0.00    -0.00    -0.00    -0.00     0.00     0.00
eigval :        7.04    11.67    14.44    16.23    16.57    22.63
eigval :       29.55    33.54    40.50    43.41    47.45    52.15
eigval :       70.59    75.91    92.83    97.03   106.66   110.36
eigval :      121.19   124.90   140.57   147.90   156.06   172.75
eigval :      191.02   206.92   223.37   233.36   243.27   247.67
eigval :      252.47   254.09   264.23   266.35   276.11   288.31
eigval :      291.04   318.15   337.14   345.38   356.06   368.50
eigval :      370.65   374.73   389.83   391.13   394.81   406.34
eigval :      417.76   419.64   420.41   430.77   432.48   440.13
eigval :      441.04   442.61   447.80   452.44   467.52   484.43
eigval :      499.95   509.41   509.95   516.15   519.86   526.25
eigval :      527.16   548.85   560.39   570.12   577.26   580.92
eigval :      584.61   587.51   594.98   601.38   619.58   625.04
eigval :      632.20   646.83   652.51   659.96   660.40   662.08
eigval :      662.18   666.39   671.74   672.84   692.12   697.72
eigval :      707.38   715.00   732.38   737.34   765.80   769.91
eigval :      775.89   776.27   779.68   779.76   779.94   803.42
eigval :      820.97   824.89   837.02   837.67   840.98   855.81
eigval :      856.20   860.92   863.69   869.01   869.31   873.17
eigval :      876.28   877.99   884.91   889.15   898.66   899.09
eigval :      899.83   903.70   908.15   911.99   913.06   915.29
eigval :      915.40   917.26   917.53   918.81   921.72   931.63
eigval :      933.00   933.21   934.93   965.67   975.33  1003.99
eigval :     1004.65  1049.09  1063.84  1080.75  1090.97  1091.21
eigval :     1091.84  1092.93  1108.82  1109.28  1119.71  1120.53
eigval :     1125.43  1138.43  1144.96  1146.54  1153.74  1169.75
eigval :     1170.76  1174.19  1176.19  1181.03  1184.49  1188.03
eigval :     1191.89  1202.03  1203.60  1207.66  1209.15  1215.77
eigval :     1230.80  1232.90  1239.59  1244.28  1244.47  1262.11
eigval :     1262.43  1265.72  1277.08  1278.09  1279.11  1295.00
eigval :     1309.31  1309.62  1311.30  1315.30  1322.39  1323.72
eigval :     1328.19  1336.90  1341.83  1345.80  1351.48  1355.56
eigval :     1380.75  1403.13  1404.27  1421.85  1423.77  1429.40
eigval :     1434.61  1434.82  1443.49  1445.02  1457.75  1462.27
eigval :     1478.69  1484.47  1484.93  1487.76  1495.08  1502.81
eigval :     1503.10  1526.12  1543.62  1550.94  1567.62  1567.74
eigval :     1576.76  1579.98  1580.28  1580.67  1585.71  1590.29
eigval :     1591.16  1591.38  1596.21  1602.62  1602.78  1694.26
eigval :     3076.32  3080.50  3086.74  3089.59  3090.09  3090.39
eigval :     3090.92  3091.03  3092.28  3092.85  3092.91  3094.00
eigval :     3097.66  3099.66  3099.85  3100.04  3100.43  3102.17
eigval :     3102.83  3106.41  3106.90  3107.22  3107.56  3112.21
eigval :     3112.87  3113.55  3113.66  3113.81  3114.22  3114.46

   temp. (K)  partition function   enthalpy   heat capacity  entropy
                                   cal/mol     cal/K/mol   cal/K/mol   J/K/mol
 298.15  VIB  0.981E+21            26020.712    164.450    161.539
         ROT  0.176E+09              888.752      2.981     40.713
         INT  0.173E+30            26909.464    167.431    202.252
         TR   0.197E+29             1481.254      4.968     45.691
         TOT                       28390.7183   172.3994   247.9424  1037.3910

       T/K    H(0)-H(T)+PV         H(T)/Eh          T*S/Eh         G(T)/Eh
   ------------------------------------------------------------------------
    298.15    0.452435E-01    0.697995E+00    0.117805E+00    0.580189E+00
   ------------------------------------------------------------------------

         :::::::::::::::::::::::::::::::::::::::::::::::::::::
         ::                  THERMODYNAMIC                  ::
         :::::::::::::::::::::::::::::::::::::::::::::::::::::
         :: total free energy        -147.896378347683 Eh   ::
         ::.................................................::
         :: total energy             -148.476567688386 Eh   ::
         :: zero point energy           0.652751289303 Eh   ::
         :: G(RRHO) w/o ZPVE           -0.072561948600 Eh   ::
         :: G(RRHO) contrib.            0.580189340703 Eh   ::
         :::::::::::::::::::::::::::::::::::::::::::::::::::::

           -------------------------------------------------
          | TOTAL ENERGY             -148.476567688386 Eh   |
          | TOTAL ENTHALPY           -147.778572909643 Eh   |
          | TOTAL FREE ENERGY        -147.896378347683 Eh   |
          | GRADIENT NORM               0.000033723219 Eh/α |
          | HOMO-LUMO GAP               0.915167603010 eV   |
           -------------------------------------------------

 * finished run on 2025/09/09 at 04:05:10.755
