   * xtb version 6.7.1 (edcfbbe) compiled by 'albert@albert-system' on 2024-07-22

   ID    Z sym.   atoms
    1    6 C      1, 2, 4-9, 11-13, 17-27, 29, 30, 32-39, 43-52
    2    7 N      3, 10, 28, 31
    3   16 S      14, 40
    4    8 O      15, 16, 41, 42
    5    1 H      53-94

          program call               : xtb data2507/gas/2Mi2SB/2Mi2SB_gas_T1_crest.xyz --gfn 2 --spinpol --tblite --uhf 2 --ohess vtight --parallel 40 --molden --ceasefiles --namespace data2507/gas/2Mi2SB/2Mi2SB_gas_T1_finalOpt
 * total energy  :  -145.7799676 Eh     change        0.8529781E-08 Eh
 * total energy  :  -145.7800129 Eh     change       -0.4536335E-04 Eh
 * total energy  :  -145.7800355 Eh     change       -0.2253315E-04 Eh
 * total energy  :  -145.7800431 Eh     change       -0.7650847E-05 Eh
 * total energy  :  -145.7800514 Eh     change       -0.8332737E-05 Eh
 * total energy  :  -145.7800556 Eh     change       -0.4123565E-05 Eh
 * total energy  :  -145.7800583 Eh     change       -0.2775411E-05 Eh
 * total energy  :  -145.7800603 Eh     change       -0.1914026E-05 Eh
 * total energy  :  -145.7800623 Eh     change       -0.2017946E-05 Eh
 * total energy  :  -145.7800638 Eh     change       -0.1518532E-05 Eh
 * total energy  :  -145.7801095 Eh     change       -0.1278527E-06 Eh
 * total energy  :  -145.7801097 Eh     change       -0.2246571E-06 Eh
 * total energy  :  -145.7801099 Eh     change       -0.1539078E-06 Eh
 * total energy  :  -145.7801100 Eh     change       -0.1672369E-06 Eh
 * total energy  :  -145.7801102 Eh     change       -0.1479474E-06 Eh
 * total energy  :  -145.7801104 Eh     change       -0.2024580E-06 Eh
 * total energy  :  -145.7801110 Eh     change       -0.6527059E-06 Eh
 * total energy  :  -145.7801113 Eh     change       -0.2133920E-06 Eh
 * total energy  :  -145.7801113 Eh     change       -0.1552613E-07 Eh
   *** GEOMETRY OPTIMIZATION CONVERGED AFTER 68 ITERATIONS ***

 final structure:
================
94
 xtb: 6.7.1 (edcfbbe)
C            2.28865121878367       -3.87326198877087        2.00851846910833
C            3.16877922033033       -3.46074870026517        0.89792046103603
N            4.23431523257951       -4.07964808128461        0.51746988273527
C            4.73326593755570       -3.38528245598664       -0.56086381422694
C            5.87825762255843       -3.58913904441858       -1.30805027276454
C            6.13569631176657       -2.70415645613790       -2.34652087894271
C            5.28502815720539       -1.63753049335247       -2.62794435395245
C            4.13507249544279       -1.41467449477449       -1.89070254984534
C            3.86520738901364       -2.30442685077639       -0.85958087339623
N            2.87465643104179       -2.35550840495472        0.08943046629319
C            1.78469438842227       -1.52574092151545        0.19462632574144
C            1.06628968739777       -1.13586963535997       -0.91633858785651
C           -0.06224457312627       -0.33105124542663       -0.82318241192001
S           -1.10350150733696       -0.26080459966132       -2.27608588764435
O           -0.73331001066729       -1.38047986670076       -3.10186638024030
O           -0.99437498279432        1.04784481691189       -2.88032673556471
C           -2.78637277699296       -0.48982753128701       -1.71067067208228
C           -3.73082943978960        0.50023498921437       -1.88802784710529
C           -5.03183153009773        0.27933946083972       -1.47363735695347
C           -5.40909118021477       -0.92445998155511       -0.88242895826604
C           -6.86118072232790       -1.19582788627808       -0.52356546408747
C           -7.59080823198572        0.09105279924780       -0.11968550380104
C           -6.98329989198818       -2.19466241338123        0.63321366682608
C           -7.53184717242475       -1.78741193626560       -1.77320148941146
C           -4.43041355806963       -1.90248270965506       -0.71202420409325
C           -3.12621828307388       -1.68980737641929       -1.11939223103544
C           -0.52127860394701        0.08539576929323        0.47256378887510
N           -1.67779157157896        0.84345109172503        0.62289760573000
C           -1.90594080655145        2.15141721482667        0.21321900884864
C           -0.90202993133538        2.92143094672012       -0.54447735527392
N           -3.04278244763028        2.60926823922967        0.63086390736256
C           -3.63069270753234        1.60630246806741        1.36217089006879
C           -4.84122437422131        1.56742074678899        2.03437534666947
C           -5.14792149287423        0.41460733642053        2.73767692914881
C           -4.28449362833661       -0.67846363987951        2.76561776745995
C           -3.07599216003402       -0.66275970332356        2.09250444346669
C           -2.76189101571200        0.49175134460312        1.39797427738502
C            0.17816097367596       -0.30299096090668        1.58782114008570
C            1.37872556202248       -1.03229103963422        1.50022373923486
S            2.71037397340317       -0.35196378307137        2.50267663160047
O            3.88144184438064       -1.17964806100731        2.35934305297633
O            2.19312030603518       -0.13263080184074        3.82760269437808
C            2.97045608812439        1.19882598960204        1.65774063940386
C            3.77504140606111        1.20797952104494        0.53237689962289
C            3.80385767409648        2.32990334822586       -0.27122310416931
C            3.03139809839041        3.45495176408645        0.02326802726252
C            3.08065403712449        4.65538357179676       -0.90742036194457
C            4.51853055871202        5.19292584202630       -0.94891360212959
C            2.15877320192122        5.79170491688916       -0.45723444079513
C            2.64690376254261        4.21338181944327       -2.31295260077577
C            2.24049048567584        3.42139675890881        1.16994402188848
C            2.19774343129386        2.29774357275697        1.97790110863804
H            2.64775096242357       -4.81861994397278        2.40401414817341
H            2.31368295781549       -3.11944509965685        2.79571064907049
H            1.26028592664320       -3.97931704576431        1.66447952200922
H            6.54746492847533       -4.40155310251539       -1.07721678789790
H            7.02155479017113       -2.83987189141381       -2.94847515928682
H            5.52794730990885       -0.96939955574053       -3.44002171570968
H            3.48059527526779       -0.58448654871733       -2.10803229970600
H            1.29550786353104       -1.55667476202475       -1.88410898534582
H           -3.43914413727535        1.42708720834959       -2.35645105478708
H           -5.75478413291226        1.06272356574568       -1.62718805905062
H           -8.57393697508902       -0.15355723045580        0.27601499910861
H           -7.02993484640470        0.61926190744845        0.64693805422768
H           -7.73714687465048        0.75250065418557       -0.96878757897769
H           -6.37936191670125       -1.87169826845161        1.47709325247005
H           -6.67363128477078       -3.19281333522172        0.33617360799390
H           -8.02056783089664       -2.25798315884799        0.95407711831688
H           -7.47332241664889       -1.08941910826158       -2.60507954217932
H           -7.04069011808988       -2.71157923326344       -2.06924474495905
H           -8.57906691482814       -1.99975580935845       -1.57033237178713
H           -4.67916813947820       -2.85050237864567       -0.26490834957174
H           -2.37095184813934       -2.45222542987958       -1.00189308432452
H           -1.21427860030411        3.96055904242146       -0.58356165915755
H            0.07547353042832        2.83726845066529       -0.06887181598853
H           -0.82108538242421        2.52883966819351       -1.55949239516072
H           -5.50879350430304        2.41359083166532        2.01066748999844
H           -6.07787590405915        0.36000098502938        3.28429620700714
H           -4.55824679055847       -1.55323576737362        3.33620858725278
H           -2.39900140774971       -1.50253618587640        2.12272549711359
H           -0.12645283681681        0.04521781287585        2.56331531214686
H            4.38047619298993        0.34178314990304        0.31361439092631
H            4.44028902153007        2.32348890660970       -1.14239784444941
H            4.83883660483556        5.48836084930036        0.04789902702021
H            4.57186601934857        6.06224154594294       -1.60029093901397
H            5.21284529660806        4.44544391207972       -1.32179007824003
H            1.12092254671262        5.46925680459310       -0.43352963719420
H            2.23647678150568        6.61735049517951       -1.16117926737703
H            2.44325745608810        6.16321316306212        0.52439128165130
H            2.63921698169426        5.06913505225356       -2.98405687935735
H            3.32400575879256        3.46955720030791       -2.72280437881621
H            1.64670193676747        3.78676507171978       -2.28731182906085
H            1.64340175528171        4.27398918508914        1.44918452763616
H            1.58356986378128        2.26676095372836        2.86435693368705

 projected vibrational frequencies (cm⁻¹)
eigval :       -0.00    -0.00    -0.00    -0.00     0.00     0.00
eigval :        8.46    12.17    12.34    24.22    30.30    31.78
eigval :       34.96    40.24    42.88    52.96    60.38    65.18
eigval :       70.90    74.19    75.46    78.04    89.91    96.87
eigval :      105.05   109.34   118.12   127.90   135.21   147.82
eigval :      152.96   157.07   170.40   174.93   179.04   191.58
eigval :      199.73   206.19   214.52   215.82   220.03   223.59
eigval :      228.95   237.71   241.83   244.43   251.62   257.76
eigval :      265.06   275.34   284.89   292.91   302.72   309.70
eigval :      314.45   316.20   320.50   324.03   326.35   337.17
eigval :      354.30   360.82   363.01   372.34   376.10   380.36
eigval :      385.47   392.04   394.92   407.79   409.03   421.89
eigval :      425.50   457.74   458.86   468.25   473.02   483.55
eigval :      484.41   492.87   497.19   505.96   510.74   526.87
eigval :      530.24   537.28   542.49   548.67   562.25   588.30
eigval :      591.32   595.92   599.68   600.60   603.20   613.12
eigval :      617.15   623.71   644.60   658.62   677.05   681.82
eigval :      686.13   688.55   704.78   706.48   751.25   754.18
eigval :      769.94   776.94   785.64   806.58   811.35   824.58
eigval :      849.59   862.95   864.13   867.35   870.13   872.02
eigval :      876.12   882.33   883.38   901.69   902.36   909.28
eigval :      910.17   915.19   918.16   922.59   923.06   928.04
eigval :      934.67   959.80   960.39   962.32   963.80   963.83
eigval :      964.86   965.15   988.13   991.56   994.23  1014.24
eigval :     1021.08  1026.81  1030.82  1033.03  1034.73  1035.46
eigval :     1040.10  1044.19  1055.82  1056.83  1084.45  1088.43
eigval :     1102.81  1117.02  1119.80  1123.66  1132.34  1135.35
eigval :     1138.37  1140.98  1157.14  1168.87  1176.86  1180.06
eigval :     1189.06  1196.47  1200.24  1216.29  1218.75  1224.72
eigval :     1225.27  1225.89  1232.15  1234.90  1236.10  1248.15
eigval :     1261.22  1263.08  1264.89  1267.71  1279.44  1284.89
eigval :     1285.93  1287.27  1302.28  1318.91  1324.06  1325.16
eigval :     1342.30  1358.74  1383.05  1383.27  1388.33  1389.37
eigval :     1389.82  1391.68  1398.94  1401.87  1406.24  1406.71
eigval :     1407.49  1409.65  1425.66  1429.14  1437.57  1444.05
eigval :     1444.87  1449.57  1450.56  1458.12  1466.42  1466.81
eigval :     1473.01  1478.39  1487.39  1489.71  1491.46  1492.53
eigval :     1493.03  1498.23  1503.33  1509.76  1509.99  1513.93
eigval :     1516.73  1525.40  1552.95  1554.51  1572.40  1572.71
eigval :     1573.77  1580.43  1584.82  1587.68  1614.61  1618.47
eigval :     2993.82  3000.13  3005.87  3011.35  3028.60  3028.64
eigval :     3031.01  3031.02  3032.60  3032.88  3036.85  3037.00
eigval :     3037.80  3040.72  3041.41  3045.10  3046.51  3048.11
eigval :     3049.97  3050.25  3052.36  3053.70  3066.38  3066.93
eigval :     3081.36  3085.46  3086.78  3086.89  3088.13  3089.32
eigval :     3090.18  3090.89  3096.74  3098.51  3099.66  3101.38
eigval :     3104.22  3109.29  3116.28  3116.59  3118.46  3123.12

   temp. (K)  partition function   enthalpy   heat capacity  entropy
                                   cal/mol     cal/K/mol   cal/K/mol   J/K/mol
 298.15  VIB  0.957E+23            29823.114    180.174    186.703
         ROT  0.808E+08              888.752      2.981     39.163
         INT  0.773E+31            30711.866    183.155    225.866
         TR   0.191E+29             1481.254      4.968     45.627
         TOT                       32193.1204   188.1234   271.4929  1135.9262

       T/K    H(0)-H(T)+PV         H(T)/Eh          T*S/Eh         G(T)/Eh
   ------------------------------------------------------------------------
    298.15    0.513030E-01    0.786752E+00    0.128995E+00    0.657757E+00
   ------------------------------------------------------------------------

         :::::::::::::::::::::::::::::::::::::::::::::::::::::
         ::                  THERMODYNAMIC                  ::
         :::::::::::::::::::::::::::::::::::::::::::::::::::::
         :: total free energy        -145.122354293577 Eh   ::
         ::.................................................::
         :: total energy             -145.780111193176 Eh   ::
         :: zero point energy           0.735448922000 Eh   ::
         :: G(RRHO) w/o ZPVE           -0.077692022401 Eh   ::
         :: G(RRHO) contrib.            0.657756899599 Eh   ::
         :::::::::::::::::::::::::::::::::::::::::::::::::::::

           -------------------------------------------------
          | TOTAL ENERGY             -145.780111193176 Eh   |
          | TOTAL ENTHALPY           -144.993359268306 Eh   |
          | TOTAL FREE ENERGY        -145.122354293577 Eh   |
          | GRADIENT NORM               0.000057121218 Eh/α |
           -------------------------------------------------

 * finished run on 2025/09/07 at 23:46:14.448
