   * xtb version 6.7.1 (edcfbbe) compiled by 'albert@albert-system' on 2024-07-22

   ID    Z sym.   atoms
    1    6 C      1, 2, 4-9, 11-13, 17-27, 29, 30, 32-39, 43-52
    2    7 N      3, 10, 28, 31
    3   16 S      14, 40
    4    8 O      15, 16, 41, 42
    5    1 H      53-94

          program call               : xtb data2507/gas/2Mi2SB/2Mi2SB_gas_S0_crest.xyz --gfn 2 --ohess vtight --parallel 40 --molden --ceasefiles --namespace data2507/gas/2Mi2SB/2Mi2SB_gas_S0_finalOpt
          :  Hamiltonian                  GFN2-xTB          :
 * total energy  :  -145.8823899 Eh     change       -0.1489553E-08 Eh
 * total energy  :  -145.8823916 Eh     change       -0.1740038E-05 Eh
 * total energy  :  -145.8823928 Eh     change       -0.1186762E-05 Eh
 * total energy  :  -145.8823966 Eh     change       -0.3857219E-05 Eh
 * total energy  :  -145.8823992 Eh     change       -0.2534888E-05 Eh
 * total energy  :  -145.8824015 Eh     change       -0.2289334E-05 Eh
 * total energy  :  -145.8824039 Eh     change       -0.2407428E-05 Eh
 * total energy  :  -145.8824061 Eh     change       -0.2259113E-05 Eh
 * total energy  :  -145.8824083 Eh     change       -0.2183472E-05 Eh
 * total energy  :  -145.8824109 Eh     change       -0.2553951E-05 Eh
 * total energy  :  -145.8824172 Eh     change       -0.6487394E-06 Eh
 * total energy  :  -145.8824177 Eh     change       -0.4757840E-06 Eh
 * total energy  :  -145.8824182 Eh     change       -0.5003525E-06 Eh
 * total energy  :  -145.8824187 Eh     change       -0.4881999E-06 Eh
 * total energy  :  -145.8824191 Eh     change       -0.4683995E-06 Eh
 * total energy  :  -145.8824195 Eh     change       -0.3405150E-06 Eh
 * total energy  :  -145.8824197 Eh     change       -0.2048251E-06 Eh
 * total energy  :  -145.8824198 Eh     change       -0.1306082E-06 Eh
 * total energy  :  -145.8824198 Eh     change       -0.3932627E-08 Eh
   *** GEOMETRY OPTIMIZATION CONVERGED AFTER 22 ITERATIONS ***

 final structure:
================
94
 xtb: 6.7.1 (edcfbbe)
C            2.05184946501639        0.00558431487597       -3.46612061507613
C            2.87521159749712        0.65944441604578       -2.42763213551199
N            4.02476301515936        1.22220090678978       -2.62316423830548
C            4.40657235031735        1.76472094070423       -1.42239958658986
C            5.53120177917020        2.50244939235395       -1.07877619280852
C            5.62860528312044        2.95263811979308        0.22240574597826
C            4.64094607272303        2.68071367992595        1.16947935081172
C            3.51175725715271        1.95238053842301        0.84819488760033
C            3.40960448130550        1.50690014648785       -0.45658179543150
N            2.44408810956001        0.77300960332401       -1.11623123621582
C            1.22124213349254        0.37875771286631       -0.55893090597944
C            0.25276450079160        1.34391262255361       -0.28531085391471
C           -0.95619449016648        0.99309442806331        0.27718393953461
S           -2.14190062322138        2.34994797643621        0.51891626795345
O           -1.79619855665677        3.33998143573588       -0.46361464961231
O           -2.08746318351581        2.74304558848355        1.90359219999334
C           -3.75176253324664        1.68505956732350        0.13484504605367
C           -4.74267966728868        1.63493139909340        1.09355315598794
C           -5.99418607196435        1.15983455908397        0.74623826759347
C           -6.27391835401385        0.73322260473589       -0.55068037747600
C           -7.68004934683654        0.30989809093277       -0.94232864126398
C           -8.39531809365755       -0.39573387802752        0.21593589903311
C           -7.67423931085570       -0.63830560760774       -2.14683282444380
C           -8.44927335392053        1.58838417132115       -1.31075822083036
C           -5.24877197793870        0.79131083940452       -1.49309922236139
C           -3.99346340949992        1.26340069740051       -1.15696523952239
C           -1.23174113556855       -0.33185440779333        0.60067312209612
N           -2.45125937970528       -0.72752242095623        1.16266384587141
C           -2.89326295924486       -0.58081585755578        2.46760179642108
C           -2.08731300440254        0.11383615202577        3.49314611583335
N           -4.03400711012281       -1.15740714134564        2.67329469827739
C           -4.39835374390971       -1.74386877825200        1.48775418667903
C           -5.50764913320765       -2.51179519748852        1.16090313830753
C           -5.58740764574734       -3.00620600194445       -0.12539831774290
C           -4.59747616717121       -2.74820778703780       -1.07397171714632
C           -3.48369355559444       -1.98962075831927       -0.76917997660082
C           -3.39892359454557       -1.50018912802123        0.52099265228720
C           -0.26421087884548       -1.29751774112780        0.32405392484057
C            0.94305735215537       -0.94694062806098       -0.24157197841496
S            2.11015408176627       -2.31016855563736       -0.52987293602243
O            2.02786599105823       -2.66190625395334       -1.92441656793241
O            1.76528045793670       -3.32266469712990        0.42979560212523
C            3.73590858574727       -1.68050028058888       -0.15470154548840
C            4.70916716600975       -1.61481262079687       -1.13038617188080
C            5.97457180506599       -1.17084675525648       -0.79247710696529
C            6.28574707344542       -0.79170099689667        0.51195398533447
C            7.70578182501180       -0.40486686334312        0.89094237938966
C            8.45670959935505       -1.70691499253146        1.21153734616669
C            7.73688938117881        0.50985488473937        2.12076268311064
C            8.41556626163434        0.31900234070283       -0.25932387702911
C            5.27778877661841       -0.86437179960457        1.47179213043079
C            4.00867905202016       -1.30505137070059        1.14511854186274
H            1.06324545501481        0.46253451897128       -3.50566515983036
H            2.54403708692359        0.12029205329066       -4.42665443530226
H            1.93161084382742       -1.05485045748437       -3.24297320576929
H            6.28478755798541        2.72362348117645       -1.81747429682606
H            6.48635382416606        3.53941100705665        0.51746002712538
H            4.75674099596554        3.05818671825756        2.17452999979531
H            2.73851712246867        1.75387970826563        1.57532598122874
H            0.42294565677442        2.38165501676990       -0.53087707332097
H           -4.52691683266688        1.97493361275524        2.09396327047874
H           -6.75679453607382        1.13227279781671        1.50606023146695
H           -7.77711214038142       -1.19954813346479        0.60576629603551
H           -8.62948419166792        0.29210956710913        1.02321847309412
H           -9.33395397382581       -0.81808856830571       -0.13540859564974
H           -7.00103804754251       -1.47276160706968       -1.96833293022762
H           -7.37467812724958       -0.12750647113272       -3.05794920258746
H           -8.67577289775286       -1.03039747212774       -2.30805671582407
H           -8.48417316284288        2.27148647025167       -0.46535449038955
H           -7.96704765624968        2.09876615296767       -2.14145696837937
H           -9.46805065119284        1.34046027659123       -1.59954470384191
H           -5.42110251054768        0.47416048036966       -2.50774429686680
H           -3.20417960876496        1.32688459126139       -1.89047584132920
H           -2.58093193501074        0.01078195707929        4.45428576990350
H           -1.08971175132327       -0.32163104089159        3.54642641929242
H           -1.98763434210661        1.17128613464659        3.24728108631997
H           -6.26297941155062       -2.72154529599410        1.90115782011096
H           -6.43277539765446       -3.61701626989620       -0.40704570553258
H           -4.69877215539054       -3.16092470327162       -2.06665378744617
H           -2.70872583160657       -1.80158044553522       -1.49721937436205
H           -0.43566464093431       -2.33597802653837        0.56575947535638
H            4.46905204558968       -1.91903059307392       -2.13673708206322
H            6.72273265312777       -1.13021443704548       -1.56591274498153
H            7.97821572943570       -2.23134011149076        2.03561834966312
H            9.48440898310504       -1.48581700169315        1.49032130252813
H            8.46536595374549       -2.36673653815286        0.34717200873268
H            7.07368490534173        1.35898396531774        1.97760851142684
H            8.74721186252019        0.88207299108433        2.27403349556315
H            7.44580788590198       -0.02111418431714        3.02304990803694
H            9.36858571886815        0.71210525782697        0.08723989692841
H            8.62177715374493       -0.35011647381034       -1.08965181229636
H            7.80757800490353        1.14593947667398       -0.61536224069911
H            5.47484688183275       -0.58391212330121        2.49273477068302
H            3.23257097973098       -1.38050509618907        1.89139869833620

          :  Hamiltonian                  GFN2-xTB          :
         :: gradient norm              0.000052052313 Eh/a0 ::
         :: HOMO-LUMO gap              2.550929724926 eV    ::
         :: SCC energy              -148.136054352410 Eh    ::
         :: -> dispersion             -0.152455904891 Eh    ::
         :: repulsion energy           2.253634532445 Eh    ::

    * Orbital Energies and Occupations

         #    Occupation            Energy/Eh            Energy/eV
      -------------------------------------------------------------
         1        2.0000           -0.7841586             -21.3380
       ...           ...                  ...                  ...
       121        2.0000           -0.4323001             -11.7635
       122        2.0000           -0.4284239             -11.6580
       123        2.0000           -0.4282801             -11.6541
       124        2.0000           -0.4222212             -11.4892
       125        2.0000           -0.4211357             -11.4597
       126        2.0000           -0.4202941             -11.4368
       127        2.0000           -0.4154720             -11.3056
       128        2.0000           -0.3971408             -10.8068
       129        2.0000           -0.3950056             -10.7486
       130        2.0000           -0.3933913             -10.7047
       131        2.0000           -0.3927428             -10.6871
       132        2.0000           -0.3900792             -10.6146
       133        2.0000           -0.3873811             -10.5412 (HOMO)
       134                         -0.2936362              -7.9902 (LUMO)
       135                         -0.2817875              -7.6678
       136                         -0.2610418              -7.1033
       137                         -0.2601027              -7.0778
       138                         -0.2483195              -6.7571
       139                         -0.2478873              -6.7454
       140                         -0.2467176              -6.7135
       141                         -0.2464161              -6.7053
       142                         -0.2176526              -5.9226
       143                         -0.2162486              -5.8844
       144                         -0.1880702              -5.1177
       ...                                ...                  ...
       260                          1.2044046              32.7735
      -------------------------------------------------------------
                  HL-Gap            0.0937449 Eh            2.5509 eV

     #   Z          covCN         q      C6AA      α(0)
     1   6 C        3.755    -0.133    23.120     6.856
     2   6 C        3.156     0.147    24.537     8.100
     3   7 N        1.888    -0.282    28.158     7.867
     4   6 C        3.191     0.065    26.065     8.327
     5   6 C        2.911    -0.042    29.042     8.837
     6   6 C        2.923    -0.040    28.986     8.829
     7   6 C        2.928    -0.037    28.914     8.818
     8   6 C        2.908    -0.052    29.283     8.873
     9   6 C        3.083     0.031    27.223     8.553
    10   7 N        2.830    -0.074    22.669     7.071
    11   6 C        2.925     0.072    26.390     8.424
    12   6 C        2.977    -0.033    28.806     8.804
    13   6 C        2.965    -0.092    30.308     9.030
    14  16 S        3.814     0.989   106.960    17.407
    15   8 O        0.860    -0.548    24.871     6.686
    16   8 O        0.860    -0.551    24.951     6.697
    17   6 C        2.973    -0.081    30.030     8.989
    18   6 C        2.952    -0.024    28.602     8.772
    19   6 C        2.929    -0.028    28.712     8.787
    20   6 C        2.974     0.022    27.518     8.605
    21   6 C        3.903     0.026    20.078     6.369
    22   6 C        3.761    -0.115    22.750     6.799
    23   6 C        3.760    -0.114    22.734     6.797
    24   6 C        3.763    -0.108    22.612     6.778
    25   6 C        2.928    -0.032    28.786     8.799
    26   6 C        2.966    -0.030    28.740     8.794
    27   6 C        2.925     0.072    26.389     8.424
    28   7 N        2.829    -0.074    22.664     7.071
    29   6 C        3.155     0.147    24.544     8.101
    30   6 C        3.755    -0.134    23.128     6.857
    31   7 N        1.888    -0.282    28.152     7.866
    32   6 C        3.190     0.065    26.068     8.328
    33   6 C        2.911    -0.042    29.042     8.837
    34   6 C        2.923    -0.040    28.983     8.829
    35   6 C        2.928    -0.037    28.911     8.818
    36   6 C        2.908    -0.052    29.279     8.873
    37   6 C        3.083     0.031    27.222     8.553
    38   6 C        2.977    -0.033    28.814     8.805
    39   6 C        2.965    -0.092    30.299     9.029
    40  16 S        3.815     0.989   106.965    17.407
    41   8 O        0.860    -0.552    24.969     6.700
    42   8 O        0.860    -0.548    24.872     6.687
    43   6 C        2.973    -0.081    30.027     8.988
    44   6 C        2.952    -0.024    28.601     8.772
    45   6 C        2.929    -0.028    28.712     8.788
    46   6 C        2.974     0.022    27.517     8.605
    47   6 C        3.903     0.026    20.077     6.369
    48   6 C        3.763    -0.108    22.612     6.778
    49   6 C        3.760    -0.114    22.733     6.797
    50   6 C        3.761    -0.115    22.749     6.799
    51   6 C        2.928    -0.032    28.786     8.799
    52   6 C        2.966    -0.030    28.740     8.793
    53   1 H        0.925     0.053     2.285     2.364
    54   1 H        0.925     0.079     1.990     2.206
    55   1 H        0.924     0.091     1.871     2.139
    56   1 H        0.926     0.049     2.338     2.391
    57   1 H        0.926     0.038     2.481     2.463
    58   1 H        0.926     0.036     2.496     2.471
    59   1 H        0.926     0.023     2.688     2.564
    60   1 H        0.926     0.089     1.887     2.148
    61   1 H        0.926     0.064     2.153     2.294
    62   1 H        0.926     0.062     2.177     2.308
    63   1 H        0.925     0.045     2.384     2.414
    64   1 H        0.925     0.041     2.440     2.443
    65   1 H        0.925     0.044     2.394     2.420
    66   1 H        0.925     0.043     2.414     2.430
    67   1 H        0.925     0.039     2.468     2.457
    68   1 H        0.925     0.044     2.391     2.418
    69   1 H        0.925     0.039     2.460     2.453
    70   1 H        0.925     0.038     2.476     2.461
    71   1 H        0.925     0.048     2.343     2.394
    72   1 H        0.926     0.057     2.239     2.340
    73   1 H        0.926     0.042     2.422     2.433
    74   1 H        0.925     0.079     1.989     2.205
    75   1 H        0.925     0.052     2.290     2.367
    76   1 H        0.924     0.091     1.865     2.135
    77   1 H        0.926     0.049     2.337     2.391
    78   1 H        0.926     0.038     2.478     2.462
    79   1 H        0.926     0.037     2.493     2.469
    80   1 H        0.926     0.024     2.679     2.560
    81   1 H        0.926     0.089     1.886     2.147
    82   1 H        0.926     0.064     2.152     2.294
    83   1 H        0.926     0.062     2.176     2.307
    84   1 H        0.925     0.038     2.476     2.461
    85   1 H        0.925     0.048     2.343     2.394
    86   1 H        0.925     0.039     2.460     2.453
    87   1 H        0.925     0.043     2.414     2.430
    88   1 H        0.925     0.044     2.391     2.418
    89   1 H        0.925     0.039     2.468     2.457
    90   1 H        0.925     0.044     2.395     2.420
    91   1 H        0.925     0.041     2.440     2.443
    92   1 H        0.925     0.045     2.383     2.414
    93   1 H        0.926     0.057     2.240     2.340
    94   1 H        0.926     0.042     2.417     2.431

molecular dipole:
                 x           y           z       tot (Debye)
 q only:        0.020      -0.045       0.016
   full:        0.022      -0.048       0.017       0.140

 projected vibrational frequencies (cm⁻¹)
eigval :       -0.00    -0.00    -0.00    -0.00     0.00     0.00
eigval :        8.38    10.33    16.76    23.30    28.48    32.97
eigval :       33.96    34.73    46.05    60.28    62.01    69.14
eigval :       73.02    75.49    79.09    85.75    86.58   100.05
eigval :      108.67   111.94   123.60   137.74   143.97   154.39
eigval :      162.31   167.45   173.11   176.54   180.11   190.72
eigval :      192.43   199.69   201.03   212.81   223.10   228.53
eigval :      236.75   237.02   239.40   241.76   249.39   255.41
eigval :      265.46   272.61   278.86   293.91   294.56   301.57
eigval :      314.56   316.45   319.27   326.98   337.23   339.53
eigval :      357.32   357.90   364.92   364.98   392.58   393.54
eigval :      407.19   411.80   418.47   419.99   422.96   423.58
eigval :      438.52   459.03   459.09   464.78   487.26   491.87
eigval :      493.10   498.41   508.28   517.97   521.02   533.65
eigval :      540.23   544.84   546.58   567.15   569.69   600.47
eigval :      600.49   603.03   608.76   611.70   612.79   616.39
eigval :      631.85   657.73   658.36   686.78   687.61   689.00
eigval :      690.16   698.96   706.34   706.47   755.35   757.46
eigval :      779.32   779.65   807.86   807.90   819.71   865.93
eigval :      865.99   871.30   871.91   873.72   877.14   880.85
eigval :      883.74   884.21   894.23   901.44   901.83   909.16
eigval :      909.16   922.07   922.10   926.10   926.61   927.77
eigval :      944.25   960.14   960.20   964.39   964.45   965.60
eigval :      965.61   989.27   991.36   999.17  1016.47  1022.41
eigval :     1031.11  1031.15  1033.79  1034.16  1040.42  1040.49
eigval :     1054.97  1057.12  1075.97  1077.77  1099.24  1101.15
eigval :     1127.57  1127.87  1129.08  1134.31  1134.84  1134.92
eigval :     1142.10  1142.26  1170.28  1173.97  1190.36  1195.81
eigval :     1199.60  1199.68  1207.32  1224.54  1224.59  1230.23
eigval :     1235.31  1235.35  1237.62  1239.40  1257.17  1263.53
eigval :     1263.57  1275.42  1281.96  1282.16  1286.07  1286.14
eigval :     1304.21  1306.11  1326.18  1326.35  1330.47  1367.27
eigval :     1367.62  1387.42  1390.26  1390.34  1393.14  1393.28
eigval :     1400.94  1402.18  1402.42  1406.59  1406.65  1419.89
eigval :     1426.95  1427.04  1432.39  1449.72  1450.15  1455.85
eigval :     1455.95  1465.52  1465.57  1469.67  1483.83  1485.05
eigval :     1487.59  1487.67  1491.86  1491.89  1494.29  1494.36
eigval :     1509.44  1509.49  1510.25  1510.28  1516.22  1525.18
eigval :     1525.20  1569.79  1570.42  1580.68  1580.75  1583.20
eigval :     1586.25  1586.39  1596.56  1596.79  1627.04  1628.24
eigval :     3003.83  3004.10  3016.68  3017.69  3029.45  3029.47
eigval :     3032.13  3032.14  3033.26  3033.27  3037.89  3037.94
eigval :     3041.40  3041.42  3046.44  3046.47  3049.01  3049.10
eigval :     3051.39  3051.43  3057.86  3057.91  3073.49  3073.64
eigval :     3075.85  3076.16  3079.95  3080.26  3090.28  3090.61
eigval :     3093.40  3093.55  3096.37  3096.82  3106.55  3106.64
eigval :     3107.18  3107.36  3123.33  3123.50  3125.21  3125.55

   temp. (K)  partition function   enthalpy   heat capacity  entropy
                                   cal/mol     cal/K/mol   cal/K/mol   J/K/mol
 298.15  VIB  0.452E+23            29498.827    178.573    184.391
         ROT  0.846E+08              888.752      2.981     39.255
         INT  0.383E+31            30387.580    181.554    223.646
         TR   0.191E+29             1481.254      4.968     45.627
         TOT                       31868.8338   186.5221   269.2723  1126.6352

       T/K    H(0)-H(T)+PV         H(T)/Eh          T*S/Eh         G(T)/Eh
   ------------------------------------------------------------------------
    298.15    0.507862E-01    0.790621E+00    0.127940E+00    0.662681E+00
   ------------------------------------------------------------------------

         :::::::::::::::::::::::::::::::::::::::::::::::::::::
         ::                  THERMODYNAMIC                  ::
         :::::::::::::::::::::::::::::::::::::::::::::::::::::
         :: total free energy        -145.219738916028 Eh   ::
         ::.................................................::
         :: total energy             -145.882419819964 Eh   ::
         :: zero point energy           0.739834633341 Eh   ::
         :: G(RRHO) w/o ZPVE           -0.077153729406 Eh   ::
         :: G(RRHO) contrib.            0.662680903936 Eh   ::
         :::::::::::::::::::::::::::::::::::::::::::::::::::::

           -------------------------------------------------
          | TOTAL ENERGY             -145.882419819964 Eh   |
          | TOTAL ENTHALPY           -145.091798967345 Eh   |
          | TOTAL FREE ENERGY        -145.219738916028 Eh   |
          | GRADIENT NORM               0.000052067763 Eh/α |
          | HOMO-LUMO GAP               2.550927852397 eV   |
           -------------------------------------------------

 * finished run on 2025/09/07 at 23:29:06.197
