   * xtb version 6.7.1 (edcfbbe) compiled by 'albert@albert-system' on 2024-07-22

   ID    Z sym.   atoms
    1    6 C      1, 2, 4-9, 11-13, 17-27, 29, 30, 32-39, 43-52
    2    7 N      3, 10, 28, 31
    3   16 S      14, 40
    4    8 O      15, 16, 41, 42
    5    1 H      53-94

          program call               : xtb data2507/gas/2Mi2SB/2Mi2SB.xyz --gfn 2 --ohess vtight --parallel 40 --molden --ceasefiles --namespace data2507/gas/2Mi2SB/2Mi2SB_gas_S0_preOpt
          :  Hamiltonian                  GFN2-xTB          :
 * total energy  :  -145.8412152 Eh     change       -0.4298698E-08 Eh
 * total energy  :  -145.8576409 Eh     change       -0.1642564E-01 Eh
 * total energy  :  -145.8625469 Eh     change       -0.4905975E-02 Eh
 * total energy  :  -145.8639281 Eh     change       -0.1381266E-02 Eh
 * total energy  :  -145.8649294 Eh     change       -0.1001303E-02 Eh
 * total energy  :  -145.8654758 Eh     change       -0.5464152E-03 Eh
 * total energy  :  -145.8659108 Eh     change       -0.4349277E-03 Eh
 * total energy  :  -145.8663455 Eh     change       -0.4347162E-03 Eh
 * total energy  :  -145.8667632 Eh     change       -0.4176922E-03 Eh
 * total energy  :  -145.8671533 Eh     change       -0.3901213E-03 Eh
 * total energy  :  -145.8700695 Eh     change       -0.6211740E-06 Eh
 * total energy  :  -145.8700701 Eh     change       -0.5714196E-06 Eh
 * total energy  :  -145.8700706 Eh     change       -0.5282951E-06 Eh
 * total energy  :  -145.8700711 Eh     change       -0.5175224E-06 Eh
 * total energy  :  -145.8700717 Eh     change       -0.5195767E-06 Eh
 * total energy  :  -145.8700722 Eh     change       -0.5587375E-06 Eh
 * total energy  :  -145.8700729 Eh     change       -0.6402213E-06 Eh
 * total energy  :  -145.8700736 Eh     change       -0.7697223E-06 Eh
 * total energy  :  -145.8700736 Eh     change       -0.5228202E-08 Eh
   *** GEOMETRY OPTIMIZATION CONVERGED AFTER 122 ITERATIONS ***

 final structure:
================
94
 xtb: 6.7.1 (edcfbbe)
C            2.53912018064908        3.91108200411980       -3.22712587914078
C            2.62511591956458        4.57624733259849       -1.90474635931556
N            3.28162833005250        5.66274711960078       -1.66877034418241
C            3.12531862180655        5.93342580798659       -0.33006669866837
C            3.59838833589832        6.99053795611455        0.43473971062153
C            3.26275837710090        7.00983932722420        1.77341582694055
C            2.46858904929236        6.01559005728934        2.34348565542397
C            1.98483576461180        4.95652102022731        1.59866545637409
C            2.33962319247861        4.92295472920772        0.26352889841986
N            2.01687355319915        4.05869227560678       -0.76843966596728
C            1.27342523800491        2.89419689851608       -0.65798168467760
C            0.16374158561630        2.68529795430512       -1.48232454947156
C           -0.62283156139371        1.56184606801826       -1.35563608818452
S           -2.00633389703978        1.46383246039072       -2.53723232594722
O           -1.59463200314130        0.60144413306370       -3.61122364218815
O           -2.32597008588275        2.82694012135967       -2.86529220937246
C           -3.36647099872582        0.73281092232368       -1.64560214800899
C           -3.83483667148032        1.37498936370109       -0.51560671064612
C           -4.82722062630565        0.77665639808321        0.23512031029612
C           -5.36277358262846       -0.46053190764126       -0.12717758513748
C           -6.37700043397826       -1.12528732590142        0.78637383382833
C           -5.70832143182387       -1.33665749419390        2.15332860759558
C           -6.83056718173233       -2.48996851388264        0.26361270301294
C           -7.61142999846417       -0.22491991410515        0.92898231317730
C           -4.90904503146885       -1.05229668315758       -1.30095103447948
C           -3.91050853019049       -0.46388188592283       -2.05855490688970
C           -0.33580496968457        0.60276666557027       -0.38656180251459
N           -1.13220550540416       -0.53129407760499       -0.18255576549120
C           -1.88411402403494       -0.80605068463457        0.94439100832121
C           -1.93636829305020        0.11951379216598        2.10024472794076
N           -2.52065387341177       -1.93115990022935        0.86239903521201
C           -2.18745552100954       -2.47607998271258       -0.35397942071995
C           -2.57547535219778       -3.67325509559528       -0.94076570219733
C           -2.06306749456008       -3.96816022339727       -2.18745270889850
C           -1.17646937707836       -3.10905374753021       -2.83802268701632
C           -0.77434373727618       -1.91451405039251       -2.27202045369865
C           -1.30753683448073       -1.60473088271734       -1.03392101941892
C            0.78276694188211        0.79744801364231        0.42187552072895
C            1.58212203596053        1.91213109799861        0.28336868966773
S            3.08124658996936        1.90995907441266        1.30938659038725
O            2.67760710689036        2.09200253494658        2.67703132180766
O            4.06118395567370        2.79134307916163        0.74646489368035
C            3.63862027507122        0.22132119126379        1.09060960588951
C            4.15555129480436       -0.15627548217319       -0.13137612430286
C            4.58454074810466       -1.45933734959760       -0.31928086888571
C            4.50213407614753       -2.39756440547783        0.70626886987332
C            4.96193745897593       -3.83705874806430        0.54255269743125
C            6.06842373225876       -4.12513246981531        1.56739172563480
C            5.51807078121541       -4.12511321381437       -0.85434635260668
C            3.76695063237925       -4.77030553057119        0.78598566634529
C            3.97853446379206       -1.98455818685783        1.93172598514846
C            3.54868677625845       -0.68587112106589        2.12821772995212
H            2.55047919908227        2.82796866526542       -3.12016334377637
H            1.62407713963612        4.19750197049615       -3.74553061296531
H            3.38431659424922        4.23144401453305       -3.82968735472951
H            4.20280414468507        7.76233823783606       -0.01345615946576
H            3.61904365379368        7.81535077097928        2.39851089690840
H            2.22691056562318        6.07140296698926        3.39410682638920
H            1.37855389317673        4.18534774487519        2.04803429300073
H           -0.12661598706839        3.42232107683767       -2.21484615829141
H           -3.41495691999232        2.33079180123507       -0.23927854323582
H           -5.17498553560468        1.27652167001580        1.12541787814016
H           -6.35554440197575       -1.92703884332399        2.79758556967778
H           -4.76366016529580       -1.86109971719811        2.02278656544985
H           -5.51344992798159       -0.38892671739351        2.64787649217619
H           -5.98643649395440       -3.16973925832947        0.18304903530048
H           -7.31705083005212       -2.40035752907591       -0.70482958523188
H           -7.54732113462317       -2.92226975862694        0.95850256977166
H           -8.33761785237395       -0.69330032256683        1.58938436801073
H           -7.35309635751791        0.74565514774986        1.34280811023497
H           -8.07810079082043       -0.06847795799622       -0.04116918314587
H           -5.30857535687478       -1.99500782990214       -1.63297939442583
H           -3.53358360948952       -0.92899054292123       -2.95569878345468
H           -1.02435467784305        0.04809984591759        2.69247748109742
H           -2.04405798841474        1.14883733276355        1.76421332195231
H           -2.77880371110295       -0.15404362537833        2.72779973808349
H           -3.24752069405823       -4.34244876424088       -0.42811135460756
H           -2.34715966074670       -4.88985108263662       -2.67332970103413
H           -0.79483682966286       -3.38460481252641       -3.80922771579914
H           -0.09982550640510       -1.24632966765180       -2.78192398726725
H            1.04128333601299        0.05623422232180        1.16296790908074
H            4.23352078223236        0.57691307104765       -0.91929163355202
H            4.98858074784936       -1.73121887094223       -1.27986380005987
H            6.90389752932537       -3.44430164790934        1.42030211065188
H            6.42883471754321       -5.14419331636381        1.44787426273794
H            5.70981198407847       -4.00961873064086        2.58603398885088
H            4.76241727126739       -3.96305054259475       -1.61925771997715
H            5.83120673539490       -5.16537605076972       -0.90929337889346
H            6.38474175697297       -3.50399446807050       -1.06724905809103
H            2.96737553221470       -4.55224409177448        0.08100833088777
H            4.07166758306153       -5.80552782822948        0.65176628028349
H            3.37345135375984       -4.66070700717626        1.79244836203840
H            3.90469734454807       -2.68178002387818        2.75159824541929
H            3.15352656617502       -0.35530805284461        3.07648118602100

          :  Hamiltonian                  GFN2-xTB          :
         :: gradient norm              0.000082947183 Eh/a0 ::
         :: HOMO-LUMO gap              2.322882030486 eV    ::
         :: SCC energy              -148.123704052991 Eh    ::
         :: -> dispersion             -0.142852845601 Eh    ::
         :: repulsion energy           2.253630412596 Eh    ::

    * Orbital Energies and Occupations

         #    Occupation            Energy/Eh            Energy/eV
      -------------------------------------------------------------
         1        2.0000           -0.7821493             -21.2834
       ...           ...                  ...                  ...
       121        2.0000           -0.4305051             -11.7146
       122        2.0000           -0.4286754             -11.6649
       123        2.0000           -0.4254583             -11.5773
       124        2.0000           -0.4233555             -11.5201
       125        2.0000           -0.4204073             -11.4399
       126        2.0000           -0.4190680             -11.4034
       127        2.0000           -0.4126616             -11.2291
       128        2.0000           -0.3968775             -10.7996
       129        2.0000           -0.3954983             -10.7621
       130        2.0000           -0.3943866             -10.7318
       131        2.0000           -0.3802329             -10.3467
       132        2.0000           -0.3782169             -10.2918
       133        2.0000           -0.3767953             -10.2531 (HOMO)
       134                         -0.2914310              -7.9302 (LUMO)
       135                         -0.2803567              -7.6289
       136                         -0.2635056              -7.1704
       137                         -0.2604099              -7.0861
       138                         -0.2526855              -6.8759
       139                         -0.2489726              -6.7749
       140                         -0.2482668              -6.7557
       141                         -0.2318917              -6.3101
       142                         -0.2164380              -5.8896
       143                         -0.1996469              -5.4327
       144                         -0.1900190              -5.1707
       ...                                ...                  ...
       260                          1.2157865              33.0832
      -------------------------------------------------------------
                  HL-Gap            0.0853643 Eh            2.3229 eV

     #   Z          covCN         q      C6AA      α(0)
     1   6 C        3.755    -0.120    22.846     6.815
     2   6 C        3.155     0.146    24.565     8.105
     3   7 N        1.886    -0.270    27.859     7.825
     4   6 C        3.193     0.071    25.929     8.304
     5   6 C        2.911    -0.039    28.963     8.825
     6   6 C        2.923    -0.037    28.916     8.818
     7   6 C        2.928    -0.031    28.774     8.797
     8   6 C        2.908    -0.047    29.158     8.854
     9   6 C        3.077     0.040    27.030     8.524
    10   7 N        2.828    -0.051    22.215     7.000
    11   6 C        2.922     0.080    26.212     8.396
    12   6 C        2.984    -0.039    28.968     8.829
    13   6 C        2.963    -0.091    30.288     9.027
    14  16 S        3.818     0.981   107.188    17.425
    15   8 O        0.860    -0.544    24.792     6.676
    16   8 O        0.860    -0.549    24.895     6.690
    17   6 C        2.974    -0.080    29.988     8.983
    18   6 C        2.964    -0.032    28.795     8.802
    19   6 C        2.929    -0.029    28.716     8.788
    20   6 C        2.975     0.026    27.417     8.589
    21   6 C        3.903     0.028    20.056     6.366
    22   6 C        3.763    -0.117    22.781     6.804
    23   6 C        3.761    -0.114    22.727     6.796
    24   6 C        3.761    -0.110    22.642     6.783
    25   6 C        2.928    -0.029    28.733     8.791
    26   6 C        2.954    -0.024    28.608     8.773
    27   6 C        2.920     0.066    26.526     8.446
    28   7 N        2.829    -0.071    22.616     7.063
    29   6 C        3.163     0.142    24.606     8.108
    30   6 C        3.755    -0.122    22.885     6.821
    31   7 N        1.885    -0.290    28.381     7.898
    32   6 C        3.196     0.063    26.078     8.325
    33   6 C        2.911    -0.044    29.087     8.844
    34   6 C        2.923    -0.039    28.979     8.828
    35   6 C        2.928    -0.034    28.840     8.807
    36   6 C        2.908    -0.047    29.159     8.854
    37   6 C        3.079     0.028    27.286     8.564
    38   6 C        2.985    -0.043    29.071     8.844
    39   6 C        2.965    -0.096    30.422     9.047
    40  16 S        3.812     0.993   106.862    17.399
    41   8 O        0.860    -0.546    24.829     6.681
    42   8 O        0.860    -0.539    24.659     6.658
    43   6 C        2.971    -0.085    30.121     9.002
    44   6 C        2.960    -0.030    28.743     8.794
    45   6 C        2.926    -0.033    28.832     8.806
    46   6 C        2.974     0.021    27.545     8.609
    47   6 C        3.903     0.026    20.073     6.369
    48   6 C        3.762    -0.110    22.653     6.785
    49   6 C        3.761    -0.113    22.715     6.794
    50   6 C        3.762    -0.110    22.649     6.784
    51   6 C        2.929    -0.030    28.750     8.793
    52   6 C        2.951    -0.030    28.736     8.792
    53   1 H        0.925     0.046     2.375     2.410
    54   1 H        0.925     0.067     2.116     2.275
    55   1 H        0.925     0.081     1.971     2.196
    56   1 H        0.926     0.050     2.315     2.379
    57   1 H        0.926     0.038     2.478     2.462
    58   1 H        0.926     0.039     2.460     2.452
    59   1 H        0.926     0.028     2.616     2.529
    60   1 H        0.926     0.091     1.868     2.137
    61   1 H        0.926     0.040     2.448     2.447
    62   1 H        0.926     0.052     2.295     2.369
    63   1 H        0.925     0.045     2.381     2.413
    64   1 H        0.925     0.058     2.220     2.330
    65   1 H        0.925     0.035     2.520     2.482
    66   1 H        0.925     0.045     2.385     2.415
    67   1 H        0.925     0.038     2.475     2.460
    68   1 H        0.925     0.044     2.398     2.421
    69   1 H        0.925     0.046     2.377     2.411
    70   1 H        0.925     0.038     2.470     2.458
    71   1 H        0.925     0.038     2.482     2.464
    72   1 H        0.926     0.062     2.181     2.309
    73   1 H        0.926     0.060     2.197     2.318
    74   1 H        0.925     0.066     2.128     2.281
    75   1 H        0.925     0.049     2.334     2.389
    76   1 H        0.925     0.080     1.982     2.202
    77   1 H        0.926     0.045     2.379     2.412
    78   1 H        0.926     0.038     2.472     2.459
    79   1 H        0.926     0.041     2.431     2.438
    80   1 H        0.926     0.040     2.444     2.445
    81   1 H        0.926     0.060     2.196     2.317
    82   1 H        0.926     0.046     2.367     2.406
    83   1 H        0.926     0.059     2.210     2.325
    84   1 H        0.925     0.039     2.457     2.451
    85   1 H        0.925     0.046     2.369     2.407
    86   1 H        0.925     0.041     2.441     2.443
    87   1 H        0.925     0.039     2.457     2.451
    88   1 H        0.925     0.045     2.384     2.415
    89   1 H        0.925     0.041     2.436     2.441
    90   1 H        0.925     0.037     2.490     2.468
    91   1 H        0.925     0.047     2.362     2.403
    92   1 H        0.925     0.040     2.449     2.447
    93   1 H        0.926     0.053     2.289     2.366
    94   1 H        0.926     0.060     2.194     2.316

molecular dipole:
                 x           y           z       tot (Debye)
 q only:       -1.006      -3.152       1.009
   full:       -0.894      -3.106       0.947       8.561

 projected vibrational frequencies (cm⁻¹)
eigval :       -0.00    -0.00    -0.00     0.00     0.00     0.00
eigval :        6.17     8.01    14.23    15.71    22.09    26.36
eigval :       30.27    36.94    37.75    45.42    52.00    57.12
eigval :       61.35    64.92    75.67    84.06    91.58    97.65
eigval :      107.70   111.42   113.60   114.47   126.80   138.37
eigval :      142.59   149.36   159.33   162.88   172.78   180.27
eigval :      181.71   191.62   205.41   213.42   215.82   216.11
eigval :      228.54   239.09   243.48   248.32   255.49   264.49
eigval :      274.84   286.81   290.75   300.51   306.55   309.59
eigval :      312.79   317.42   320.63   323.32   332.53   341.17
eigval :      365.09   366.27   374.74   379.57   383.06   388.88
eigval :      398.90   409.32   413.38   414.11   420.03   425.97
eigval :      441.87   458.16   458.99   470.52   472.27   489.21
eigval :      491.42   496.05   505.76   519.92   521.76   532.64
eigval :      542.69   545.34   547.69   565.31   570.12   599.91
eigval :      600.37   602.76   605.16   608.86   611.85   619.53
eigval :      632.61   650.49   662.85   676.86   687.26   690.66
eigval :      691.90   699.14   707.07   710.45   754.72   756.77
eigval :      772.89   774.54   811.75   814.35   816.58   864.33
eigval :      866.06   867.18   874.56   876.11   876.73   880.92
eigval :      883.31   884.20   889.41   898.69   899.35   913.83
eigval :      918.24   920.84   922.00   927.87   930.38   930.86
eigval :      948.37   961.33   962.48   962.98   964.01   964.53
eigval :      971.03   987.77   992.29   994.14  1011.36  1018.93
eigval :     1024.37  1024.77  1035.17  1035.40  1036.39  1039.64
eigval :     1055.66  1059.34  1072.82  1081.35  1101.05  1102.19
eigval :     1127.93  1128.83  1130.36  1131.47  1132.50  1134.33
eigval :     1142.04  1143.36  1168.95  1172.31  1191.87  1197.30
eigval :     1197.35  1201.81  1210.60  1227.40  1228.32  1230.49
eigval :     1232.83  1235.92  1242.93  1253.46  1256.24  1263.29
eigval :     1263.93  1273.64  1282.02  1285.67  1285.94  1287.89
eigval :     1302.49  1311.75  1323.17  1328.46  1331.31  1361.92
eigval :     1362.72  1389.20  1390.12  1391.41  1392.43  1393.03
eigval :     1403.28  1406.00  1406.36  1406.88  1408.04  1415.25
eigval :     1428.65  1430.35  1430.93  1450.95  1451.04  1461.92
eigval :     1464.96  1465.94  1468.30  1472.42  1483.79  1485.92
eigval :     1489.21  1489.84  1491.76  1494.18  1498.90  1500.96
eigval :     1502.84  1503.59  1511.34  1513.20  1513.72  1517.26
eigval :     1518.05  1569.40  1574.52  1581.42  1581.89  1583.47
eigval :     1585.54  1587.77  1595.95  1597.16  1625.76  1627.27
eigval :     2999.74  3003.38  3023.37  3027.34  3027.86  3029.63
eigval :     3030.51  3032.07  3033.04  3033.53  3035.07  3035.71
eigval :     3036.97  3038.44  3041.19  3041.79  3044.90  3045.08
eigval :     3046.79  3051.24  3051.77  3054.96  3062.84  3071.53
eigval :     3080.49  3082.58  3082.92  3088.00  3093.08  3093.78
eigval :     3094.77  3095.55  3098.91  3099.89  3102.81  3105.85
eigval :     3105.97  3106.67  3110.09  3111.88  3124.08  3131.09

   temp. (K)  partition function   enthalpy   heat capacity  entropy
                                   cal/mol     cal/K/mol   cal/K/mol   J/K/mol
 298.15  VIB  0.122E+25            29767.735    177.447    188.195
         ROT  0.937E+08              888.752      2.981     39.458
         INT  0.114E+33            30656.487    180.428    227.653
         TR   0.191E+29             1481.254      4.968     45.627
         TOT                       32137.7411   185.3957   273.2795  1143.4013

       T/K    H(0)-H(T)+PV         H(T)/Eh          T*S/Eh         G(T)/Eh
   ------------------------------------------------------------------------
    298.15    0.512148E-01    0.790549E+00    0.129844E+00    0.660705E+00
   ------------------------------------------------------------------------

         :::::::::::::::::::::::::::::::::::::::::::::::::::::
         ::                  THERMODYNAMIC                  ::
         :::::::::::::::::::::::::::::::::::::::::::::::::::::
         :: total free energy        -145.209368954385 Eh   ::
         ::.................................................::
         :: total energy             -145.870073640394 Eh   ::
         :: zero point energy           0.739333830022 Eh   ::
         :: G(RRHO) w/o ZPVE           -0.078629144012 Eh   ::
         :: G(RRHO) contrib.            0.660704686009 Eh   ::
         :::::::::::::::::::::::::::::::::::::::::::::::::::::

           -------------------------------------------------
          | TOTAL ENERGY             -145.870073640394 Eh   |
          | TOTAL ENTHALPY           -145.079525059935 Eh   |
          | TOTAL FREE ENERGY        -145.209368954385 Eh   |
          | GRADIENT NORM               0.000082946071 Eh/α |
          | HOMO-LUMO GAP               2.322881319900 eV   |
           -------------------------------------------------

 * finished run on 2025/09/07 at 23:18:33.553
