   * xtb version 6.7.1 (edcfbbe) compiled by 'albert@albert-system' on 2024-07-22

   ID    Z sym.   atoms
    1    6 C      1, 2, 4-9, 11-13, 17-27, 29, 30, 32-39, 43-52
    2    7 N      3, 10, 28, 31
    3   16 S      14, 40
    4    8 O      15, 16, 41, 42
    5    1 H      53-94

          program call               : xtb data2507/gas/2Mi2SB/2Mi2SB_gas_S0_finalOpt.xtbopt.xyz --gfn 2 --spinpol --tblite --uhf 2 --ohess vtight --parallel 40 --molden --ceasefiles --namespace data2507/gas/2Mi2SB/2Mi2SB_gas_T1_preOpt
 * total energy  :  -145.7679162 Eh     change       -0.1641209E-07 Eh
 * total energy  :  -145.7733002 Eh     change       -0.5384031E-02 Eh
 * total energy  :  -145.7758773 Eh     change       -0.2577097E-02 Eh
 * total energy  :  -145.7763443 Eh     change       -0.4669486E-03 Eh
 * total energy  :  -145.7768795 Eh     change       -0.5352384E-03 Eh
 * total energy  :  -145.7772554 Eh     change       -0.3758830E-03 Eh
 * total energy  :  -145.7776835 Eh     change       -0.4280696E-03 Eh
 * total energy  :  -145.7780421 Eh     change       -0.3586353E-03 Eh
 * total energy  :  -145.7783272 Eh     change       -0.2850500E-03 Eh
 * total energy  :  -145.7785735 Eh     change       -0.2463476E-03 Eh
 * total energy  :  -145.7796315 Eh     change       -0.1585060E-06 Eh
 * total energy  :  -145.7796316 Eh     change       -0.1698106E-06 Eh
 * total energy  :  -145.7796318 Eh     change       -0.1721758E-06 Eh
 * total energy  :  -145.7796320 Eh     change       -0.1623919E-06 Eh
 * total energy  :  -145.7796322 Eh     change       -0.1769537E-06 Eh
 * total energy  :  -145.7796323 Eh     change       -0.1334707E-06 Eh
 * total energy  :  -145.7796325 Eh     change       -0.1855763E-06 Eh
 * total energy  :  -145.7796326 Eh     change       -0.1036793E-06 Eh
 * total energy  :  -145.7796327 Eh     change       -0.9555686E-07 Eh
   *** GEOMETRY OPTIMIZATION CONVERGED AFTER 68 ITERATIONS ***

 final structure:
================
94
 xtb: 6.7.1 (edcfbbe)
C            1.87053272973170       -0.03373930762759       -3.55499435350645
C            2.73775999990035        0.64046812230804       -2.57245861333746
N            3.86129279728603        1.22555023963101       -2.83966360671015
C            4.29640009133080        1.81031255579022       -1.67607979584593
C            5.43092426736840        2.55679757078136       -1.40923536624352
C            5.58066003468790        3.06272067821766       -0.12678182774070
C            4.63859148188960        2.82180000546232        0.87009489428639
C            3.50206031759704        2.07065193523333        0.62481286177907
C            3.34136227870407        1.57676674013379       -0.65851499210234
N            2.36785671725690        0.79159328028472       -1.23711873403098
C            1.19127192635331        0.40088767416024       -0.62456295673959
C            0.40582654153317        1.33733674162068        0.01371990144378
C           -0.78549531652457        1.01700322454161        0.65415646589958
S           -1.98349666895179        2.34493665682105        0.78375198065725
O           -1.57820748751141        3.36502579457998       -0.14860170393874
O           -2.09987690922976        2.74878457293873        2.16687674349003
C           -3.56089466298230        1.67244677619062        0.26263323953414
C           -4.61897878965426        1.60482707677715        1.14612536458574
C           -5.83713385865567        1.11675067021287        0.71017016326773
C           -6.01810509622556        0.68981756824850       -0.60394176286316
C           -7.38922228615046        0.25560732666732       -1.09648296855276
C           -8.18866311614458       -0.44107746825397        0.01158669804223
C           -7.29031287880650       -0.70482761485162       -2.28712296363041
C           -8.13343616851015        1.52634793485258       -1.53561719312632
C           -4.92673978063414        0.75914155262002       -1.46852785522219
C           -3.70394400046441        1.24481761183906       -1.04191249641531
C           -1.20174694496326       -0.37694180968396        0.68105639725079
N           -2.37588846877093       -0.76858232487514        1.29583184284918
C           -2.75493305685929       -0.59365873230056        2.62616033037395
C           -1.90000664016074        0.10809308009472        3.60008910681137
N           -3.87457256500136       -1.18352923245950        2.89908689125942
C           -4.29768963850820       -1.79596796764761        1.74528014291470
C           -5.42351881152909       -2.55878608539875        1.48846234117626
C           -5.56100384078073       -3.09406272184228        0.21640115032701
C           -4.61619157217609       -2.86456858849643       -0.78039483187073
C           -3.48915432579299       -2.09568610901138       -0.54570003292166
C           -3.33940651329842       -1.57409072829352        0.72803139595923
C           -0.41504053399488       -1.31332988022717        0.04293967526248
C            0.77286425145066       -0.99140711513508       -0.60066619452246
S            1.95529926333124       -2.32599101518466       -0.77710252900675
O            2.03962148107727       -2.70466989525619       -2.16974899618904
O            1.55817632557938       -3.35932084573435        0.14407819309441
C            3.54941325166287       -1.67929425486916       -0.27557369218568
C            4.59090167803716       -1.60918389302835       -1.17841134502625
C            5.82315641555090       -1.14325513940594       -0.75831053083100
C            6.03492821726853       -0.74136453843058        0.55909157125041
C            7.42073056273863       -0.33188480236648        1.03123698967983
C            8.16039796565407       -1.61927589564739        1.42747265544587
C            7.35743972334718        0.60407983210682        2.24357791614426
C            8.20384642805247        0.37983576549612       -0.07894053856919
C            4.96001696473433       -0.81302280990016        1.44381430141677
C            3.72327660812117       -1.27666608361757        1.03314595735093
H            0.85749089664160        0.36218991732352       -3.49345294901600
H            2.27224172591256        0.13002887964931       -4.54996267630252
H            1.83044376242161       -1.10533954507279       -3.35177727158116
H            6.16241118193374        2.73782828379276       -2.18017172943933
H            6.44808025869213        3.66224112110257        0.10693509667001
H            4.78988496960123        3.24171649592640        1.85305108327202
H            2.76469802145466        1.89559537889287        1.39265184527065
H            0.65694580700096        2.38435476457209       -0.07163664015316
H           -4.47906495658912        1.94677893062582        2.15959349247300
H           -6.65302709404769        1.08256096703031        1.41252081924886
H           -7.59893010493599       -1.23562805148526        0.46128889530155
H           -8.49035800216120        0.25606948317872        0.78791882663163
H           -9.09413212599821       -0.87488047233504       -0.40663453808589
H           -6.63714429867779       -1.53976428001371       -2.04716944489029
H           -6.91612586694675       -0.20431821577245       -3.17592674652837
H           -8.27720476596559       -1.09531616380793       -2.52483039662693
H           -8.23230132882653        2.21879808396745       -0.70297483333269
H           -7.59223959542540        2.02919920161287       -2.33388755043859
H           -9.12747746096383        1.27174203409678       -1.89617776543632
H           -5.02229656001470        0.44299092906701       -2.49391318273281
H           -2.86312422169968        1.31515470153305       -1.71544015028996
H           -2.30355240449554       -0.04401100016547        4.59618184762472
H           -0.88157211540145       -0.27512650436269        3.54892598167766
H           -1.87355323091449        1.17660833306760        3.37912756369045
H           -6.15793823094822       -2.72981033653374        2.25886654723483
H           -6.42079108398590       -3.70763943487370       -0.00885900019027
H           -4.75711372018649       -3.30767106588065       -1.75467364313236
H           -2.75108052272954       -1.92804157125585       -1.31444044565173
H           -0.66291492876184       -2.36091959087113        0.13090462947473
H            4.42714903816244       -1.93200351228625       -2.19456080652247
H            6.62552856417542       -1.10652655288753       -1.47594492680466
H            7.63087014218762       -2.13339895874357        2.22639258190394
H            9.16455300674897       -1.38267759839030        1.77191366930559
H            8.23413102185110       -2.29484747941477        0.57852118975398
H            6.70801810806975        1.45047229252560        2.03550864055426
H            8.35325845565279        0.97949821661975        2.46796358634716
H            6.99721024783698        0.08849239708383        3.12954220905813
H            9.12301296590817        0.79468027226979        0.32849683332927
H            8.48071635672972       -0.30351419001844       -0.87648705343493
H            7.61344998606323        1.19017293811595       -0.49847737953438
H            5.07943707606417       -0.51603333162019        2.47240521745623
H            2.89509145823783       -1.34898557371741        1.72193502592971

 projected vibrational frequencies (cm⁻¹)
eigval :       -0.00    -0.00    -0.00    -0.00    -0.00     0.00
eigval :        7.51     8.51    15.99    25.99    30.94    33.12
eigval :       34.45    36.10    48.88    57.63    58.22    66.76
eigval :       71.71    74.97    75.61    83.99    85.23   101.52
eigval :      107.09   111.19   116.24   137.45   145.67   155.05
eigval :      162.13   172.23   172.51   177.59   178.90   193.64
eigval :      195.78   210.15   210.60   220.83   229.80   232.24
eigval :      237.36   237.58   241.29   241.93   247.07   254.05
eigval :      267.91   268.95   275.92   283.10   294.85   300.50
eigval :      313.31   316.62   316.74   325.10   331.62   338.49
eigval :      352.14   353.72   362.17   362.42   370.77   372.74
eigval :      390.49   390.75   405.49   407.39   418.30   421.52
eigval :      422.91   458.66   458.98   461.67   478.22   482.31
eigval :      484.95   489.00   499.09   504.16   509.39   528.70
eigval :      529.89   539.95   542.14   552.75   554.20   579.95
eigval :      589.69   592.06   600.42   600.54   604.22   607.39
eigval :      614.26   614.52   639.15   651.63   673.87   680.04
eigval :      687.28   687.52   702.42   704.02   752.03   754.79
eigval :      775.11   775.53   795.37   805.60   805.81   840.65
eigval :      850.53   861.58   862.58   865.96   866.31   869.10
eigval :      870.89   883.26   883.36   902.04   902.23   908.48
eigval :      908.58   909.20   920.67   920.92   922.91   922.99
eigval :      936.69   959.65   959.68   963.34   963.71   963.79
eigval :      965.06   965.07   990.23   991.29  1008.44  1016.84
eigval :     1021.46  1024.26  1030.58  1030.73  1031.05  1033.63
eigval :     1039.93  1039.96  1055.40  1055.73  1084.80  1086.28
eigval :     1100.56  1113.35  1120.51  1120.73  1135.12  1135.17
eigval :     1140.02  1140.21  1151.47  1161.96  1167.87  1178.58
eigval :     1184.81  1199.79  1199.91  1213.01  1215.35  1216.62
eigval :     1224.55  1224.60  1232.39  1234.87  1234.89  1250.44
eigval :     1256.00  1264.75  1264.76  1268.94  1274.71  1278.95
eigval :     1285.89  1286.04  1297.76  1309.03  1323.44  1323.55
eigval :     1353.38  1356.04  1382.30  1387.87  1389.57  1389.93
eigval :     1390.74  1393.76  1401.26  1402.01  1402.31  1406.38
eigval :     1406.45  1414.29  1425.99  1426.04  1436.22  1437.97
eigval :     1438.98  1440.98  1445.40  1445.53  1464.75  1465.08
eigval :     1467.85  1468.55  1487.18  1487.23  1491.96  1491.99
eigval :     1493.46  1493.63  1509.09  1509.12  1510.01  1510.08
eigval :     1524.73  1524.78  1541.33  1542.43  1577.99  1578.20
eigval :     1581.26  1581.58  1582.91  1583.10  1609.67  1609.98
eigval :     2994.29  2994.52  3012.98  3013.65  3028.82  3028.83
eigval :     3031.08  3031.09  3033.05  3033.08  3037.12  3037.21
eigval :     3041.57  3041.59  3046.07  3046.16  3048.14  3048.22
eigval :     3050.98  3050.99  3051.79  3052.07  3072.44  3072.82
eigval :     3083.37  3083.43  3086.81  3087.12  3087.70  3087.77
eigval :     3090.49  3090.77  3099.39  3099.62  3104.23  3104.39
eigval :     3110.02  3110.42  3119.05  3119.26  3121.80  3121.84

   temp. (K)  partition function   enthalpy   heat capacity  entropy
                                   cal/mol     cal/K/mol   cal/K/mol   J/K/mol
 298.15  VIB  0.727E+23            29782.566    180.553    186.188
         ROT  0.829E+08              888.752      2.981     39.214
         INT  0.602E+31            30671.318    183.534    225.402
         TR   0.191E+29             1481.254      4.968     45.627
         TOT                       32152.5722   188.5022   271.0286  1133.9836

       T/K    H(0)-H(T)+PV         H(T)/Eh          T*S/Eh         G(T)/Eh
   ------------------------------------------------------------------------
    298.15    0.512384E-01    0.786459E+00    0.128774E+00    0.657684E+00
   ------------------------------------------------------------------------

         :::::::::::::::::::::::::::::::::::::::::::::::::::::
         ::                  THERMODYNAMIC                  ::
         :::::::::::::::::::::::::::::::::::::::::::::::::::::
         :: total free energy        -145.121948203945 Eh   ::
         ::.................................................::
         :: total energy             -145.779632676804 Eh   ::
         :: zero point energy           0.735220513445 Eh   ::
         :: G(RRHO) w/o ZPVE           -0.077536040586 Eh   ::
         :: G(RRHO) contrib.            0.657684472859 Eh   ::
         :::::::::::::::::::::::::::::::::::::::::::::::::::::

           -------------------------------------------------
          | TOTAL ENERGY             -145.779632676804 Eh   |
          | TOTAL ENTHALPY           -144.993173778118 Eh   |
          | TOTAL FREE ENERGY        -145.121948203945 Eh   |
          | GRADIENT NORM               0.000080556241 Eh/α |
           -------------------------------------------------

 * finished run on 2025/09/07 at 23:29:23.903
