   * xtb version 6.7.1 (edcfbbe) compiled by 'albert@albert-system' on 2024-07-22

   ID    Z sym.   atoms
    1    6 C      1-6, 8-16, 18-38, 40-51
    2    5 B      7
    3    7 N      17, 39
    4    1 H      52-92

          program call               : xtb data2507/toluene/BCzBMes/BCzBMes_toluene_T1_crest.xyz --gfn 2 --uhf 2 --gbsa toluene --ohess vtight --parallel 40 --molden --ceasefiles --namespace data2507/toluene/BCzBMes/BCzBMes_toluene_T1_finalOpt
      * Solvation model:               GBSA
        Solvent                        toluene
        Solvent mass                       9.2140E+01 g/mol
          :  Hamiltonian                  GFN2-xTB          :
 * total energy  :  -130.8442043 Eh     change       -0.1133230E-08 Eh
 * total energy  :  -130.8443132 Eh     change       -0.1088861E-03 Eh
 * total energy  :  -130.8443692 Eh     change       -0.5598905E-04 Eh
 * total energy  :  -130.8443808 Eh     change       -0.1162011E-04 Eh
 * total energy  :  -130.8443892 Eh     change       -0.8450590E-05 Eh
 * total energy  :  -130.8443941 Eh     change       -0.4872045E-05 Eh
 * total energy  :  -130.8444051 Eh     change       -0.1094424E-04 Eh
 * total energy  :  -130.8444091 Eh     change       -0.4013387E-05 Eh
 * total energy  :  -130.8444125 Eh     change       -0.3404618E-05 Eh
 * total energy  :  -130.8444147 Eh     change       -0.2181116E-05 Eh
 * total energy  :  -130.8444596 Eh     change       -0.2092143E-06 Eh
 * total energy  :  -130.8444599 Eh     change       -0.3109679E-06 Eh
 * total energy  :  -130.8444604 Eh     change       -0.4618826E-06 Eh
 * total energy  :  -130.8444607 Eh     change       -0.3539090E-06 Eh
 * total energy  :  -130.8444610 Eh     change       -0.2698384E-06 Eh
 * total energy  :  -130.8444613 Eh     change       -0.2584523E-06 Eh
 * total energy  :  -130.8444617 Eh     change       -0.3800874E-06 Eh
 * total energy  :  -130.8444626 Eh     change       -0.9298898E-06 Eh
 * total energy  :  -130.8444627 Eh     change       -0.8231063E-07 Eh
   *** GEOMETRY OPTIMIZATION CONVERGED AFTER 68 ITERATIONS ***

 final structure:
================
92
 xtb: 6.7.1 (edcfbbe)
C           -9.20908133143904       -1.90387450916128       -1.98776803748666
C           -7.91826556244054       -1.34903885131646       -1.46399964325170
C           -6.70109867622159       -1.68072591523195       -2.04013567072620
C           -5.50692240593670       -1.15291785674117       -1.57505865297681
C           -4.23763672983318       -1.54803250475166       -2.27691663302449
C           -5.49406567069847       -0.26380648489415       -0.48253815703887
B           -4.15203172964328        0.33457726800747        0.06357224095516
C           -3.96011853376137        1.86633517892761        0.33149940463380
C           -4.35475974298105        2.83297942643248       -0.61897947958453
C           -4.97554062983886        2.42207390626824       -1.92377795075123
C           -4.14283702542428        4.17916058282954       -0.38178468480366
C           -3.55692279260563        4.63187091662192        0.79526007200514
C           -3.33112786406298        6.09691588219418        1.02062829430633
C           -3.18996887692147        3.68687660056235        1.74134454886034
C           -3.38786534572504        2.33093569051276        1.53283321052463
C           -2.98808258304530        1.38527713316050        2.63079116140786
N           -3.03371559104098       -0.55596264411515        0.32051831485977
C           -3.11393079910523       -1.85550720972731        0.82680884502207
C           -4.23519453479835       -2.57499728647456        1.20168406620915
C           -4.05478013858738       -3.85878314833088        1.69992500347478
C           -2.78730728923436       -4.40964459083955        1.83568883882356
C           -1.65749122514654       -3.68572187506359        1.48767648765391
C           -1.81956827239049       -2.40279404150295        0.98942084413604
C           -0.89470729967459       -1.38837673289953        0.55448601987909
C            0.46931620610496       -1.33217651488326        0.49007251250628
C            1.11581242757108       -0.15912453270415        0.01541561166316
C            2.53647764761029       -0.06169535834899       -0.03742385785140
C            3.18987681258431        1.20986959377110       -0.09756471799425
C            4.54842768613222        1.34751697621949       -0.16335790824033
C            5.33686133146405        0.19071533478126       -0.19437053615807
C            4.72593199746033       -1.09218338492490       -0.09633666434046
C            3.36281854933336       -1.21953250797810       -0.01669224627946
C            5.80601581619151       -2.04903324674853       -0.09711147727731
C            5.85148799751994       -3.43238215723270       -0.03908702018523
C            7.08777270017942       -4.05827039583361       -0.08255165206734
C            8.25927319391844       -3.31903092330232       -0.19779457522935
C            8.23741179750149       -1.93451910977549       -0.25791176723357
C            7.00448698431375       -1.30360619739413       -0.18707127532462
N            6.69992674287419        0.04717513605903       -0.24624716608271
C            7.62827679403174        1.08853476142654       -0.37314438343890
C            7.45281358103081        2.06592597532011       -1.35211705963338
C            8.36731256004667        3.09488906006009       -1.47041422087780
C            9.46377640164219        3.15873602776842       -0.62376372696824
C            9.64013782911154        2.18655545263651        0.34912818352819
C            8.72848859955233        1.15653144241121        0.48085401266705
C            0.27516529186251        0.92050078139108       -0.42917062593798
C           -1.08704907816815        0.86810520964301       -0.37963228604929
C           -1.70665623543138       -0.27523676127642        0.15076917334896
C           -6.73499697042694        0.08276210498410        0.09184688338015
C           -6.80437828617386        1.01844507412601        1.26503368345857
C           -7.91070923798639       -0.46162566423224       -0.39411438157004
H           -9.03004055411877       -2.75434290363772       -2.64179024763821
H           -9.74294121721267       -1.14104998098329       -2.55679728955099
H           -9.85366594578245       -2.21870364603137       -1.16826786795145
H           -6.68297334524081       -2.36358222842356       -2.87971448838436
H           -3.52724602204259       -0.72486199133656       -2.30619355799376
H           -4.44972808220684       -1.86288518301085       -3.29723956199983
H           -3.76273284897235       -2.38410535822005       -1.76136416453809
H           -5.98717281922213        2.05056361823006       -1.76707024581307
H           -4.40379708104591        1.62309198711809       -2.39110862832172
H           -5.02254227904973        3.26632570593829       -2.60886983335605
H           -4.43997580951415        4.90212903133987       -1.13074137819425
H           -3.05064270996804        6.29318750325575        2.05302578270594
H           -4.23037821634775        6.66537759868321        0.78616368771505
H           -2.53117356171616        6.45826307879443        0.37260249415868
H           -2.74420469597593        4.01563751134396        2.67133850546581
H           -3.02336812100494        1.88844126875969        3.59558210389117
H           -1.96743098198324        1.03156267796269        2.47590199988250
H           -3.64220506004590        0.51680579323190        2.66635360001748
H           -5.22400232882558       -2.15699060399758        1.10329009890276
H           -4.92006471841510       -4.43612508732783        1.99061680479456
H           -2.68151116139344       -5.41131488796679        2.22614630443290
H           -0.67138402993595       -4.11001428052120        1.60422926839036
H            1.05065489743239       -2.16977049954877        0.84149368124211
H            2.58782579120132        2.10224937377011       -0.03786760694492
H            5.00407601013276        2.32643872115197       -0.17103651448068
H            2.92467199908762       -2.20324688863477        0.02283160509045
H            4.94198604446507       -4.00950601175994        0.03232256727829
H            7.14281503948700       -5.13586697733575       -0.03623205734984
H            9.20804151725909       -3.83296136712576       -0.24619740928634
H            9.15190008398887       -1.37202319230848       -0.36636110909228
H            6.61060994737552        1.99936391204334       -2.02471630568240
H            8.22821126757525        3.84727008071155       -2.23270470883338
H           10.17704595464335        3.96309121129689       -0.72134103703768
H           10.48856294390101        2.23625864327488        1.01565270153596
H            8.84806168312919        0.41405956927686        1.25563045738049
H            0.73955336125665        1.78739128132854       -0.87076476367391
H           -1.68449748955178        1.68929394083114       -0.74357283498001
H           -6.06870169258868        0.74964000834850        2.02013787118661
H           -7.79452523429920        0.99577045483178        1.71607248544962
H           -6.59293741524846        2.04019395668316        0.95251593079530
H           -8.85062133754152       -0.19229499391797        0.07044902081925

          :  Hamiltonian                  GFN2-xTB          :
         :: gradient norm              0.000047808318 Eh/a0 ::
         :: HOMO-LUMO gap              0.201623533801 eV    ::
         :: SCC energy              -133.246323223572 Eh    ::
         :: -> dispersion             -0.127984830977 Eh    ::
         :: -> Gsolv                  -0.050458160643 Eh    ::
         :: repulsion energy           2.401860514385 Eh    ::

    * Orbital Energies and Occupations

         #    Occupation            Energy/Eh            Energy/eV
      -------------------------------------------------------------
         1        2.0000           -0.6819646             -18.5572
       ...           ...                  ...                  ...
       112        2.0000           -0.4060733             -11.0498
       113        2.0000           -0.4007517             -10.9050
       114        2.0000           -0.3985776             -10.8458
       115        2.0000           -0.3868562             -10.5269
       116        2.0000           -0.3838181             -10.4442
       117        2.0000           -0.3786059             -10.3024
       118        2.0000           -0.3769628             -10.2577
       119        2.0000           -0.3753231             -10.2131
       120        2.0000           -0.3738353             -10.1726
       121        1.9999           -0.3652506              -9.9390
       122        1.9996           -0.3641857              -9.9100
       123        1.0006           -0.3496908              -9.5156
       124        0.9782           -0.2551994              -6.9443 (HOMO)
       125        0.0181           -0.2477895              -6.7427 (LUMO)
       126        0.0037           -0.2462588              -6.7010
       127        0.0000           -0.2383251              -6.4852
       128                         -0.2348478              -6.3905
       129                         -0.2322368              -6.3195
       130                         -0.2159122              -5.8753
       131                         -0.2061603              -5.6099
       132                         -0.2054141              -5.5896
       133                         -0.2011437              -5.4734
       134                         -0.1988859              -5.4120
       135                         -0.1902992              -5.1783
       ...                                ...                  ...
       245                          0.7578842              20.6231
      -------------------------------------------------------------
                  HL-Gap            0.0074099 Eh            0.2016 eV

     #   Z          covCN         q      C6AA      α(0)
     1   6 C        3.757    -0.105    22.552     6.771
     2   6 C        2.962     0.004    27.933     8.669
     3   6 C        2.928    -0.058    29.448     8.899
     4   6 C        2.965     0.006    27.894     8.663
     5   6 C        3.758    -0.104    22.541     6.769
     6   6 C        2.888    -0.084    30.088     8.993
     7   5 B        2.652     0.229    18.184     7.185
     8   6 C        2.888    -0.083    30.083     8.992
     9   6 C        2.965     0.004    27.924     8.668
    10   6 C        3.758    -0.109    22.626     6.782
    11   6 C        2.928    -0.060    29.479     8.904
    12   6 C        2.962     0.004    27.935     8.669
    13   6 C        3.757    -0.105    22.550     6.771
    14   6 C        2.928    -0.058    29.438     8.898
    15   6 C        2.965     0.005    27.897     8.664
    16   6 C        3.758    -0.104    22.529     6.767
    17   7 N        2.705    -0.078    22.757     7.085
    18   6 C        3.088     0.053    26.710     8.472
    19   6 C        2.911    -0.046    29.151     8.853
    20   6 C        2.922    -0.036    28.900     8.816
    21   6 C        2.919    -0.037    28.926     8.820
    22   6 C        2.912    -0.035    28.879     8.812
    23   6 C        3.055    -0.015    28.333     8.729
    24   6 C        3.049    -0.014    28.320     8.728
    25   6 C        2.911    -0.039    28.958     8.824
    26   6 C        2.969     0.001    27.995     8.679
    27   6 C        2.968     0.001    27.994     8.679
    28   6 C        2.923    -0.043    29.062     8.841
    29   6 C        2.903    -0.047    29.154     8.853
    30   6 C        3.070     0.037    27.096     8.535
    31   6 C        3.052    -0.013    28.298     8.724
    32   6 C        2.913    -0.041    29.013     8.833
    33   6 C        3.062    -0.014    28.310     8.725
    34   6 C        2.912    -0.033    28.826     8.804
    35   6 C        2.919    -0.039    28.958     8.825
    36   6 C        2.923    -0.034    28.838     8.806
    37   6 C        2.910    -0.048    29.195     8.860
    38   6 C        3.071     0.046    26.904     8.505
    39   7 N        2.799    -0.020    21.639     6.909
    40   6 C        2.913     0.059    26.666     8.468
    41   6 C        2.921    -0.041    29.023     8.834
    42   6 C        2.919    -0.028    28.690     8.784
    43   6 C        2.919    -0.033    28.826     8.804
    44   6 C        2.919    -0.028    28.690     8.784
    45   6 C        2.921    -0.042    29.036     8.836
    46   6 C        2.919    -0.050    29.243     8.868
    47   6 C        2.903    -0.044    29.102     8.845
    48   6 C        3.082     0.041    27.001     8.519
    49   6 C        2.965     0.004    27.934     8.669
    50   6 C        3.758    -0.109    22.625     6.781
    51   6 C        2.928    -0.059    29.473     8.903
    52   1 H        0.925     0.037     2.496     2.471
    53   1 H        0.924     0.041     2.432     2.439
    54   1 H        0.925     0.039     2.460     2.453
    55   1 H        0.925     0.016     2.789     2.611
    56   1 H        0.925     0.034     2.528     2.487
    57   1 H        0.925     0.035     2.512     2.478
    58   1 H        0.924     0.038     2.479     2.462
    59   1 H        0.925     0.044     2.396     2.421
    60   1 H        0.925     0.039     2.467     2.456
    61   1 H        0.925     0.035     2.522     2.483
    62   1 H        0.925     0.017     2.781     2.608
    63   1 H        0.925     0.036     2.500     2.472
    64   1 H        0.925     0.039     2.457     2.451
    65   1 H        0.924     0.042     2.429     2.437
    66   1 H        0.925     0.016     2.791     2.612
    67   1 H        0.925     0.035     2.516     2.481
    68   1 H        0.924     0.037     2.483     2.464
    69   1 H        0.925     0.033     2.548     2.496
    70   1 H        0.926     0.040     2.449     2.447
    71   1 H        0.926     0.032     2.552     2.498
    72   1 H        0.926     0.032     2.554     2.499
    73   1 H        0.926     0.033     2.543     2.494
    74   1 H        0.926     0.036     2.507     2.476
    75   1 H        0.926     0.036     2.504     2.475
    76   1 H        0.926     0.034     2.535     2.490
    77   1 H        0.926     0.037     2.494     2.470
    78   1 H        0.926     0.035     2.521     2.483
    79   1 H        0.926     0.033     2.544     2.494
    80   1 H        0.926     0.035     2.519     2.482
    81   1 H        0.926     0.036     2.498     2.471
    82   1 H        0.926     0.043     2.411     2.428
    83   1 H        0.926     0.041     2.436     2.441
    84   1 H        0.926     0.040     2.455     2.450
    85   1 H        0.926     0.041     2.433     2.439
    86   1 H        0.926     0.043     2.407     2.426
    87   1 H        0.926     0.031     2.575     2.509
    88   1 H        0.926     0.034     2.524     2.484
    89   1 H        0.925     0.038     2.472     2.459
    90   1 H        0.925     0.035     2.519     2.482
    91   1 H        0.925     0.044     2.396     2.421
    92   1 H        0.925     0.017     2.781     2.608

molecular dipole:
                 x           y           z       tot (Debye)
 q only:        2.403       0.023      -0.026
   full:        2.399       0.083      -0.041       6.101

 projected vibrational frequencies (cm⁻¹)
eigval :       -0.00    -0.00    -0.00     0.00     0.00     0.00
eigval :      -96.93     9.17    12.58    17.46    25.90    27.50
eigval :       35.77    36.78    41.42    53.51    62.16    64.41
eigval :       66.70    78.27    89.56    91.04    99.96   101.52
eigval :      103.59   112.15   121.38   125.45   134.06   137.70
eigval :      145.90   159.76   165.63   167.05   171.04   183.18
eigval :      187.07   201.33   204.52   206.76   216.82   239.50
eigval :      252.33   268.03   274.45   274.61   277.84   290.54
eigval :      310.17   319.31   322.86   324.62   343.61   358.23
eigval :      378.46   382.03   390.10   392.04   398.85   406.28
eigval :      417.76   430.51   453.05   465.38   473.18   480.64
eigval :      485.84   493.52   494.57   500.44   508.81   515.87
eigval :      519.89   524.26   534.86   538.38   550.66   553.03
eigval :      559.98   570.49   586.58   587.38   591.18   596.19
eigval :      596.40   598.11   602.79   611.77   627.52   660.38
eigval :      661.52   667.14   670.39   674.11   678.73   701.07
eigval :      703.67   713.23   757.22   761.96   770.23   775.04
eigval :      784.16   798.20   800.90   818.40   826.57   835.26
eigval :      840.00   843.03   852.11   862.72   867.62   875.43
eigval :      878.87   880.76   884.07   893.09   894.55   897.92
eigval :      899.00   903.43   906.39   917.97   918.37   920.57
eigval :      927.29   930.24   960.54   961.97   974.96   975.47
eigval :      990.11   994.27  1003.94  1013.67  1016.29  1019.10
eigval :     1025.75  1026.53  1028.21  1028.33  1030.39  1030.86
eigval :     1032.07  1034.76  1040.24  1043.12  1044.98  1067.11
eigval :     1069.57  1076.32  1081.53  1111.99  1118.96  1122.78
eigval :     1137.60  1148.17  1150.09  1172.15  1175.51  1175.99
eigval :     1177.95  1192.90  1199.15  1200.92  1208.04  1210.73
eigval :     1219.84  1234.08  1234.92  1236.26  1240.87  1252.16
eigval :     1257.30  1261.71  1273.10  1290.15  1301.87  1307.62
eigval :     1309.61  1316.92  1318.24  1318.72  1321.91  1331.24
eigval :     1339.02  1348.64  1357.34  1362.31  1376.04  1400.40
eigval :     1400.75  1401.00  1401.72  1403.51  1409.58  1416.45
eigval :     1418.62  1425.46  1426.69  1428.37  1430.13  1432.16
eigval :     1441.89  1452.04  1458.67  1462.86  1468.70  1474.65
eigval :     1476.40  1477.54  1480.09  1480.44  1481.99  1484.03
eigval :     1485.42  1487.27  1489.28  1489.84  1490.51  1492.17
eigval :     1494.17  1530.91  1531.73  1534.24  1551.74  1553.03
eigval :     1561.70  1570.15  1572.40  1577.44  1579.19  1587.07
eigval :     1591.20  2980.90  2983.95  2984.25  2985.32  3007.10
eigval :     3008.91  3010.84  3012.96  3018.67  3019.08  3022.03
eigval :     3023.05  3025.86  3027.62  3028.65  3029.77  3032.53
eigval :     3033.64  3045.96  3047.00  3049.42  3050.34  3073.20
eigval :     3075.84  3077.51  3078.98  3079.93  3080.39  3081.78
eigval :     3089.03  3089.66  3090.47  3092.42  3093.11  3094.11
eigval :     3096.10  3098.68  3102.36  3106.32  3109.31  3109.81

   temp. (K)  partition function   enthalpy   heat capacity  entropy
                                   cal/mol     cal/K/mol   cal/K/mol   J/K/mol
 298.15  VIB  0.504E+21            26826.637    165.701    168.128
         ROT  0.116E+09              888.752      2.981     39.883
         INT  0.585E+29            27715.389    168.681    208.011
         TR   0.163E+29             1481.254      4.968     45.307
         TOT                       29196.6428   173.6495   253.3186  1059.8849

       T/K    H(0)-H(T)+PV         H(T)/Eh          T*S/Eh         G(T)/Eh
   ------------------------------------------------------------------------
    298.15    0.465278E-01    0.776487E+00    0.120360E+00    0.656127E+00
   ------------------------------------------------------------------------

         :::::::::::::::::::::::::::::::::::::::::::::::::::::
         ::                  THERMODYNAMIC                  ::
         :::::::::::::::::::::::::::::::::::::::::::::::::::::
         :: total free energy        -130.188335512421 Eh   ::
         ::.................................................::
         :: total energy             -130.844462711830 Eh   ::
         :: zero point energy           0.729959213385 Eh   ::
         :: G(RRHO) w/o ZPVE           -0.073832013976 Eh   ::
         :: G(RRHO) contrib.            0.656127199409 Eh   ::
         :::::::::::::::::::::::::::::::::::::::::::::::::::::

           -------------------------------------------------
          | TOTAL ENERGY             -130.844462711830 Eh   |
          | TOTAL ENTHALPY           -130.067975686545 Eh   |
          | TOTAL FREE ENERGY        -130.188335512421 Eh   |
          | GRADIENT NORM               0.000047645358 Eh/α |
          | HOMO-LUMO GAP               0.201633170767 eV   |
           -------------------------------------------------

 * finished run on 2025/07/19 at 04:12:02.958
