   * xtb version 6.7.1 (edcfbbe) compiled by 'albert@albert-system' on 2024-07-22

   ID    Z sym.   atoms
    1    6 C      1-6, 8-16, 18-38, 40-51
    2    5 B      7
    3    7 N      17, 39
    4    1 H      52-92

          program call               : xtb data2507/toluene/BCzBMes/BCzBMes.xyz --gfn 2 --gbsa toluene --ohess vtight --parallel 40 --molden --ceasefiles --namespace data2507/toluene/BCzBMes/BCzBMes_toluene_S0_preOpt
      * Solvation model:               GBSA
        Solvent                        toluene
        Solvent mass                       9.2140E+01 g/mol
          :  Hamiltonian                  GFN2-xTB          :
 * total energy  :  -130.8720905 Eh     change       -0.1095714E-08 Eh
 * total energy  :  -130.9179282 Eh     change       -0.4583767E-01 Eh
 * total energy  :  -130.9308313 Eh     change       -0.1290318E-01 Eh
 * total energy  :  -130.9335855 Eh     change       -0.2754129E-02 Eh
 * total energy  :  -130.9352956 Eh     change       -0.1710137E-02 Eh
 * total energy  :  -130.9361985 Eh     change       -0.9028794E-03 Eh
 * total energy  :  -130.9370261 Eh     change       -0.8275911E-03 Eh
 * total energy  :  -130.9378673 Eh     change       -0.8411731E-03 Eh
 * total energy  :  -130.9386699 Eh     change       -0.8026546E-03 Eh
 * total energy  :  -130.9394040 Eh     change       -0.7340777E-03 Eh
 * total energy  :  -130.9446793 Eh     change       -0.1387816E-05 Eh
 * total energy  :  -130.9446806 Eh     change       -0.1325899E-05 Eh
 * total energy  :  -130.9446819 Eh     change       -0.1224249E-05 Eh
 * total energy  :  -130.9446830 Eh     change       -0.1129717E-05 Eh
 * total energy  :  -130.9446841 Eh     change       -0.1066902E-05 Eh
 * total energy  :  -130.9446851 Eh     change       -0.1064683E-05 Eh
 * total energy  :  -130.9446863 Eh     change       -0.1123762E-05 Eh
 * total energy  :  -130.9446875 Eh     change       -0.1244978E-05 Eh
 * total energy  :  -130.9446875 Eh     change       -0.4751143E-08 Eh
   *** GEOMETRY OPTIMIZATION CONVERGED AFTER 152 ITERATIONS ***

 final structure:
================
92
 xtb: 6.7.1 (edcfbbe)
C           -8.49026035912626       -1.91025041510760       -2.94521894202292
C           -7.26756516190521       -1.45224248502679       -2.20842681295760
C           -6.01957117569143       -1.48442051513603       -2.81231877678669
C           -4.88009937757623       -1.04882528569988       -2.15290567412394
C           -3.56736978971167       -1.13064882618079       -2.88126651856167
C           -4.96389233663541       -0.55296630537430       -0.84037315806695
B           -3.66197588566357       -0.01105152437737       -0.13113792042648
C           -3.59755847615503        1.46716837831294        0.41789271419624
C           -3.86678762273636        2.58483184419588       -0.38814997602143
C           -4.13267762803777        2.42432870938010       -1.85690118789972
C           -3.84831128134138        3.86206938956293        0.15235087735487
C           -3.57860064703022        4.07948718829212        1.49528676183379
C           -3.59497407416777        5.46256465947245        2.07358821433413
C           -3.31712642656071        2.97576365083263        2.29313677984850
C           -3.31915665721666        1.68833182310586        1.77759500908025
C           -3.00937783639105        0.55013281840350        2.70959025576802
N           -2.52740516700504       -0.86989010594663        0.00689391856542
C           -2.53676369771716       -2.26557780432448        0.06570859173745
C           -3.61443128108856       -3.13811089168981        0.10818101715009
C           -3.35765598077662       -4.49479579597126        0.19926630799459
C           -2.05804228618042       -4.98758257876831        0.26672141994490
C           -0.97857969993364       -4.12566343535194        0.25715700040101
C           -1.21926559301468       -2.76234367352714        0.16199833000908
C           -0.35047051982971       -1.61563944223901        0.14913818314317
C            1.02832482580552       -1.48554382198715        0.17639373285584
C            1.59245920113936       -0.21711661505056        0.11135761799117
C            3.05494785265479       -0.05453550308197        0.11559651793291
C            3.66131191422153        0.86502826851006       -0.75208127647148
C            5.02950617816656        1.03449657970744       -0.80306542711903
C            5.81500853695564        0.25754008169493        0.03713832489828
C            5.22283057563400       -0.65620215310360        0.93938951746452
C            3.84523831282804       -0.81381663126234        0.96916550851859
C            6.30020279944015       -1.24989059970503        1.68191227509197
C            6.35657625460202       -2.21258874471927        2.68167944470082
C            7.59168659385131       -2.58325075288144        3.17550680035102
C            8.76264304818929       -2.01708559176591        2.67486006226922
C            8.73258873760093       -1.05796964809151        1.68044020866062
C            7.49281350661277       -0.66405756611858        1.19632511335836
N            7.18494672667005        0.24380857132633        0.20297772363049
C            8.10604770934839        1.02294017851086       -0.51622649194033
C            8.07791596678196        1.03025692946777       -1.90786558630386
C            8.98029525066515        1.80612816524839       -2.61250115601318
C            9.92074680599507        2.56897881439449       -1.93957810502115
C            9.95406331318435        2.55734870815304       -0.55463716774625
C            9.04869577716484        1.79292676465901        0.15876827665762
C            0.75122985995981        0.89825151697934        0.01957349149093
C           -0.62532540462930        0.78396125999320       -0.00871909079427
C           -1.18699840897520       -0.48218400408416        0.06937440477952
C           -6.22892258351898       -0.51290920386857       -0.23279366420604
C           -6.38629484979715       -0.02889796513249        1.17964955050418
C           -7.35090542564501       -0.96199917847893       -0.91392161934707
H           -8.88688410989638       -1.09427370533095       -3.55140096361393
H           -9.26758050788345       -2.22464681848951       -2.25219062739555
H           -8.25316351782791       -2.73746841057351       -3.61132627138428
H           -5.93122963741027       -1.86050132947129       -3.82289123114887
H           -3.07706040718579       -2.07952319398295       -2.65852942191661
H           -2.89498531474320       -0.32875018099786       -2.58976563497683
H           -3.72631426052179       -1.08126346184162       -3.95688554031181
H           -4.92283617652253        1.69715218267564       -2.02775747847497
H           -3.23752165376817        2.07091120301178       -2.36843924749546
H           -4.42584834325415        3.37306312261418       -2.30083089167223
H           -4.05205809988906        4.70940134528356       -0.48870884545850
H           -4.59076792030450        5.69413701690959        2.45487422174029
H           -3.34352241215715        6.20312384899191        1.31734094429898
H           -2.89128831331554        5.54579739499572        2.89931172971232
H           -3.10525937146440        3.12168125715032        3.34398622346280
H           -3.55983849235451       -0.34791196130615        2.44331934370842
H           -3.25430417650097        0.82063996543524        3.73496855987691
H           -1.94434068350247        0.31690631482939        2.66957528183022
H           -4.62887819160722       -2.77741828349071        0.06616907074781
H           -4.18764855028593       -5.18601252526173        0.22381534998547
H           -1.89600703362562       -6.05337132925072        0.33710359597224
H            0.03214837285678       -4.49973077031480        0.32703701880401
H            1.65737966492637       -2.36232134135710        0.21705585342179
H            3.03607205306210        1.44534769331972       -1.41466144244045
H            5.47124305451382        1.75469835974815       -1.47530846265530
H            3.39115169719256       -1.50258880851094        1.66599528267298
H            5.45034228945265       -2.66211259635569        3.05989313443020
H            7.65695553100249       -3.32797628987010        3.95540690452898
H            9.71547215926740       -2.33802583515726        3.07042357878315
H            9.64613371748887       -0.63708665008129        1.28796071330032
H            7.35552744662498        0.41918275680284       -2.42858153017150
H            8.95340574615146        1.80835327967242       -3.69235031281177
H           10.62606300807633        3.17066530217702       -2.49304290046901
H           10.68333957402614        3.15314006543683       -0.02556483654811
H            9.05805850495658        1.79655154058577        1.23874954465434
H            1.19289665795803        1.88340462883524       -0.01819384954608
H           -1.24041219679894        1.66534167650103       -0.08618042864789
H           -5.90998636204658       -0.72105372585256        1.87401031271891
H           -7.43830784751179        0.04791743847534        1.44497274882544
H           -5.91935012051979        0.94469850208479        1.30732872537156
H           -8.31451088996332       -0.92836491385278       -0.42321662241935

          :  Hamiltonian                  GFN2-xTB          :
         :: gradient norm              0.000058250903 Eh/a0 ::
         :: HOMO-LUMO gap              2.748655131836 eV    ::
         :: SCC energy              -133.364738761570 Eh    ::
         :: -> dispersion             -0.127403013813 Eh    ::
         :: -> Gsolv                  -0.050315440691 Eh    ::
         :: repulsion energy           2.420051256289 Eh    ::

    * Orbital Energies and Occupations

         #    Occupation            Energy/Eh            Energy/eV
      -------------------------------------------------------------
         1        2.0000           -0.6746404             -18.3579
       ...           ...                  ...                  ...
       111        2.0000           -0.4096865             -11.1481
       112        2.0000           -0.4088065             -11.1242
       113        2.0000           -0.4053498             -11.0301
       114        2.0000           -0.3973676             -10.8129
       115        2.0000           -0.3921883             -10.6720
       116        2.0000           -0.3817411             -10.3877
       117        2.0000           -0.3810936             -10.3701
       118        2.0000           -0.3787303             -10.3058
       119        2.0000           -0.3772361             -10.2651
       120        2.0000           -0.3749691             -10.2034
       121        2.0000           -0.3703941             -10.0789
       122        2.0000           -0.3665716              -9.9749
       123        2.0000           -0.3555632              -9.6754 (HOMO)
       124                         -0.2545520              -6.9267 (LUMO)
       125                         -0.2445177              -6.6537
       126                         -0.2399700              -6.5299
       127                         -0.2344588              -6.3799
       128                         -0.2303376              -6.2678
       129                         -0.2297905              -6.2529
       130                         -0.2137148              -5.8155
       131                         -0.2130569              -5.7976
       132                         -0.2076242              -5.6497
       133                         -0.2051965              -5.5837
       134                         -0.2016346              -5.4868
       ...                                ...                  ...
       245                          0.7532545              20.4971
      -------------------------------------------------------------
                  HL-Gap            0.1010112 Eh            2.7487 eV

     #   Z          covCN         q      C6AA      α(0)
     1   6 C        3.757    -0.107    22.596     6.777
     2   6 C        2.962     0.010    27.784     8.646
     3   6 C        2.929    -0.058    29.438     8.898
     4   6 C        2.966     0.010    27.788     8.647
     5   6 C        3.758    -0.107    22.604     6.778
     6   6 C        2.889    -0.087    30.183     9.007
     7   5 B        2.651     0.274    17.573     7.064
     8   6 C        2.889    -0.087    30.182     9.007
     9   6 C        2.966     0.008    27.835     8.654
    10   6 C        3.758    -0.111    22.677     6.789
    11   6 C        2.929    -0.058    29.434     8.897
    12   6 C        2.962     0.010    27.785     8.646
    13   6 C        3.757    -0.107    22.596     6.777
    14   6 C        2.929    -0.058    29.436     8.898
    15   6 C        2.966     0.010    27.785     8.646
    16   6 C        3.758    -0.108    22.609     6.779
    17   7 N        2.706    -0.105    23.298     7.169
    18   6 C        3.074     0.053    26.731     8.477
    19   6 C        2.912    -0.052    29.295     8.875
    20   6 C        2.923    -0.036    28.889     8.814
    21   6 C        2.920    -0.041    29.016     8.833
    22   6 C        2.913    -0.037    28.918     8.818
    23   6 C        3.063    -0.015    28.321     8.727
    24   6 C        3.060    -0.016    28.348     8.731
    25   6 C        2.918    -0.042    29.050     8.838
    26   6 C        2.977     0.000    28.022     8.683
    27   6 C        2.976    -0.002    28.081     8.692
    28   6 C        2.929    -0.040    28.995     8.831
    29   6 C        2.908    -0.053    29.312     8.878
    30   6 C        3.077     0.046    26.893     8.502
    31   6 C        3.064    -0.020    28.432     8.744
    32   6 C        2.918    -0.040    28.998     8.831
    33   6 C        3.068    -0.019    28.409     8.740
    34   6 C        2.912    -0.035    28.874     8.811
    35   6 C        2.919    -0.043    29.072     8.842
    36   6 C        2.924    -0.035    28.883     8.813
    37   6 C        2.909    -0.052    29.295     8.875
    38   6 C        3.076     0.048    26.854     8.496
    39   7 N        2.801    -0.047    22.150     6.990
    40   6 C        2.913     0.064    26.559     8.451
    41   6 C        2.922    -0.042    29.047     8.838
    42   6 C        2.920    -0.028    28.704     8.786
    43   6 C        2.919    -0.033    28.824     8.804
    44   6 C        2.920    -0.028    28.704     8.786
    45   6 C        2.922    -0.042    29.048     8.838
    46   6 C        2.927    -0.041    29.009     8.833
    47   6 C        2.910    -0.054    29.329     8.880
    48   6 C        3.074     0.051    26.785     8.486
    49   6 C        2.966     0.008    27.837     8.654
    50   6 C        3.758    -0.111    22.676     6.789
    51   6 C        2.929    -0.058    29.434     8.897
    52   1 H        0.924     0.045     2.381     2.413
    53   1 H        0.925     0.040     2.448     2.447
    54   1 H        0.925     0.041     2.434     2.440
    55   1 H        0.925     0.023     2.689     2.564
    56   1 H        0.924     0.041     2.433     2.439
    57   1 H        0.925     0.038     2.482     2.464
    58   1 H        0.925     0.040     2.455     2.450
    59   1 H        0.925     0.048     2.347     2.396
    60   1 H        0.925     0.039     2.465     2.455
    61   1 H        0.925     0.039     2.468     2.457
    62   1 H        0.925     0.022     2.702     2.570
    63   1 H        0.924     0.045     2.380     2.413
    64   1 H        0.925     0.040     2.445     2.445
    65   1 H        0.925     0.041     2.439     2.442
    66   1 H        0.925     0.023     2.691     2.565
    67   1 H        0.925     0.038     2.477     2.461
    68   1 H        0.925     0.039     2.456     2.451
    69   1 H        0.924     0.042     2.425     2.435
    70   1 H        0.926     0.037     2.494     2.470
    71   1 H        0.926     0.030     2.586     2.515
    72   1 H        0.926     0.028     2.609     2.526
    73   1 H        0.926     0.030     2.585     2.514
    74   1 H        0.926     0.031     2.572     2.508
    75   1 H        0.926     0.032     2.561     2.503
    76   1 H        0.926     0.030     2.589     2.516
    77   1 H        0.926     0.031     2.573     2.509
    78   1 H        0.926     0.029     2.595     2.519
    79   1 H        0.926     0.027     2.630     2.536
    80   1 H        0.926     0.029     2.598     2.521
    81   1 H        0.926     0.029     2.598     2.520
    82   1 H        0.926     0.041     2.436     2.441
    83   1 H        0.926     0.040     2.451     2.448
    84   1 H        0.926     0.039     2.463     2.454
    85   1 H        0.926     0.040     2.451     2.448
    86   1 H        0.926     0.041     2.438     2.442
    87   1 H        0.926     0.032     2.563     2.503
    88   1 H        0.926     0.037     2.487     2.466
    89   1 H        0.925     0.039     2.467     2.456
    90   1 H        0.925     0.039     2.468     2.457
    91   1 H        0.925     0.048     2.347     2.396
    92   1 H        0.925     0.022     2.703     2.571

molecular dipole:
                 x           y           z       tot (Debye)
 q only:        0.305       0.569      -0.388
   full:        0.317       0.600      -0.415       2.021

 projected vibrational frequencies (cm⁻¹)
eigval :       -0.00     0.00     0.00     0.00     0.00     0.00
eigval :        7.53     9.76    17.08    27.58    28.87    34.09
eigval :       40.92    44.12    48.43    55.61    58.37    59.47
eigval :       80.79    82.15    85.90    87.70    93.85   100.50
eigval :      107.26   114.52   124.06   133.24   138.51   144.90
eigval :      147.63   154.75   163.45   164.32   175.42   185.15
eigval :      187.84   202.93   204.36   206.94   227.59   242.56
eigval :      245.50   270.22   276.48   278.18   280.46   308.55
eigval :      317.29   323.06   329.02   331.44   360.78   365.63
eigval :      376.89   394.56   396.95   413.99   416.42   426.23
eigval :      436.82   441.80   456.72   466.49   476.34   484.44
eigval :      485.07   496.24   498.87   507.43   513.13   521.03
eigval :      527.55   531.27   535.18   545.76   555.68   561.01
eigval :      574.98   577.70   589.37   592.71   598.97   599.50
eigval :      606.42   613.54   616.08   630.07   632.97   665.85
eigval :      675.24   678.93   681.54   688.34   699.59   707.87
eigval :      716.94   724.93   760.94   769.41   772.71   777.58
eigval :      807.48   814.20   836.30   838.23   840.22   845.49
eigval :      864.09   868.06   872.73   874.24   879.54   886.26
eigval :      889.45   889.84   897.66   900.79   904.25   905.35
eigval :      910.53   916.28   919.41   920.25   923.17   930.08
eigval :      930.60   932.87   962.42   963.64   976.21   977.12
eigval :      997.13  1009.76  1019.73  1021.14  1026.47  1027.26
eigval :     1028.20  1030.46  1031.07  1032.54  1033.92  1039.29
eigval :     1039.89  1044.54  1046.18  1052.60  1069.72  1073.02
eigval :     1076.08  1079.18  1116.97  1119.18  1122.19  1151.11
eigval :     1155.58  1158.54  1175.79  1176.80  1178.51  1181.99
eigval :     1184.47  1198.89  1202.76  1210.75  1216.25  1225.18
eigval :     1234.05  1236.33  1241.60  1245.30  1254.46  1270.59
eigval :     1273.93  1281.45  1295.20  1304.42  1305.37  1312.98
eigval :     1315.22  1329.65  1331.53  1334.68  1343.44  1348.14
eigval :     1357.27  1360.48  1365.90  1400.85  1400.93  1401.43
eigval :     1402.35  1403.25  1404.23  1414.99  1419.62  1421.55
eigval :     1426.78  1428.56  1431.84  1435.12  1452.69  1456.02
eigval :     1464.25  1475.43  1476.94  1477.55  1479.99  1480.08
eigval :     1480.52  1481.91  1482.58  1484.09  1485.40  1486.06
eigval :     1487.53  1489.50  1491.93  1496.42  1498.43  1559.80
eigval :     1561.01  1562.47  1568.05  1581.40  1582.50  1584.21
eigval :     1593.16  1594.61  1598.19  1599.81  1601.61  1610.16
eigval :     1615.33  2987.01  2987.12  2988.16  2988.43  2996.47
eigval :     2997.31  3024.14  3024.76  3027.30  3028.44  3031.33
eigval :     3032.30  3032.57  3032.78  3038.68  3039.19  3045.64
eigval :     3046.49  3055.27  3055.68  3058.44  3059.27  3069.60
eigval :     3070.84  3075.18  3075.41  3076.35  3076.75  3077.56
eigval :     3079.75  3081.65  3083.42  3084.39  3086.48  3087.48
eigval :     3088.99  3089.96  3091.35  3096.24  3115.48  3117.48

   temp. (K)  partition function   enthalpy   heat capacity  entropy
                                   cal/mol     cal/K/mol   cal/K/mol   J/K/mol
 298.15  VIB  0.193E+22            27001.217    165.135    170.626
         ROT  0.117E+09              888.752      2.981     39.897
         INT  0.226E+30            27889.969    168.116    210.522
         TR   0.163E+29             1481.254      4.968     45.307
         TOT                       29371.2230   173.0839   255.8297  1070.3915

       T/K    H(0)-H(T)+PV         H(T)/Eh          T*S/Eh         G(T)/Eh
   ------------------------------------------------------------------------
    298.15    0.468060E-01    0.782191E+00    0.121553E+00    0.660638E+00
   ------------------------------------------------------------------------

         :::::::::::::::::::::::::::::::::::::::::::::::::::::
         ::                  THERMODYNAMIC                  ::
         :::::::::::::::::::::::::::::::::::::::::::::::::::::
         :: total free energy        -130.284049079111 Eh   ::
         ::.................................................::
         :: total energy             -130.944687495740 Eh   ::
         :: zero point energy           0.735385341200 Eh   ::
         :: G(RRHO) w/o ZPVE           -0.074746924571 Eh   ::
         :: G(RRHO) contrib.            0.660638416629 Eh   ::
         :::::::::::::::::::::::::::::::::::::::::::::::::::::

           -------------------------------------------------
          | TOTAL ENERGY             -130.944687495740 Eh   |
          | TOTAL ENTHALPY           -130.162496131402 Eh   |
          | TOTAL FREE ENERGY        -130.284049079111 Eh   |
          | GRADIENT NORM               0.000058250609 Eh/α |
          | HOMO-LUMO GAP               2.748654645308 eV   |
           -------------------------------------------------

 * finished run on 2025/07/19 at 03:46:21.650
