   * xtb version 6.7.1 (edcfbbe) compiled by 'albert@albert-system' on 2024-07-22

   ID    Z sym.   atoms
    1    6 C      1-6, 8-16, 18-38, 40-51
    2    5 B      7
    3    7 N      17, 39
    4    1 H      52-92

          program call               : xtb data2507/toluene/BCzBMes/BCzBMes_toluene_S0_crest.xyz --gfn 2 --gbsa toluene --ohess vtight --parallel 40 --molden --ceasefiles --namespace data2507/toluene/BCzBMes/BCzBMes_toluene_S0_finalOpt
      * Solvation model:               GBSA
        Solvent                        toluene
        Solvent mass                       9.2140E+01 g/mol
          :  Hamiltonian                  GFN2-xTB          :
 * total energy  :  -130.9445255 Eh     change       -0.7835865E-09 Eh
 * total energy  :  -130.9446266 Eh     change       -0.1011142E-03 Eh
 * total energy  :  -130.9446790 Eh     change       -0.5238138E-04 Eh
 * total energy  :  -130.9446910 Eh     change       -0.1196896E-04 Eh
 * total energy  :  -130.9447033 Eh     change       -0.1227258E-04 Eh
 * total energy  :  -130.9447109 Eh     change       -0.7603212E-05 Eh
 * total energy  :  -130.9447273 Eh     change       -0.1641423E-04 Eh
 * total energy  :  -130.9447308 Eh     change       -0.3483456E-05 Eh
 * total energy  :  -130.9447342 Eh     change       -0.3395282E-05 Eh
 * total energy  :  -130.9447354 Eh     change       -0.1274761E-05 Eh
 * total energy  :  -130.9447433 Eh     change       -0.4399004E-06 Eh
 * total energy  :  -130.9447438 Eh     change       -0.4196903E-06 Eh
 * total energy  :  -130.9447439 Eh     change       -0.1799888E-06 Eh
 * total energy  :  -130.9447442 Eh     change       -0.2747408E-06 Eh
 * total energy  :  -130.9447440 Eh     change        0.1795484E-06 Eh
 * total energy  :  -130.9447443 Eh     change       -0.2529341E-06 Eh
 * total energy  :  -130.9447441 Eh     change        0.1469114E-06 Eh
 * total energy  :  -130.9447444 Eh     change       -0.2110903E-06 Eh
 * total energy  :  -130.9447444 Eh     change       -0.6366446E-07 Eh
   *** GEOMETRY OPTIMIZATION CONVERGED AFTER 28 ITERATIONS ***

 final structure:
================
92
 xtb: 6.7.1 (edcfbbe)
C           -9.27774146877502       -2.11429343616080       -1.55877759906660
C           -7.97594902565703       -1.48936547476375       -1.15568184640514
C           -6.79320567026877       -1.83832050612724       -1.79072976360673
C           -5.57669351164393       -1.28854418117463       -1.41594294219979
C           -4.34067651479970       -1.73476063611721       -2.14617301031328
C           -5.51282276038450       -0.34591986063977       -0.37542104040426
B           -4.12595218841668        0.31200095832138       -0.00789057187297
C           -3.93701453689781        1.87854723310061       -0.05371405328400
C           -4.22559669745877        2.64151113983001       -1.19745310213543
C           -4.63966178347796        1.97738729253708       -2.47862461240653
C           -4.09060592855791        4.02121887328197       -1.17444340329287
C           -3.68162705138638        4.69361974754357       -0.03154664338873
C           -3.57016472708009        6.18867076811678       -0.01913895517391
C           -3.40262140727094        3.94244487071849        1.09908371058504
C           -3.52081211760284        2.55984392758390        1.10245829074952
C           -3.18575436238395        1.82715325427362        2.37186860776494
N           -3.02905507685225       -0.52008783031308        0.37730306809161
C           -3.10102910813838       -1.77761346029227        0.98239253625327
C           -4.21450193466901       -2.50195504486680        1.38215482390178
C           -4.01631426924098       -3.72467508202741        1.99905372997015
C           -2.73900845769035       -4.22214423361057        2.23805366949660
C           -1.62288355600864       -3.49573242474899        1.87083457538231
C           -1.80479945474025       -2.27023111925968        1.24596667094607
C           -0.88475816954613       -1.27781351657858        0.75741660712714
C            0.49865947229408       -1.22496812638003        0.71099156166678
C            1.11773761153202       -0.12110958177267        0.13644413899106
C            2.58539610694639       -0.03784502713873        0.07395845531646
C            3.23337179022575        1.18302874802239        0.31093770269175
C            4.60688327910753        1.30670969973487        0.26747657309210
C            5.35610098677303        0.17273021128463       -0.01451857165169
C            4.72243098418216       -1.06410128508581       -0.27549653716763
C            3.34051495909770       -1.16504216025313       -0.22534745394538
C            5.76894428774499       -2.00329363892651       -0.57019078500490
C            5.77966864282962       -3.35784449814049       -0.87741146867999
C            6.99458687995345       -3.98025291453016       -1.08533460148995
C            8.18994320241429       -3.27180100300803       -0.97728201836656
C            8.20514108782304       -1.92404991988355       -0.67199842908906
C            6.98612615066257       -1.28795303279119       -0.48232177960513
N            6.72198728642243        0.02459581161598       -0.14512081791247
C            7.67867158760679        1.03872591689077        0.02399333522462
C            8.62855665933111        1.27491802629819       -0.96561028858976
C            9.57146115105780        2.27199029574490       -0.79357656967944
C            9.56832460527082        3.04621372389098        0.35524996674197
C            8.62031797755657        2.81543313089739        1.33871580394996
C            7.68022875131303        1.81336565895398        1.18038094725439
C            0.32468068174821        0.90201868342966       -0.39772305436551
C           -1.05567248611348        0.86139164766259       -0.36130170951281
C           -1.67071273848697       -0.22562295925240        0.24254309521078
C           -6.71100769558641        0.01124579303031        0.26275995684217
C           -6.70905445639227        0.98587003362188        1.40456616808020
C           -7.91258769191111       -0.56307024019468       -0.12577005832488
H           -9.39124787602033       -3.08475639510280       -1.07313175840947
H           -9.31381555422220       -2.27294443663482       -2.63484801010897
H          -10.11720921861405       -1.48821086027761       -1.26471424724767
H           -6.81954898769817       -2.55719028221415       -2.59877641096275
H           -3.60886172254382       -0.93547267338612       -2.22304222849510
H           -4.59306567610990       -2.07743289224114       -3.14789878590589
H           -3.87608497557788       -2.56649633573931       -1.61440668757698
H           -4.94257355424232        2.71816171447326       -3.21526142355246
H           -5.46669526837020        1.29262558451094       -2.30778462092737
H           -3.81132108145382        1.40365516576233       -2.89437566189194
H           -4.31244612762431        4.58901130089401       -2.06822253600401
H           -4.55564156788803        6.63443457978612        0.12397199790234
H           -3.17246424471551        6.55468081076303       -0.96389918416045
H           -2.92530791815516        6.52390598268355        0.79011584969380
H           -3.08440529889316        4.44411204514328        2.00329098469454
H           -3.77951625909438        0.92452578416978        2.48479173448855
H           -3.35422246706019        2.46745535490123        3.23582382369711
H           -2.13309876320863        1.54017107863581        2.36800632629868
H           -5.21239634378978       -2.13141829783521        1.21597338197906
H           -4.87569130470848       -4.30305368494589        2.30613860326081
H           -2.62312045795197       -5.18067418688777        2.72269475916892
H           -0.62812617043712       -3.86719668417554        2.06789443044706
H            1.08737195115518       -2.02750542804445        1.12961774272668
H            2.63675685552022        2.05100699600857        0.55062783362104
H            5.08013271029509        2.26131873095321        0.44230239122945
H            2.85693950047686       -2.10539715367190       -0.44394810091572
H            4.85418440798960       -3.91008541032035       -0.94728668637170
H            7.02442572827963       -5.03275072036532       -1.32709722513993
H            9.12602026013083       -3.78876341384732       -1.13166881830048
H            9.13733076311676       -1.38816512276265       -0.57409523891661
H            8.61459595311333        0.68283490230593       -1.86880185942569
H           10.30617656448601        2.45043696375598       -1.56499814765361
H           10.30297500215467        3.82697917597847        0.48391857313662
H            8.61650843782859        3.41345848102125        2.23825119066138
H            6.95212338135747        1.61744191755071        1.95355261394496
H            0.80817394807212        1.73998765037387       -0.87834534869318
H           -1.63280797039578        1.66111634610643       -0.79545321350504
H           -6.20570822384192        1.90739655683173        1.12205154592063
H           -6.18139369586564        0.56686709180088        2.26115067149934
H           -7.72548136647038        1.22052267707208        1.71259872882388
H           -8.82289753327680       -0.27825365458444        0.38475426657004

          :  Hamiltonian                  GFN2-xTB          :
         :: gradient norm              0.000048276650 Eh/a0 ::
         :: HOMO-LUMO gap              2.742348907149 eV    ::
         :: SCC energy              -133.364779616579 Eh    ::
         :: -> dispersion             -0.127466781755 Eh    ::
         :: -> Gsolv                  -0.050284056219 Eh    ::
         :: repulsion energy           2.420035200234 Eh    ::

    * Orbital Energies and Occupations

         #    Occupation            Energy/Eh            Energy/eV
      -------------------------------------------------------------
         1        2.0000           -0.6746666             -18.3586
       ...           ...                  ...                  ...
       111        2.0000           -0.4095404             -11.1442
       112        2.0000           -0.4087574             -11.1229
       113        2.0000           -0.4057409             -11.0408
       114        2.0000           -0.3972815             -10.8106
       115        2.0000           -0.3922774             -10.6744
       116        2.0000           -0.3817216             -10.3872
       117        2.0000           -0.3809335             -10.3657
       118        2.0000           -0.3786371             -10.3032
       119        2.0000           -0.3773421             -10.2680
       120        2.0000           -0.3750289             -10.2051
       121        2.0000           -0.3704883             -10.0815
       122        2.0000           -0.3667319              -9.9793
       123        2.0000           -0.3554111              -9.6712 (HOMO)
       124                         -0.2546317              -6.9289 (LUMO)
       125                         -0.2445155              -6.6536
       126                         -0.2401378              -6.5345
       127                         -0.2344591              -6.3800
       128                         -0.2303155              -6.2672
       129                         -0.2298717              -6.2551
       130                         -0.2135042              -5.8097
       131                         -0.2130628              -5.7977
       132                         -0.2076667              -5.6509
       133                         -0.2052107              -5.5841
       134                         -0.2016766              -5.4879
       ...                                ...                  ...
       245                          0.7534401              20.5021
      -------------------------------------------------------------
                  HL-Gap            0.1007794 Eh            2.7423 eV

     #   Z          covCN         q      C6AA      α(0)
     1   6 C        3.757    -0.107    22.595     6.777
     2   6 C        2.962     0.010    27.786     8.646
     3   6 C        2.929    -0.058    29.440     8.898
     4   6 C        2.966     0.010    27.789     8.647
     5   6 C        3.758    -0.108    22.609     6.779
     6   6 C        2.889    -0.087    30.185     9.007
     7   5 B        2.651     0.274    17.574     7.064
     8   6 C        2.888    -0.087    30.180     9.007
     9   6 C        2.966     0.008    27.834     8.654
    10   6 C        3.758    -0.111    22.680     6.790
    11   6 C        2.929    -0.058    29.439     8.898
    12   6 C        2.962     0.010    27.784     8.646
    13   6 C        3.757    -0.107    22.596     6.777
    14   6 C        2.929    -0.058    29.433     8.897
    15   6 C        2.966     0.010    27.784     8.646
    16   6 C        3.758    -0.107    22.602     6.778
    17   7 N        2.706    -0.105    23.300     7.169
    18   6 C        3.074     0.053    26.736     8.478
    19   6 C        2.912    -0.053    29.309     8.877
    20   6 C        2.923    -0.036    28.890     8.814
    21   6 C        2.920    -0.041    29.016     8.833
    22   6 C        2.913    -0.037    28.917     8.818
    23   6 C        3.063    -0.015    28.320     8.727
    24   6 C        3.060    -0.016    28.349     8.731
    25   6 C        2.918    -0.042    29.053     8.839
    26   6 C        2.976     0.000    28.022     8.683
    27   6 C        2.976    -0.002    28.082     8.692
    28   6 C        2.928    -0.040    28.995     8.831
    29   6 C        2.908    -0.053    29.313     8.878
    30   6 C        3.076     0.046    26.894     8.502
    31   6 C        3.064    -0.020    28.431     8.744
    32   6 C        2.918    -0.040    29.000     8.831
    33   6 C        3.068    -0.019    28.409     8.740
    34   6 C        2.912    -0.035    28.874     8.811
    35   6 C        2.919    -0.043    29.071     8.842
    36   6 C        2.924    -0.035    28.883     8.813
    37   6 C        2.909    -0.052    29.294     8.875
    38   6 C        3.076     0.048    26.855     8.496
    39   7 N        2.802    -0.047    22.149     6.990
    40   6 C        2.913     0.064    26.559     8.451
    41   6 C        2.922    -0.042    29.049     8.839
    42   6 C        2.920    -0.028    28.705     8.786
    43   6 C        2.919    -0.033    28.825     8.804
    44   6 C        2.920    -0.028    28.705     8.786
    45   6 C        2.922    -0.042    29.050     8.839
    46   6 C        2.928    -0.041    29.010     8.833
    47   6 C        2.910    -0.053    29.315     8.878
    48   6 C        3.075     0.051    26.778     8.484
    49   6 C        2.966     0.008    27.837     8.654
    50   6 C        3.758    -0.111    22.675     6.789
    51   6 C        2.928    -0.058    29.432     8.897
    52   1 H        0.924     0.045     2.383     2.414
    53   1 H        0.925     0.041     2.432     2.439
    54   1 H        0.925     0.040     2.451     2.448
    55   1 H        0.925     0.023     2.689     2.564
    56   1 H        0.925     0.038     2.476     2.461
    57   1 H        0.925     0.039     2.456     2.451
    58   1 H        0.924     0.042     2.429     2.437
    59   1 H        0.925     0.039     2.468     2.457
    60   1 H        0.925     0.048     2.345     2.395
    61   1 H        0.925     0.039     2.466     2.456
    62   1 H        0.925     0.022     2.697     2.568
    63   1 H        0.924     0.045     2.382     2.414
    64   1 H        0.925     0.041     2.429     2.437
    65   1 H        0.925     0.040     2.453     2.449
    66   1 H        0.925     0.023     2.695     2.567
    67   1 H        0.925     0.037     2.487     2.466
    68   1 H        0.925     0.040     2.455     2.450
    69   1 H        0.924     0.042     2.428     2.437
    70   1 H        0.926     0.037     2.487     2.466
    71   1 H        0.926     0.030     2.588     2.516
    72   1 H        0.926     0.028     2.609     2.526
    73   1 H        0.926     0.030     2.585     2.514
    74   1 H        0.926     0.031     2.568     2.506
    75   1 H        0.926     0.032     2.557     2.501
    76   1 H        0.926     0.030     2.588     2.516
    77   1 H        0.926     0.031     2.570     2.507
    78   1 H        0.926     0.029     2.594     2.519
    79   1 H        0.926     0.027     2.629     2.536
    80   1 H        0.926     0.029     2.597     2.520
    81   1 H        0.926     0.029     2.597     2.520
    82   1 H        0.926     0.041     2.439     2.442
    83   1 H        0.926     0.040     2.452     2.449
    84   1 H        0.926     0.039     2.463     2.454
    85   1 H        0.926     0.040     2.451     2.448
    86   1 H        0.926     0.041     2.435     2.440
    87   1 H        0.926     0.032     2.563     2.503
    88   1 H        0.926     0.037     2.495     2.470
    89   1 H        0.925     0.048     2.348     2.396
    90   1 H        0.925     0.039     2.465     2.455
    91   1 H        0.925     0.039     2.468     2.457
    92   1 H        0.925     0.022     2.704     2.572

molecular dipole:
                 x           y           z       tot (Debye)
 q only:        0.342       0.659       0.015
   full:        0.358       0.685       0.020       1.964

 projected vibrational frequencies (cm⁻¹)
eigval :       -0.00    -0.00    -0.00     0.00     0.00     0.00
eigval :       10.39    12.13    17.70    24.39    27.70    34.25
eigval :       40.12    41.27    49.99    59.16    59.41    65.92
eigval :       69.59    73.50    76.05    86.23    92.84   101.65
eigval :      114.78   127.39   130.70   133.70   138.09   146.04
eigval :      152.34   162.49   168.23   170.63   172.28   184.38
eigval :      187.56   205.22   208.24   209.07   225.70   242.43
eigval :      249.46   269.64   275.37   276.83   283.36   305.55
eigval :      315.91   322.09   326.32   332.75   361.22   366.95
eigval :      379.19   392.86   395.99   412.64   415.04   429.61
eigval :      430.50   442.57   455.69   467.10   477.97   483.59
eigval :      487.29   495.88   498.53   506.66   512.74   517.48
eigval :      526.26   531.33   537.21   546.25   554.55   562.29
eigval :      573.70   579.09   589.32   593.53   598.43   599.60
eigval :      602.72   615.15   616.51   630.06   632.97   667.14
eigval :      675.13   679.34   681.04   687.99   699.00   708.42
eigval :      715.64   725.15   763.78   769.49   773.60   780.33
eigval :      808.18   814.55   835.25   840.27   844.37   848.43
eigval :      864.34   867.90   870.93   874.69   882.23   885.32
eigval :      894.61   894.93   898.55   901.63   905.86   907.00
eigval :      910.49   918.32   920.15   921.30   926.09   930.92
eigval :      932.65   934.70   961.62   962.95   975.82   976.50
eigval :      997.16  1009.80  1018.88  1021.77  1025.75  1027.34
eigval :     1028.28  1028.84  1030.95  1031.65  1032.68  1038.72
eigval :     1039.86  1043.80  1045.46  1052.68  1070.12  1072.91
eigval :     1075.65  1079.49  1117.07  1119.48  1122.52  1152.17
eigval :     1155.88  1158.81  1176.16  1177.21  1178.68  1182.14
eigval :     1185.05  1199.02  1202.48  1212.28  1216.07  1225.42
eigval :     1233.89  1236.08  1241.54  1245.89  1254.49  1271.29
eigval :     1274.51  1282.02  1295.17  1303.65  1305.04  1312.81
eigval :     1315.38  1329.79  1331.34  1334.41  1343.49  1348.28
eigval :     1357.20  1360.75  1365.97  1398.51  1399.17  1400.09
eigval :     1401.25  1402.36  1405.38  1415.00  1419.90  1421.79
eigval :     1426.60  1428.31  1432.12  1435.19  1452.91  1456.21
eigval :     1464.64  1475.32  1477.62  1478.57  1480.24  1480.88
eigval :     1480.98  1481.90  1482.60  1482.96  1483.49  1485.70
eigval :     1486.95  1489.96  1491.55  1496.21  1500.46  1559.64
eigval :     1560.86  1562.52  1568.32  1581.58  1582.59  1584.26
eigval :     1593.23  1594.47  1598.25  1599.60  1601.37  1610.10
eigval :     1615.51  2987.86  2988.17  2988.25  2989.13  2996.70
eigval :     2998.65  3022.28  3023.93  3025.42  3025.95  3030.51
eigval :     3032.56  3033.46  3033.67  3036.47  3041.45  3044.99
eigval :     3047.17  3055.39  3055.53  3058.70  3059.73  3070.87
eigval :     3070.97  3074.98  3075.70  3076.32  3077.19  3077.36
eigval :     3080.22  3082.26  3083.46  3084.95  3086.60  3088.24
eigval :     3089.05  3090.23  3091.59  3096.37  3115.29  3118.76

   temp. (K)  partition function   enthalpy   heat capacity  entropy
                                   cal/mol     cal/K/mol   cal/K/mol   J/K/mol
 298.15  VIB  0.121E+22            26965.609    164.968    169.855
         ROT  0.116E+09              888.752      2.981     39.888
         INT  0.141E+30            27854.362    167.948    209.743
         TR   0.163E+29             1481.254      4.968     45.307
         TOT                       29335.6156   172.9166   255.0507  1067.1321

       T/K    H(0)-H(T)+PV         H(T)/Eh          T*S/Eh         G(T)/Eh
   ------------------------------------------------------------------------
    298.15    0.467493E-01    0.782284E+00    0.121183E+00    0.661101E+00
   ------------------------------------------------------------------------

         :::::::::::::::::::::::::::::::::::::::::::::::::::::
         ::                  THERMODYNAMIC                  ::
         :::::::::::::::::::::::::::::::::::::::::::::::::::::
         :: total free energy        -130.283642919461 Eh   ::
         ::.................................................::
         :: total energy             -130.944744418059 Eh   ::
         :: zero point energy           0.735535029263 Eh   ::
         :: G(RRHO) w/o ZPVE           -0.074433530665 Eh   ::
         :: G(RRHO) contrib.            0.661101498598 Eh   ::
         :::::::::::::::::::::::::::::::::::::::::::::::::::::

           -------------------------------------------------
          | TOTAL ENERGY             -130.944744418059 Eh   |
          | TOTAL ENTHALPY           -130.162460109578 Eh   |
          | TOTAL FREE ENERGY        -130.283642919461 Eh   |
          | GRADIENT NORM               0.000048294811 Eh/α |
          | HOMO-LUMO GAP               2.742347248679 eV   |
           -------------------------------------------------

 * finished run on 2025/07/19 at 03:57:03.906
