   * xtb version 6.7.1 (edcfbbe) compiled by 'albert@albert-system' on 2024-07-22

   ID    Z sym.   atoms
    1    6 C      1-6, 8-16, 18-38, 40-51
    2    5 B      7
    3    7 N      17, 39
    4    1 H      52-92

          program call               : xtb data2507/toluene/BCzBMes/BCzBMes_toluene_S0_finalOpt.xtbopt.xyz --gfn 2 --uhf 2 --gbsa toluene --ohess vtight --parallel 40 --molden --ceasefiles --namespace data2507/toluene/BCzBMes/BCzBMes_toluene_T1_preOpt
      * Solvation model:               GBSA
        Solvent                        toluene
        Solvent mass                       9.2140E+01 g/mol
          :  Hamiltonian                  GFN2-xTB          :
 * total energy  :  -130.8377932 Eh     change       -0.2654650E-07 Eh
 * total energy  :  -130.8402296 Eh     change       -0.2436369E-02 Eh
 * total energy  :  -130.8412671 Eh     change       -0.1037514E-02 Eh
 * total energy  :  -130.8415454 Eh     change       -0.2783392E-03 Eh
 * total energy  :  -130.8418445 Eh     change       -0.2990726E-03 Eh
 * total energy  :  -130.8420709 Eh     change       -0.2264116E-03 Eh
 * total energy  :  -130.8423061 Eh     change       -0.2351979E-03 Eh
 * total energy  :  -130.8424869 Eh     change       -0.1807610E-03 Eh
 * total energy  :  -130.8426145 Eh     change       -0.1276348E-03 Eh
 * total energy  :  -130.8427417 Eh     change       -0.1271912E-03 Eh
 * total energy  :  -130.8442172 Eh     change       -0.1086774E-05 Eh
 * total energy  :  -130.8442182 Eh     change       -0.1015768E-05 Eh
 * total energy  :  -130.8442192 Eh     change       -0.9438728E-06 Eh
 * total energy  :  -130.8442201 Eh     change       -0.8839763E-06 Eh
 * total energy  :  -130.8442209 Eh     change       -0.8366778E-06 Eh
 * total energy  :  -130.8442217 Eh     change       -0.8105233E-06 Eh
 * total energy  :  -130.8442225 Eh     change       -0.8220361E-06 Eh
 * total energy  :  -130.8442234 Eh     change       -0.9033301E-06 Eh
 * total energy  :  -130.8442234 Eh     change       -0.4387829E-08 Eh
   *** GEOMETRY OPTIMIZATION CONVERGED AFTER 68 ITERATIONS ***

 final structure:
================
92
 xtb: 6.7.1 (edcfbbe)
C           -9.15062386337134       -2.31005618237153       -1.63540861993463
C           -7.88666223928434       -1.60657851439822       -1.24135633208592
C           -6.66333207098394       -1.99170199217434       -1.77489871312320
C           -5.48203262815739       -1.36755000596983       -1.41363712405669
C           -4.20931121666126       -1.82756369407151       -2.06768378150441
C           -5.48434906792327       -0.32191766242588       -0.46608637290907
B           -4.15167334163506        0.35873273319593       -0.00277710927067
C           -3.98325409176321        1.91285182684162        0.07077472828256
C           -4.39458906202900        2.74607748022029       -0.99356216709553
C           -5.01538897046111        2.16615856496547       -2.23224676922930
C           -4.19360299448095        4.11289025491816       -0.93239004158728
C           -3.60572149295932        4.71870182123324        0.17309470245253
C           -3.42395952483911        6.20620094076195        0.22096948384831
C           -3.22405999595211        3.90633467648923        1.23103021051736
C           -3.41106877477139        2.53399815619426        1.20084531480602
C           -2.99978406712844        1.73882918735876        2.40804872560723
N           -3.02508702455888       -0.48292225849356        0.36415111842984
C           -3.09926319819359       -1.71154572423490        1.02370360104768
C           -4.21437298875715       -2.37051373792267        1.50993168338686
C           -4.02955255426958       -3.58968454828227        2.15059104723844
C           -2.76210997250891       -4.13428535692940        2.31438092661007
C           -1.63693751762989       -3.46734687835972        1.85624071338842
C           -1.80274294003514       -2.24676563470322        1.21873997907533
C           -0.88587261355924       -1.29518368198818        0.65442998617811
C            0.47977678840746       -1.24793714001625        0.55926625438298
C            1.10912337432894       -0.13210143862123       -0.03503553135188
C            2.53907310094770       -0.04830060010634       -0.10585346472432
C            3.19859006170897        1.21342267659386       -0.14193886987843
C            4.56399600891234        1.33303518014117       -0.16820968838451
C            5.33389058331138        0.16721091167089       -0.18098864362541
C            4.70367152373926       -1.11007313075366       -0.20531560586116
C            3.33459068087918       -1.21634708856539       -0.14771054788922
C            5.76514269719287       -2.07950472933364       -0.29767341776576
C            5.78813233389158       -3.46517411687558       -0.35037723510657
C            7.01550555652345       -4.10598265383348       -0.40731121978530
C            8.20207458608439       -3.38208464265791       -0.39460562551281
C            8.20270368434155       -1.99610938902531       -0.34276716229740
C            6.97675984834349       -1.35001645953378       -0.31495020252438
N            6.69520940469528        0.00559486362852       -0.24355134942649
C            7.64592877963132        1.03348672212593       -0.18309494099527
C            8.68019015335424        1.09286748169954       -1.11593993301233
C            9.61737805311069        2.10582221496398       -1.04159382635840
C            9.53180256889039        3.06874025536915       -0.04752254065910
C            8.50022373736859        3.01379736867533        0.87756358629240
C            7.56119112922978        2.00217644108548        0.81641763121314
C            0.27614654979915        0.90508525132982       -0.56670686868930
C           -1.08898269379386        0.85617589057952       -0.50284057056409
C           -1.70013517067471       -0.22713879459437        0.14286665278517
C           -6.73189475977290        0.08651869387546        0.05177786768710
C           -6.82386327610304        1.19805244476252        1.05795080256498
C           -7.89603178650809       -0.55919364839844       -0.32940915852336
H           -9.22879710622331       -3.26280480947319       -1.10866191898096
H           -9.15919841168638       -2.51924793866998       -2.70398004763388
H          -10.02398238991278       -1.71120450371373       -1.38624771260248
H           -6.63564380985605       -2.79514702821580       -2.49963414830564
H           -3.51709274771215       -1.00129762502981       -2.21375107986486
H           -4.42181581941094       -2.28047531484692       -3.03458366236944
H           -3.71330480297220       -2.57786376432687       -1.45007640068029
H           -5.05058181082468        2.90853073342682       -3.02728176459781
H           -6.03198173929310        1.83043893825449       -2.03212158811615
H           -4.45087039847958        1.30433917398530       -2.58165171920859
H           -4.50006417029674        4.73086683060662       -1.76672735842397
H           -4.38608460648962        6.69910651146533        0.36933439868351
H           -3.00501129693880        6.57261742330162       -0.71544626799870
H           -2.76428552374909        6.49169150659870        1.03728852129608
H           -2.77668889734419        4.35672147729066        2.10781205872645
H           -3.65268499005071        0.88192944785380        2.56001823949691
H           -3.02809612385037        2.36188464305294        3.30035438589822
H           -1.98015748844379        1.36795736991256        2.29172367245702
H           -5.20243457591569       -1.95609500498885        1.39106810996367
H           -4.89013583083775       -4.11936963744052        2.53158197558280
H           -2.65270545981417       -5.08541715001382        2.81492455966338
H           -0.65112774429905       -3.88553300431856        1.99516831563297
H            1.07445193071496       -2.04145265335984        0.98531179719809
H            2.60054718042515        2.11016301585389       -0.10312264247859
H            5.03154305011192        2.30605500975585       -0.18464782966919
H            2.86936056143140       -2.18846337634699       -0.19006098939004
H            4.86837399066483       -4.03023958773853       -0.34430077403174
H            7.05321028299642       -5.18446669360534       -0.45312850057700
H            9.14495371942748       -3.90813765726237       -0.42226873310495
H            9.13019440286097       -1.44524858398794       -0.31450031738222
H            8.73010822620256        0.35681687078122       -1.90435480811981
H           10.41533023422347        2.14854884807576       -1.76821965760594
H           10.26532935077673        3.85893336353399        0.00579869086334
H            8.43194056710197        3.75866490096060        1.65670072515311
H            6.77014735775884        1.94166175537413        1.54908204750441
H            0.74412611550221        1.72577572781856       -1.08693223432153
H           -1.68995055915286        1.63945422650613       -0.93781380551996
H           -6.65051482205943        2.16228938145590        0.58178585894266
H           -6.07310671604217        1.08008780221200        1.83643556980123
H           -7.80903706012010        1.21706895922251        1.52006841076895
H           -8.83903571814104       -0.23953998028951        0.09538671493737

          :  Hamiltonian                  GFN2-xTB          :
         :: gradient norm              0.000059966737 Eh/a0 ::
         :: HOMO-LUMO gap              0.153173012944 eV    ::
         :: SCC energy              -133.246193269773 Eh    ::
         :: -> dispersion             -0.128026929077 Eh    ::
         :: -> Gsolv                  -0.050427835020 Eh    ::
         :: repulsion energy           2.401969821581 Eh    ::

    * Orbital Energies and Occupations

         #    Occupation            Energy/Eh            Energy/eV
      -------------------------------------------------------------
         1        2.0000           -0.6818196             -18.5533
       ...           ...                  ...                  ...
       112        2.0000           -0.4072970             -11.0831
       113        2.0000           -0.4007275             -10.9043
       114        2.0000           -0.3990083             -10.8576
       115        2.0000           -0.3868165             -10.5258
       116        2.0000           -0.3834184             -10.4333
       117        2.0000           -0.3781730             -10.2906
       118        2.0000           -0.3765072             -10.2453
       119        2.0000           -0.3754462             -10.2164
       120        2.0000           -0.3737234             -10.1695
       121        1.9998           -0.3653558              -9.9418
       122        1.9987           -0.3637808              -9.8990
       123        1.0015           -0.3512912              -9.5591
       124        0.9494           -0.2539932              -6.9115 (HOMO)
       125        0.0478           -0.2483647              -6.7583 (LUMO)
       126        0.0028           -0.2456114              -6.6834
       127        0.0000           -0.2386613              -6.4943
       128                         -0.2344254              -6.3790
       129                         -0.2321680              -6.3176
       130                         -0.2160957              -5.8803
       131                         -0.2059592              -5.6044
       132                         -0.2051322              -5.5819
       133                         -0.2010752              -5.4715
       134                         -0.1986128              -5.4045
       135                         -0.1904407              -5.1822
       ...                                ...                  ...
       245                          0.7565089              20.5857
      -------------------------------------------------------------
                  HL-Gap            0.0056285 Eh            0.1532 eV

     #   Z          covCN         q      C6AA      α(0)
     1   6 C        3.757    -0.104    22.549     6.770
     2   6 C        2.962     0.003    27.946     8.671
     3   6 C        2.928    -0.059    29.456     8.901
     4   6 C        2.965     0.005    27.900     8.664
     5   6 C        3.758    -0.104    22.540     6.769
     6   6 C        2.888    -0.082    30.039     8.986
     7   5 B        2.653     0.224    18.262     7.200
     8   6 C        2.888    -0.082    30.044     8.986
     9   6 C        2.964     0.004    27.929     8.668
    10   6 C        3.758    -0.109    22.627     6.782
    11   6 C        2.928    -0.059    29.475     8.903
    12   6 C        2.962     0.003    27.949     8.671
    13   6 C        3.757    -0.104    22.548     6.770
    14   6 C        2.927    -0.058    29.436     8.897
    15   6 C        2.965     0.005    27.907     8.665
    16   6 C        3.758    -0.104    22.532     6.767
    17   7 N        2.705    -0.076    22.712     7.078
    18   6 C        3.088     0.052    26.733     8.475
    19   6 C        2.910    -0.046    29.131     8.850
    20   6 C        2.922    -0.038    28.940     8.822
    21   6 C        2.919    -0.037    28.919     8.819
    22   6 C        2.912    -0.036    28.893     8.814
    23   6 C        3.054    -0.016    28.368     8.735
    24   6 C        3.052    -0.015    28.339     8.731
    25   6 C        2.912    -0.037    28.912     8.817
    26   6 C        2.972     0.004    27.940     8.670
    27   6 C        2.971     0.003    27.951     8.672
    28   6 C        2.923    -0.043    29.062     8.841
    29   6 C        2.904    -0.047    29.161     8.854
    30   6 C        3.069     0.040    27.035     8.526
    31   6 C        3.055    -0.014    28.314     8.727
    32   6 C        2.914    -0.039    28.966     8.825
    33   6 C        3.061    -0.015    28.332     8.729
    34   6 C        2.912    -0.034    28.852     8.808
    35   6 C        2.919    -0.038    28.952     8.824
    36   6 C        2.923    -0.035    28.866     8.811
    37   6 C        2.909    -0.049    29.210     8.862
    38   6 C        3.071     0.046    26.899     8.504
    39   7 N        2.799    -0.022    21.679     6.915
    40   6 C        2.913     0.060    26.663     8.467
    41   6 C        2.921    -0.042    29.032     8.836
    42   6 C        2.919    -0.028    28.692     8.784
    43   6 C        2.919    -0.033    28.825     8.804
    44   6 C        2.919    -0.028    28.689     8.783
    45   6 C        2.921    -0.041    29.027     8.835
    46   6 C        2.920    -0.051    29.254     8.870
    47   6 C        2.903    -0.044    29.080     8.842
    48   6 C        3.081     0.042    26.978     8.515
    49   6 C        2.965     0.004    27.942     8.670
    50   6 C        3.758    -0.108    22.623     6.781
    51   6 C        2.927    -0.059    29.457     8.901
    52   1 H        0.924     0.042     2.425     2.435
    53   1 H        0.925     0.039     2.465     2.455
    54   1 H        0.925     0.036     2.496     2.471
    55   1 H        0.925     0.017     2.778     2.606
    56   1 H        0.925     0.034     2.528     2.486
    57   1 H        0.925     0.036     2.509     2.477
    58   1 H        0.924     0.038     2.478     2.462
    59   1 H        0.925     0.035     2.522     2.484
    60   1 H        0.925     0.044     2.397     2.421
    61   1 H        0.925     0.039     2.459     2.452
    62   1 H        0.925     0.017     2.782     2.608
    63   1 H        0.924     0.041     2.434     2.440
    64   1 H        0.925     0.039     2.456     2.451
    65   1 H        0.925     0.036     2.497     2.471
    66   1 H        0.925     0.016     2.789     2.611
    67   1 H        0.925     0.033     2.543     2.494
    68   1 H        0.925     0.035     2.514     2.480
    69   1 H        0.924     0.037     2.483     2.464
    70   1 H        0.926     0.039     2.460     2.453
    71   1 H        0.926     0.031     2.569     2.507
    72   1 H        0.926     0.032     2.565     2.504
    73   1 H        0.926     0.032     2.552     2.498
    74   1 H        0.926     0.037     2.493     2.469
    75   1 H        0.926     0.036     2.496     2.471
    76   1 H        0.926     0.034     2.525     2.485
    77   1 H        0.926     0.037     2.483     2.464
    78   1 H        0.926     0.034     2.530     2.487
    79   1 H        0.926     0.032     2.554     2.499
    80   1 H        0.926     0.034     2.533     2.489
    81   1 H        0.926     0.035     2.510     2.477
    82   1 H        0.926     0.043     2.407     2.426
    83   1 H        0.926     0.041     2.434     2.440
    84   1 H        0.926     0.040     2.455     2.450
    85   1 H        0.926     0.041     2.436     2.441
    86   1 H        0.926     0.043     2.415     2.430
    87   1 H        0.926     0.031     2.571     2.507
    88   1 H        0.926     0.036     2.501     2.473
    89   1 H        0.925     0.044     2.398     2.422
    90   1 H        0.925     0.039     2.460     2.453
    91   1 H        0.925     0.035     2.523     2.484
    92   1 H        0.925     0.016     2.791     2.612

molecular dipole:
                 x           y           z       tot (Debye)
 q only:        2.374       0.079       0.060
   full:        2.365       0.116       0.068       6.020

 projected vibrational frequencies (cm⁻¹)
eigval :       -0.00    -0.00    -0.00     0.00     0.00     0.00
eigval :        6.42     7.51    17.07    25.10    29.22    33.39
eigval :       35.26    39.14    42.03    53.58    58.17    62.23
eigval :       62.79    79.35    86.86    88.43   102.07   105.97
eigval :      112.00   119.94   128.14   133.07   138.10   145.28
eigval :      156.36   160.40   162.51   166.92   173.23   184.20
eigval :      188.16   201.92   204.34   206.75   222.41   241.61
eigval :      243.73   266.30   275.52   276.14   278.81   299.98
eigval :      313.80   318.18   319.89   322.66   341.79   359.56
eigval :      376.54   383.10   388.91   389.42   405.75   410.27
eigval :      419.58   433.20   451.26   463.62   468.89   478.76
eigval :      486.64   492.55   494.29   500.08   508.19   514.69
eigval :      518.66   525.39   533.28   536.67   550.11   556.55
eigval :      559.35   570.71   583.89   587.82   590.32   595.58
eigval :      595.94   600.82   605.24   612.07   627.24   658.69
eigval :      663.59   665.39   670.94   674.44   679.22   699.78
eigval :      702.47   712.95   753.63   762.69   769.66   770.33
eigval :      791.49   799.16   810.67   831.85   839.13   840.33
eigval :      843.19   848.67   858.79   861.80   864.18   873.27
eigval :      879.62   882.37   886.27   891.04   894.92   898.74
eigval :      900.20   901.20   904.04   914.43   916.71   917.83
eigval :      924.69   927.13   960.81   962.44   974.27   974.80
eigval :      990.90   995.94  1009.75  1015.91  1017.68  1020.39
eigval :     1025.79  1026.87  1028.06  1028.93  1029.68  1031.09
eigval :     1031.51  1033.76  1039.13  1042.89  1044.81  1059.06
eigval :     1068.27  1072.39  1075.40  1108.61  1115.36  1119.04
eigval :     1130.25  1142.72  1147.38  1167.30  1173.61  1176.06
eigval :     1176.97  1188.56  1196.98  1199.47  1203.89  1206.48
eigval :     1218.89  1226.34  1233.86  1234.86  1237.46  1253.70
eigval :     1256.94  1261.38  1270.06  1288.84  1297.03  1305.05
eigval :     1309.99  1312.40  1313.76  1318.25  1324.65  1331.90
eigval :     1333.88  1347.61  1351.89  1364.43  1377.08  1399.73
eigval :     1400.56  1401.27  1401.53  1403.27  1409.57  1413.42
eigval :     1417.19  1420.16  1426.56  1428.54  1429.60  1430.57
eigval :     1439.55  1452.22  1455.81  1457.61  1464.64  1470.17
eigval :     1474.07  1476.33  1480.31  1481.01  1481.57  1482.06
eigval :     1483.18  1485.19  1486.97  1489.25  1490.04  1493.71
eigval :     1494.32  1514.43  1522.79  1525.53  1538.80  1551.33
eigval :     1556.58  1559.07  1566.68  1569.89  1576.45  1582.26
eigval :     1587.23  2980.07  2980.75  2983.52  2984.60  3005.62
eigval :     3007.20  3011.40  3016.45  3017.92  3018.94  3021.79
eigval :     3022.67  3024.39  3027.34  3028.71  3029.77  3030.60
eigval :     3033.01  3045.44  3045.95  3048.79  3050.58  3072.77
eigval :     3075.25  3077.12  3078.37  3080.29  3081.74  3081.94
eigval :     3086.21  3087.86  3089.31  3089.83  3090.94  3091.09
eigval :     3095.53  3097.08  3097.53  3100.53  3104.41  3109.86

   temp. (K)  partition function   enthalpy   heat capacity  entropy
                                   cal/mol     cal/K/mol   cal/K/mol   J/K/mol
 298.15  VIB  0.615E+22            27321.614    166.806    172.470
         ROT  0.116E+09              888.752      2.981     39.881
         INT  0.713E+30            28210.367    169.787    212.351
         TR   0.163E+29             1481.254      4.968     45.307
         TOT                       29691.6205   174.7554   257.6587  1078.0441

       T/K    H(0)-H(T)+PV         H(T)/Eh          T*S/Eh         G(T)/Eh
   ------------------------------------------------------------------------
    298.15    0.473166E-01    0.776911E+00    0.122422E+00    0.654489E+00
   ------------------------------------------------------------------------

         :::::::::::::::::::::::::::::::::::::::::::::::::::::
         ::                  THERMODYNAMIC                  ::
         :::::::::::::::::::::::::::::::::::::::::::::::::::::
         :: total free energy        -130.189734559745 Eh   ::
         ::.................................................::
         :: total energy             -130.844223446909 Eh   ::
         :: zero point energy           0.729594248137 Eh   ::
         :: G(RRHO) w/o ZPVE           -0.075105360973 Eh   ::
         :: G(RRHO) contrib.            0.654488887164 Eh   ::
         :::::::::::::::::::::::::::::::::::::::::::::::::::::

           -------------------------------------------------
          | TOTAL ENERGY             -130.844223446909 Eh   |
          | TOTAL ENTHALPY           -130.067312589717 Eh   |
          | TOTAL FREE ENERGY        -130.189734559745 Eh   |
          | GRADIENT NORM               0.000059968805 Eh/α |
          | HOMO-LUMO GAP               0.153159672964 eV   |
           -------------------------------------------------

 * finished run on 2025/07/19 at 03:57:16.993
