   * xtb version 6.7.1 (edcfbbe) compiled by 'albert@albert-system' on 2024-07-22

   ID    Z sym.   atoms
    1    6 C      1-9, 11-13, 15-31, 35-46, 48-60
    2    7 N      10, 14, 47
    3   16 S      32
    4    8 O      33, 34
    5    1 H      61-103

          program call               : xtb data2507/toluene/BCZ-DPS-AD/BCZ-DPS-AD_toluene_S0_finalOpt.xtbopt.xyz --gfn 2 --uhf 2 --gbsa toluene --ohess vtight --parallel 40 --molden --ceasefiles --namespace data2507/toluene/BCZ-DPS-AD/BCZ-DPS-AD_toluene_T1_preOpt
      * Solvation model:               GBSA
        Solvent                        toluene
        Solvent mass                       9.2140E+01 g/mol
          :  Hamiltonian                  GFN2-xTB          :
 * total energy  :  -157.7631507 Eh     change        0.1261361E-07 Eh
 * total energy  :  -157.7663227 Eh     change       -0.3171970E-02 Eh
 * total energy  :  -157.7677317 Eh     change       -0.1409044E-02 Eh
 * total energy  :  -157.7679140 Eh     change       -0.1823210E-03 Eh
 * total energy  :  -157.7680876 Eh     change       -0.1735314E-03 Eh
 * total energy  :  -157.7681364 Eh     change       -0.4887278E-04 Eh
 * total energy  :  -157.7682250 Eh     change       -0.8857322E-04 Eh
 * total energy  :  -157.7682622 Eh     change       -0.3715884E-04 Eh
 * total energy  :  -157.7682875 Eh     change       -0.2528383E-04 Eh
 * total energy  :  -157.7683088 Eh     change       -0.2136074E-04 Eh
 * total energy  :  -157.7703716 Eh     change       -0.3942242E-06 Eh
 * total energy  :  -157.7703720 Eh     change       -0.3644190E-06 Eh
 * total energy  :  -157.7703724 Eh     change       -0.3974921E-06 Eh
 * total energy  :  -157.7703728 Eh     change       -0.4523973E-06 Eh
 * total energy  :  -157.7703733 Eh     change       -0.4852393E-06 Eh
 * total energy  :  -157.7703739 Eh     change       -0.5220500E-06 Eh
 * total energy  :  -157.7703744 Eh     change       -0.5624659E-06 Eh
 * total energy  :  -157.7703750 Eh     change       -0.5969176E-06 Eh
 * total energy  :  -157.7703750 Eh     change       -0.3467022E-08 Eh
   *** GEOMETRY OPTIMIZATION CONVERGED AFTER 260 ITERATIONS ***

 final structure:
================
103
 xtb: 6.7.1 (edcfbbe)
C            5.80024131176457       -2.05266888397735        2.98330232496781
C            5.34653294736722       -2.21458774123546        1.51886533622689
C            6.13640443699197       -3.35287612862460        0.84189021590118
C            3.87534228304848       -2.56992235412419        1.50214561367516
C            3.43579080872318       -3.72116095314488        2.14259051312041
C            2.10183965232053       -4.08558517413958        2.15903350325763
C            1.16373497769467       -3.28460758181826        1.52303396382785
C            1.57000098625181       -2.14084100145567        0.87504371201309
C            2.92290397366486       -1.76887566497348        0.84999678034786
N            3.29824645097871       -0.61765314879403        0.19334944033027
C            2.29457774408000        0.15957434747759       -0.45688322512735
C            1.75662166654682        1.26818100847606        0.22851882002160
C            0.73614149646579        2.00558607848330       -0.40846571408641
N            0.14437649696748        3.09743296766491        0.29374383489377
C           -0.90976807954591        2.83909121608661        1.14185848523095
C           -1.32513554655496        1.51395820468402        1.34159085579538
C           -2.37344212372032        1.22297970931949        2.18439314013488
C           -3.03904689239338        2.25040206065174        2.83765097189254
C           -2.63467177728089        3.55845927272697        2.64222688905315
C           -1.57212291167210        3.88284575657399        1.80869009201605
C           -1.16597124634051        5.33067102679079        1.63457942625904
C           -0.79187990409378        5.90850358351398        3.01415281796265
C           -2.35622934576208        6.10900799843524        1.03914816681606
C            0.02117011532459        5.47854176122129        0.70695896658322
C            0.54347553227907        6.73839136703763        0.44638305452521
C            1.62590766996193        6.92219137133794       -0.39463708164111
C            2.21630677350362        5.82359513708808       -1.00372043191173
C            1.71802363476017        4.56276868697051       -0.76882987794807
C            0.61858826062103        4.37171694033966        0.08114091340699
C            0.28847596381815        1.67511241903591       -1.65989625399940
C            0.85893337215983        0.57929907741405       -2.34475089537502
S           -0.01956054198297       -0.11798950970513       -3.68887174376784
O            0.82839236721102       -1.09886255242490       -4.35521306047697
O           -0.56439353093685        0.94362781466995       -4.52655670588446
C           -1.35776055700627       -0.94658824048575       -2.87056076852453
C           -2.54875980927114       -0.24282387565014       -2.65708805433933
C           -3.52412597488668       -0.73477587775106       -1.81609770211844
C           -3.27540333143653       -1.93973997103167       -1.16361152486285
C           -2.07700244197291       -2.66994798195157       -1.39538873169524
C           -1.10787384940400       -2.16075748612200       -2.24246822917736
C           -2.17837733598262       -3.87196545864737       -0.61572194738919
C           -1.33200510270092       -4.95638651073616       -0.42119244887428
C           -1.72853932388128       -5.95982341826812        0.44488999954802
C           -2.94311062993294       -5.88319856759341        1.12171019727534
C           -3.80497611522891       -4.81491774329412        0.94049372421545
C           -3.42568687710440       -3.81703555313035        0.05262365849186
N           -4.07622651324295       -2.64725079757185       -0.28711845449187
C           -5.33577656084466       -2.24242859032167        0.17704149849029
C           -6.41796334439369       -3.11943240408090        0.12720189318791
C           -7.65619168814167       -2.71546402742331        0.59010609054849
C           -7.83163087879030       -1.43798148856195        1.09892016263970
C           -6.75783688365012       -0.56240640919800        1.14382424635800
C           -5.51420863460622       -0.95860696619649        0.68957356215727
C            1.85424388365402       -0.19192896847413       -1.70573651535666
C            4.60779233248089       -0.19671182798305        0.14152239827207
C            4.92615867943381        0.97601624115472       -0.55993008648033
C            6.22367301065210        1.42995271402628       -0.62193006042320
C            7.23355841895107        0.71878671029802        0.01097703080291
C            6.92671711882659       -0.44501966960771        0.69223576413997
C            5.62713178810428       -0.92707721238831        0.77465558911409
H            5.63302832400716       -2.96905544767764        3.54094852817928
H            6.85734000589670       -1.81032198311215        3.03371727277120
H            5.23859590267344       -1.25129852188324        3.45932793049888
H            7.20096526996775       -3.13905123561697        0.84757613928212
H            5.97342216328800       -4.29426757042403        1.35787367814638
H            5.81312735741376       -3.46560282135435       -0.19151043366324
H            4.15025983202582       -4.35522423075287        2.64362168146552
H            1.79292668916057       -4.98745834039141        2.66463926160911
H            0.11941303060082       -3.55629111061484        1.52434140175745
H            0.84427018478963       -1.52538130552714        0.36790759310651
H            2.10051185484853        1.53281006142796        1.21346979815581
H           -0.81289538805860        0.71878179187810        0.82500744881633
H           -2.66996627572023        0.19567846500179        2.33335920108906
H           -3.86633992869576        2.03219627713219        3.49541087982586
H           -3.16468890743325        4.34440039382335        3.15694323148132
H           -1.62952453770548        5.83718401439306        3.70115892950057
H            0.04665125589124        5.35544899628945        3.43278162639487
H           -0.50827926574908        6.95306422913328        2.93003113300564
H           -2.61736628507036        5.70038328817231        0.06456840711997
H           -2.10620598049358        7.15851497922677        0.91589374442822
H           -3.22537513207553        6.03754206831614        1.68624593589557
H            0.09705513305583        7.60493818681331        0.90841004384272
H            2.00697764867359        7.91549610342549       -0.57553215287660
H            3.06201622364011        5.95186884106218       -1.66202716583705
H            2.16586955791079        3.70525504768635       -1.24506023222494
H           -0.49601312665377        2.23172698461600       -2.14763195304917
H           -2.68385894528717        0.68474376742792       -3.19147609709196
H           -4.45376394297750       -0.20398074420809       -1.68060332906479
H           -0.18313762487138       -2.67858300211358       -2.44329036281313
H           -0.38402787291878       -5.00603768617672       -0.93554665276285
H           -1.08446751090497       -6.81155152519193        0.60692795671231
H           -3.21966186782189       -6.67353035208546        1.80399599618877
H           -4.73703105975492       -4.75864782800925        1.48153965235072
H           -6.28487458506308       -4.10498763006465       -0.29326815819726
H           -8.49108765814532       -3.39925979075696        0.54453598864077
H           -8.80130861219159       -1.12564569265039        1.45609268252784
H           -6.88745330337517        0.43364337829010        1.54075227733538
H           -4.67332175333856       -0.28361226986534        0.73655827706814
H            2.25237190805883       -1.04548132903173       -2.23116809605735
H            4.13875499329402        1.51675902717245       -1.05974436964682
H            6.44966516034974        2.33462583437075       -1.16552668810271
H            8.25433492604575        1.06631341075113       -0.03219636732243
H            7.72666491281432       -0.98922094982648        1.16918148564990

          :  Hamiltonian                  GFN2-xTB          :
         :: gradient norm              0.000045727353 Eh/a0 ::
         :: HOMO-LUMO gap              0.146306450718 eV    ::
         :: SCC energy              -160.497254683062 Eh    ::
         :: -> dispersion             -0.156957455679 Eh    ::
         :: -> Gsolv                  -0.078720060221 Eh    ::
         :: repulsion energy           2.726879663892 Eh    ::

    * Orbital Energies and Occupations

         #    Occupation            Energy/Eh            Energy/eV
      -------------------------------------------------------------
         1        2.0000           -0.7454043             -20.2835
       ...           ...                  ...                  ...
       135        2.0000           -0.4110538             -11.1853
       136        2.0000           -0.4093908             -11.1401
       137        2.0000           -0.4079618             -11.1012
       138        2.0000           -0.4068645             -11.0713
       139        2.0000           -0.4064745             -11.0607
       140        2.0000           -0.4057189             -11.0402
       141        2.0000           -0.3972349             -10.8093
       142        2.0000           -0.3870151             -10.5312
       143        2.0000           -0.3804474             -10.3525
       144        1.9398           -0.3645855              -9.9209
       145        1.7457           -0.3629967              -9.8776
       146        1.3145           -0.3612345              -9.8297
       147        0.9442           -0.2532087              -6.8902 (HOMO)
       148        0.0557           -0.2478323              -6.7439 (LUMO)
       149        0.0001           -0.2412809              -6.5656
       150        0.0001           -0.2411714              -6.5626
       151                         -0.2336448              -6.3578
       152                         -0.2331625              -6.3447
       153                         -0.2328801              -6.3370
       154                         -0.2324410              -6.3250
       155                         -0.2318159              -6.3080
       156                         -0.2294179              -6.2428
       157                         -0.2288279              -6.2267
       158                         -0.2259565              -6.1486
       ...                                ...                  ...
       288                          1.1503677              31.3031
      -------------------------------------------------------------
                  HL-Gap            0.0053763 Eh            0.1463 eV

     #   Z          covCN         q      C6AA      α(0)
     1   6 C        3.761    -0.109    22.625     6.781
     2   6 C        3.909     0.024    20.111     6.374
     3   6 C        3.761    -0.108    22.601     6.777
     4   6 C        2.978    -0.002    28.059     8.689
     5   6 C        2.925    -0.033    28.825     8.805
     6   6 C        2.917    -0.031    28.768     8.795
     7   6 C        2.917    -0.027    28.670     8.780
     8   6 C        2.923    -0.045    29.123     8.850
     9   6 C        2.930     0.062    26.605     8.459
    10   7 N        2.757    -0.018    21.592     6.901
    11   6 C        2.925     0.052    26.841     8.496
    12   6 C        2.916    -0.098    30.460     9.050
    13   6 C        2.925     0.052    26.841     8.496
    14   7 N        2.757    -0.020    21.628     6.907
    15   6 C        2.931     0.062    26.610     8.460
    16   6 C        2.923    -0.047    29.165     8.856
    17   6 C        2.918    -0.028    28.700     8.785
    18   6 C        2.917    -0.032    28.799     8.800
    19   6 C        2.925    -0.033    28.831     8.805
    20   6 C        2.978    -0.002    28.065     8.690
    21   6 C        3.909     0.024    20.112     6.374
    22   6 C        3.761    -0.109    22.623     6.780
    23   6 C        3.761    -0.107    22.596     6.776
    24   6 C        2.978    -0.002    28.071     8.691
    25   6 C        2.925    -0.033    28.827     8.805
    26   6 C        2.917    -0.032    28.801     8.801
    27   6 C        2.917    -0.028    28.698     8.785
    28   6 C        2.923    -0.047    29.155     8.855
    29   6 C        2.930     0.062    26.606     8.459
    30   6 C        2.961    -0.056    29.377     8.890
    31   6 C        2.963    -0.119    31.011     9.134
    32  16 S        3.854     0.858   110.835    17.719
    33   8 O        0.860    -0.601    26.138     6.855
    34   8 O        0.860    -0.602    26.171     6.859
    35   6 C        2.967    -0.094    30.350     9.036
    36   6 C        2.965    -0.043    29.075     8.845
    37   6 C        2.908    -0.050    29.252     8.869
    38   6 C        3.069     0.037    27.104     8.537
    39   6 C        3.062    -0.017    28.365     8.734
    40   6 C        2.956    -0.042    29.051     8.840
    41   6 C        3.063    -0.018    28.386     8.737
    42   6 C        2.912    -0.035    28.874     8.811
    43   6 C        2.919    -0.041    29.013     8.833
    44   6 C        2.922    -0.036    28.905     8.817
    45   6 C        2.909    -0.052    29.284     8.873
    46   6 C        3.069     0.047    26.870     8.500
    47   7 N        2.799    -0.035    21.920     6.954
    48   6 C        2.912     0.061    26.634     8.463
    49   6 C        2.921    -0.043    29.061     8.840
    50   6 C        2.919    -0.028    28.707     8.786
    51   6 C        2.919    -0.034    28.856     8.809
    52   6 C        2.919    -0.028    28.709     8.787
    53   6 C        2.922    -0.044    29.087     8.844
    54   6 C        2.960    -0.055    29.361     8.888
    55   6 C        2.930     0.062    26.602     8.459
    56   6 C        2.923    -0.046    29.154     8.855
    57   6 C        2.917    -0.028    28.695     8.784
    58   6 C        2.917    -0.032    28.788     8.799
    59   6 C        2.925    -0.033    28.825     8.805
    60   6 C        2.978    -0.001    28.057     8.689
    61   1 H        0.925     0.053     2.281     2.362
    62   1 H        0.925     0.053     2.280     2.362
    63   1 H        0.925     0.039     2.466     2.456
    64   1 H        0.925     0.053     2.286     2.364
    65   1 H        0.925     0.053     2.286     2.364
    66   1 H        0.925     0.035     2.521     2.483
    67   1 H        0.926     0.052     2.293     2.368
    68   1 H        0.926     0.046     2.372     2.408
    69   1 H        0.926     0.043     2.415     2.430
    70   1 H        0.926     0.035     2.519     2.482
    71   1 H        0.926     0.036     2.506     2.476
    72   1 H        0.926     0.036     2.507     2.476
    73   1 H        0.926     0.041     2.433     2.439
    74   1 H        0.926     0.046     2.369     2.407
    75   1 H        0.926     0.051     2.301     2.372
    76   1 H        0.925     0.053     2.282     2.363
    77   1 H        0.925     0.038     2.470     2.458
    78   1 H        0.925     0.053     2.288     2.365
    79   1 H        0.925     0.035     2.523     2.484
    80   1 H        0.925     0.052     2.295     2.369
    81   1 H        0.925     0.053     2.287     2.365
    82   1 H        0.926     0.051     2.306     2.375
    83   1 H        0.926     0.045     2.388     2.416
    84   1 H        0.926     0.042     2.425     2.435
    85   1 H        0.926     0.038     2.470     2.458
    86   1 H        0.926     0.028     2.622     2.532
    87   1 H        0.926     0.030     2.590     2.516
    88   1 H        0.926     0.040     2.447     2.446
    89   1 H        0.926     0.028     2.608     2.525
    90   1 H        0.926     0.028     2.610     2.526
    91   1 H        0.926     0.031     2.566     2.505
    92   1 H        0.926     0.034     2.534     2.489
    93   1 H        0.926     0.035     2.521     2.483
    94   1 H        0.926     0.041     2.439     2.442
    95   1 H        0.926     0.040     2.450     2.448
    96   1 H        0.926     0.039     2.458     2.452
    97   1 H        0.926     0.042     2.428     2.436
    98   1 H        0.926     0.043     2.412     2.428
    99   1 H        0.926     0.030     2.581     2.512
   100   1 H        0.926     0.040     2.450     2.448
   101   1 H        0.926     0.043     2.411     2.428
   102   1 H        0.926     0.045     2.378     2.412
   103   1 H        0.926     0.052     2.300     2.372

molecular dipole:
                 x           y           z       tot (Debye)
 q only:        1.025       1.485       6.940
   full:        0.911       1.436       6.400      16.831

 projected vibrational frequencies (cm⁻¹)
eigval :       -0.00    -0.00     0.00     0.00     0.00     0.00
eigval :        6.11     7.46    12.22    16.68    21.35    25.28
eigval :       29.25    32.78    45.14    47.13    52.95    59.48
eigval :       63.20    69.15    86.93    88.45    93.32    96.56
eigval :       97.57   102.26   114.63   115.58   120.41   129.46
eigval :      136.78   145.74   168.26   179.02   188.66   195.12
eigval :      195.67   196.59   215.32   216.84   219.00   226.18
eigval :      235.26   238.29   244.03   245.94   251.32   263.98
eigval :      290.31   293.93   303.86   304.07   312.86   324.51
eigval :      325.83   334.04   335.50   343.38   355.98   365.99
eigval :      374.90   377.52   380.20   381.48   385.05   391.04
eigval :      392.49   407.20   408.93   415.61   427.59   447.51
eigval :      447.77   450.27   450.85   471.58   493.92   498.27
eigval :      503.14   503.54   506.74   515.85   530.12   534.55
eigval :      540.04   542.56   543.41   546.55   551.05   555.88
eigval :      561.77   582.86   584.58   585.42   589.09   608.84
eigval :      621.58   634.07   634.99   637.91   642.02   657.76
eigval :      668.66   669.23   674.82   687.28   689.11   689.45
eigval :      698.32   701.44   703.08   718.61   760.29   763.41
eigval :      767.04   769.24   769.74   773.47   775.40   779.47
eigval :      794.01   798.92   800.35   823.97   825.10   841.83
eigval :      851.11   863.23   866.39   869.49   870.78   872.79
eigval :      879.66   888.98   896.42   896.73   905.24   910.29
eigval :      910.97   911.34   913.74   914.83   915.36   916.77
eigval :      917.46   919.02   919.28   923.01   926.01   927.16
eigval :      931.87   936.30   936.86   937.40   957.78   958.70
eigval :      970.45   992.41  1003.59  1009.09  1010.97  1012.50
eigval :     1036.07  1047.10  1063.46  1070.89  1072.82  1073.30
eigval :     1077.07  1077.83  1085.31  1101.53  1104.61  1109.64
eigval :     1110.46  1116.70  1118.29  1129.81  1135.68  1135.92
eigval :     1136.84  1145.80  1146.29  1151.53  1169.09  1170.65
eigval :     1173.26  1174.78  1176.87  1179.31  1180.51  1182.14
eigval :     1182.31  1192.97  1194.48  1202.54  1203.93  1213.67
eigval :     1229.57  1230.56  1237.92  1238.34  1240.45  1254.29
eigval :     1257.32  1258.76  1271.86  1286.61  1290.99  1291.37
eigval :     1291.77  1312.81  1315.70  1316.37  1318.00  1328.72
eigval :     1328.98  1333.89  1334.62  1334.88  1342.57  1346.44
eigval :     1358.61  1358.89  1385.71  1396.43  1396.47  1407.51
eigval :     1414.78  1415.07  1415.07  1415.64  1417.49  1426.11
eigval :     1427.34  1430.45  1440.85  1452.03  1452.50  1459.97
eigval :     1469.42  1470.16  1472.47  1476.03  1480.01  1480.40
eigval :     1481.05  1482.22  1482.41  1490.86  1491.27  1495.51
eigval :     1496.62  1539.98  1547.53  1547.89  1554.91  1557.82
eigval :     1560.06  1565.30  1572.98  1573.72  1573.98  1581.12
eigval :     1583.07  1586.53  3026.49  3026.98  3030.11  3030.73
eigval :     3048.15  3049.09  3051.03  3051.21  3055.03  3055.79
eigval :     3059.52  3059.69  3073.80  3076.84  3079.23  3080.10
eigval :     3083.88  3085.28  3085.40  3085.70  3087.91  3088.04
eigval :     3089.98  3091.56  3091.80  3092.29  3093.98  3094.35
eigval :     3094.67  3095.11  3097.34  3099.80  3099.91  3101.38
eigval :     3101.56  3101.87  3102.17  3102.47  3109.46  3110.63
eigval :     3113.78  3116.76  3120.94

   temp. (K)  partition function   enthalpy   heat capacity  entropy
                                   cal/mol     cal/K/mol   cal/K/mol   J/K/mol
 298.15  VIB  0.138E+25            30706.270    192.095    191.687
         ROT  0.126E+09              888.752      2.981     40.049
         INT  0.173E+33            31595.023    195.076    231.736
         TR   0.218E+29             1481.254      4.968     45.888
         TOT                       33076.2766   200.0440   277.6241  1161.5791

       T/K    H(0)-H(T)+PV         H(T)/Eh          T*S/Eh         G(T)/Eh
   ------------------------------------------------------------------------
    298.15    0.527104E-01    0.852576E+00    0.131908E+00    0.720668E+00
   ------------------------------------------------------------------------

         :::::::::::::::::::::::::::::::::::::::::::::::::::::
         ::                  THERMODYNAMIC                  ::
         :::::::::::::::::::::::::::::::::::::::::::::::::::::
         :: total free energy        -157.049706747266 Eh   ::
         ::.................................................::
         :: total energy             -157.770375017655 Eh   ::
         :: zero point energy           0.799866017910 Eh   ::
         :: G(RRHO) w/o ZPVE           -0.079197747521 Eh   ::
         :: G(RRHO) contrib.            0.720668270389 Eh   ::
         :::::::::::::::::::::::::::::::::::::::::::::::::::::

           -------------------------------------------------
          | TOTAL ENERGY             -157.770375017655 Eh   |
          | TOTAL ENTHALPY           -156.917798597770 Eh   |
          | TOTAL FREE ENERGY        -157.049706747266 Eh   |
          | GRADIENT NORM               0.000044447743 Eh/α |
          | HOMO-LUMO GAP               0.146297828232 eV   |
           -------------------------------------------------

 * finished run on 2025/07/19 at 16:56:28.639
