   * xtb version 6.7.1 (edcfbbe) compiled by 'albert@albert-system' on 2024-07-22

   ID    Z sym.   atoms
    1    6 C      1-9, 11-13, 15-31, 35-46, 48-60
    2    7 N      10, 14, 47
    3   16 S      32
    4    8 O      33, 34
    5    1 H      61-103

          program call               : xtb data2507/toluene/BCZ-DPS-AD/BCZ-DPS-AD.xyz --gfn 2 --gbsa toluene --ohess vtight --parallel 40 --molden --ceasefiles --namespace data2507/toluene/BCZ-DPS-AD/BCZ-DPS-AD_toluene_S0_preOpt
      * Solvation model:               GBSA
        Solvent                        toluene
        Solvent mass                       9.2140E+01 g/mol
          :  Hamiltonian                  GFN2-xTB          :
 * total energy  :  -157.8293391 Eh     change       -0.6480434E-09 Eh
 * total energy  :  -157.8514564 Eh     change       -0.2211721E-01 Eh
 * total energy  :  -157.8593014 Eh     change       -0.7845076E-02 Eh
 * total energy  :  -157.8587311 Eh     change        0.5703136E-03 Eh
 * total energy  :  -157.8607383 Eh     change       -0.2007227E-02 Eh
 * total energy  :  -157.8615218 Eh     change       -0.7834729E-03 Eh
 * total energy  :  -157.8619406 Eh     change       -0.4187535E-03 Eh
 * total energy  :  -157.8621540 Eh     change       -0.2134673E-03 Eh
 * total energy  :  -157.8623119 Eh     change       -0.1578219E-03 Eh
 * total energy  :  -157.8624588 Eh     change       -0.1469900E-03 Eh
 * total energy  :  -157.8633291 Eh     change       -0.1282188E-05 Eh
 * total energy  :  -157.8633301 Eh     change       -0.9311415E-06 Eh
 * total energy  :  -157.8633308 Eh     change       -0.7664131E-06 Eh
 * total energy  :  -157.8633314 Eh     change       -0.5605445E-06 Eh
 * total energy  :  -157.8633319 Eh     change       -0.4817906E-06 Eh
 * total energy  :  -157.8633323 Eh     change       -0.4468635E-06 Eh
 * total energy  :  -157.8633327 Eh     change       -0.3824809E-06 Eh
 * total energy  :  -157.8633329 Eh     change       -0.2238117E-06 Eh
 * total energy  :  -157.8633329 Eh     change       -0.7049579E-08 Eh
   *** GEOMETRY OPTIMIZATION CONVERGED AFTER 68 ITERATIONS ***

 final structure:
================
103
 xtb: 6.7.1 (edcfbbe)
C            5.09783815907954       -4.06319897370758        2.25713392686168
C            4.49283973166054       -3.99716515605149        0.84217335196955
C            4.84336539532176       -5.27195801266041        0.05173903959389
C            2.98392637499358       -3.89881426470023        0.96558601320064
C            2.28625568782392       -4.90780913402521        1.61738434718804
C            0.91536363090383       -4.86127059478715        1.79066511200654
C            0.21131059691667       -3.76932949392456        1.31598706140182
C            0.87915553803144       -2.75611905667864        0.65988603018550
C            2.26129749289383       -2.81429355514644        0.45858286498163
N            2.90617797854379       -1.77678970958226       -0.20717886927491
C            2.12478410619738       -0.74029914653373       -0.76943733282826
C            2.11512124438263        0.52658355074881       -0.19429834633770
C            1.32743790875338        1.54006113968997       -0.73136416270251
N            1.30082577818802        2.81972077597772       -0.12575769459390
C            0.18711476762859        3.18410722121038        0.62146141395578
C           -0.84292702056630        2.26146363140412        0.82579647942090
C           -1.96023437599811        2.59534398733527        1.56255585049042
C           -2.06810903736181        3.85833607585881        2.11584096650535
C           -1.03906953125403        4.76412479337365        1.93491082194901
C            0.09890594151738        4.45376366704098        1.20157277402420
C            1.20580208539884        5.48373817301831        1.07144025500525
C            1.73032017069246        5.82049322229975        2.47998810116622
C            0.63276382644603        6.74624157912393        0.40039043812813
C            2.36013738448982        4.97108710045952        0.23036679884891
C            3.45528460828521        5.79293003015920       -0.00246375634286
C            4.52320671648937        5.39212839753966       -0.78410329242388
C            4.49910119539924        4.13989117367988       -1.37128489471219
C            3.42416478900534        3.30325889903708       -1.15487208231938
C            2.35823692712973        3.69490623889165       -0.34090190399664
C            0.53423983191697        1.27998898561114       -1.84565002109164
C            0.54808941332216        0.01694117012942       -2.40074179480842
S           -0.61060591585073       -0.34517752246488       -3.72896889935448
O           -0.21581688406742       -1.58739531657204       -4.35772192186762
O           -0.72524146846004        0.81819194993615       -4.58186922159955
C           -2.12396367907873       -0.57844359991124       -2.81320602688575
C           -3.04223863637060        0.46355684826167       -2.73831109193942
C           -4.17687829236318        0.34408447176611       -1.96180348925876
C           -4.35875735706546       -0.83958408595279       -1.25208607176350
C           -3.42219451430565       -1.90561647208907       -1.34286163977196
C           -2.28968374215631       -1.76563557169121       -2.13030768729020
C           -3.93453450840836       -2.96779838033908       -0.52497788794132
C           -3.46995623225527       -4.23885297772202       -0.20668384967881
C           -4.22068532945710       -5.01758568948097        0.65071287389597
C           -5.41258432587956       -4.54121170797901        1.19606081568316
C           -5.89524316990931       -3.28281869204902        0.89156233799472
C           -5.15482726972596       -2.50130107426115        0.01491300613703
N           -5.39352086541438       -1.21580694504901       -0.43529173827719
C           -6.52907675348912       -0.43979370113723       -0.12846685274979
C           -7.80166506673813       -0.96491272007173       -0.32720305586248
C           -8.91557630208858       -0.20537947594853       -0.01712299837293
C           -8.76834753080979        1.07870050375946        0.48173756591945
C           -7.50080874071388        1.60368085602703        0.67305571896200
C           -6.38079366914917        0.84865609000210        0.37381791667006
C            1.32950792947471       -0.99506891417631       -1.88506118446904
C            4.28439907370581       -1.76921059546682       -0.39038398905453
C            4.88286177828872       -0.72836472239956       -1.10523543602403
C            6.24914557947022       -0.68238161259159       -1.28782866485212
C            7.04566460126203       -1.68604581887052       -0.76670690828981
C            6.45287017034721       -2.73283063914787       -0.08515723587278
C            5.08002394598603       -2.80262937165157        0.11398188419461
H            4.71378666229968       -4.91980816160633        2.80360865456210
H            6.17995013439142       -4.14605211363445        2.21178137717100
H            4.84508544093273       -3.16065635868571        2.81094850825598
H            4.44871439969708       -6.15530268454434        0.54586632257691
H            4.41591706161211       -5.21745603632004       -0.94825305303082
H            5.91956560567030       -5.38654945490717       -0.04199323580425
H            2.82561841015417       -5.75788063860433        2.00624812020565
H            0.40493265052464       -5.66452211543474        2.30006216815891
H           -0.85703954543868       -3.69944183775610        1.45670851033594
H            0.32092879467157       -1.90503730427762        0.30172457004501
H            2.72209932842121        0.72477597123052        0.67697845344278
H           -0.76453962275356        1.27000194613213        0.40730248124261
H           -2.73790080326349        1.86081392672824        1.71012813175103
H           -2.93823992176570        4.13428031123968        2.69203701036284
H           -1.12845981493931        5.74066927078410        2.38555300107708
H            0.93193643629659        6.20279698826546        3.10969600729326
H            2.13852594202730        4.92589811887876        2.94718124207899
H            2.51477344336351        6.57040696516329        2.43122365195034
H            1.39545011742222        7.51349458696081        0.30254921891943
H           -0.18800842965663        7.15594785522171        0.98212828958408
H            0.26203591199902        6.50245120291597       -0.59387247069462
H            3.48030149426901        6.77922782001777        0.43509453194291
H            5.35974063573174        6.05606745003036       -0.94138052769442
H            5.31239993384718        3.81235156879367       -2.00190019797899
H            3.40230774807004        2.33555325350931       -1.63154958839947
H           -0.08669253766488        2.04740055394235       -2.27959857755762
H           -2.84782285310229        1.35469493580851       -3.31364105979560
H           -4.90136991431745        1.14151306172832       -1.91681080105566
H           -1.55947435879726       -2.55198614819456       -2.23266550392914
H           -2.54129047384051       -4.60036015017619       -0.62114682729466
H           -3.87964369156233       -6.00836297648669        0.91159778360063
H           -5.97026952413134       -5.17035584613886        1.87392401820255
H           -6.81214856651277       -2.91797129003088        1.32810065012608
H           -7.91079779720053       -1.95936855716022       -0.73327248264148
H           -9.90193034519752       -0.61645433111835       -0.17264354441275
H           -9.63997677742647        1.66938610188750        0.72003794713116
H           -7.38147928775554        2.60346760060713        1.06315115199701
H           -5.39155163768870        1.24910262973605        0.53495567883353
H            1.31488498859157       -1.96738696660170       -2.35190843799125
H            4.26771052521145        0.04802151810313       -1.53202973284956
H            6.68640096610146        0.13612991508084       -1.84034501841742
H            8.11675914124651       -1.66185204853217       -0.89920282482157
H            7.08461198946772       -3.51873636004664        0.29963463984048

          :  Hamiltonian                  GFN2-xTB          :
         :: gradient norm              0.000059239299 Eh/a0 ::
         :: HOMO-LUMO gap              2.100408643590 eV    ::
         :: SCC energy              -160.610015755180 Eh    ::
         :: -> dispersion             -0.154430304996 Eh    ::
         :: -> Gsolv                  -0.066670860670 Eh    ::
         :: repulsion energy           2.746682808466 Eh    ::

    * Orbital Energies and Occupations

         #    Occupation            Energy/Eh            Energy/eV
      -------------------------------------------------------------
         1        2.0000           -0.7775336             -21.1578
       ...           ...                  ...                  ...
       134        2.0000           -0.4110291             -11.1847
       135        2.0000           -0.4088486             -11.1253
       136        2.0000           -0.4083003             -11.1104
       137        2.0000           -0.4064680             -11.0606
       138        2.0000           -0.4059648             -11.0469
       139        2.0000           -0.4006416             -10.9020
       140        2.0000           -0.4000137             -10.8849
       141        2.0000           -0.3951283             -10.7520
       142        2.0000           -0.3946109             -10.7379
       143        2.0000           -0.3941757             -10.7261
       144        2.0000           -0.3766258             -10.2485
       145        2.0000           -0.3521796              -9.5833
       146        2.0000           -0.3502972              -9.5321 (HOMO)
       147                         -0.2731086              -7.4317 (LUMO)
       148                         -0.2624481              -7.1416
       149                         -0.2610770              -7.1043
       150                         -0.2475164              -6.7353
       151                         -0.2372464              -6.4558
       152                         -0.2352156              -6.4005
       153                         -0.2272304              -6.1833
       154                         -0.2267155              -6.1692
       155                         -0.2222170              -6.0468
       156                         -0.2214262              -6.0253
       157                         -0.2209138              -6.0114
       ...                                ...                  ...
       288                          1.1683022              31.7911
      -------------------------------------------------------------
                  HL-Gap            0.0771886 Eh            2.1004 eV

     #   Z          covCN         q      C6AA      α(0)
     1   6 C        3.761    -0.105    22.560     6.771
     2   6 C        3.909     0.021    20.162     6.382
     3   6 C        3.761    -0.105    22.546     6.769
     4   6 C        2.979    -0.012    28.298     8.726
     5   6 C        2.928    -0.037    28.912     8.818
     6   6 C        2.917    -0.044    29.105     8.847
     7   6 C        2.919    -0.034    28.844     8.807
     8   6 C        2.924    -0.060    29.483     8.904
     9   6 C        2.927     0.056    26.742     8.481
    10   7 N        2.753    -0.069    22.584     7.058
    11   6 C        2.927     0.081    26.201     8.394
    12   6 C        2.924    -0.047    29.162     8.856
    13   6 C        2.928     0.081    26.199     8.394
    14   7 N        2.754    -0.070    22.592     7.059
    15   6 C        2.928     0.056    26.734     8.479
    16   6 C        2.924    -0.060    29.496     8.906
    17   6 C        2.920    -0.034    28.836     8.806
    18   6 C        2.917    -0.045    29.116     8.848
    19   6 C        2.928    -0.037    28.910     8.818
    20   6 C        2.979    -0.011    28.296     8.726
    21   6 C        3.908     0.021    20.162     6.382
    22   6 C        3.761    -0.105    22.556     6.770
    23   6 C        3.761    -0.105    22.554     6.770
    24   6 C        2.979    -0.012    28.309     8.728
    25   6 C        2.928    -0.037    28.913     8.818
    26   6 C        2.917    -0.045    29.115     8.848
    27   6 C        2.919    -0.033    28.832     8.805
    28   6 C        2.924    -0.059    29.455     8.900
    29   6 C        2.927     0.057    26.726     8.478
    30   6 C        2.963    -0.042    29.034     8.838
    31   6 C        2.969    -0.074    29.843     8.961
    32  16 S        3.834     0.943   108.293    17.515
    33   8 O        0.860    -0.576    25.534     6.775
    34   8 O        0.860    -0.575    25.518     6.773
    35   6 C        2.973    -0.089    30.229     9.019
    36   6 C        2.960    -0.032    28.803     8.803
    37   6 C        2.911    -0.045    29.118     8.848
    38   6 C        3.074     0.052    26.752     8.480
    39   6 C        3.073    -0.010    28.190     8.705
    40   6 C        2.961    -0.033    28.808     8.804
    41   6 C        3.064    -0.015    28.325     8.727
    42   6 C        2.912    -0.031    28.767     8.795
    43   6 C        2.920    -0.038    28.938     8.822
    44   6 C        2.924    -0.030    28.755     8.794
    45   6 C        2.909    -0.047    29.173     8.857
    46   6 C        3.080     0.048    26.846     8.494
    47   7 N        2.802    -0.027    21.766     6.929
    48   6 C        2.913     0.060    26.654     8.466
    49   6 C        2.922    -0.040    28.995     8.830
    50   6 C        2.920    -0.026    28.655     8.778
    51   6 C        2.919    -0.030    28.751     8.793
    52   6 C        2.920    -0.026    28.654     8.778
    53   6 C        2.922    -0.041    29.022     8.834
    54   6 C        2.957    -0.040    28.981     8.830
    55   6 C        2.926     0.057    26.728     8.478
    56   6 C        2.924    -0.059    29.467     8.902
    57   6 C        2.919    -0.034    28.835     8.806
    58   6 C        2.917    -0.045    29.114     8.848
    59   6 C        2.928    -0.037    28.914     8.818
    60   6 C        2.979    -0.012    28.305     8.727
    61   1 H        0.925     0.044     2.394     2.420
    62   1 H        0.925     0.044     2.398     2.422
    63   1 H        0.925     0.032     2.558     2.501
    64   1 H        0.925     0.044     2.395     2.420
    65   1 H        0.925     0.030     2.590     2.517
    66   1 H        0.925     0.043     2.404     2.424
    67   1 H        0.926     0.037     2.484     2.465
    68   1 H        0.926     0.031     2.572     2.508
    69   1 H        0.926     0.032     2.557     2.500
    70   1 H        0.926     0.018     2.767     2.601
    71   1 H        0.926     0.072     2.059     2.244
    72   1 H        0.926     0.016     2.788     2.611
    73   1 H        0.926     0.028     2.610     2.527
    74   1 H        0.926     0.032     2.564     2.504
    75   1 H        0.926     0.038     2.478     2.462
    76   1 H        0.925     0.044     2.393     2.419
    77   1 H        0.925     0.032     2.561     2.502
    78   1 H        0.925     0.044     2.399     2.422
    79   1 H        0.925     0.043     2.403     2.424
    80   1 H        0.925     0.044     2.390     2.418
    81   1 H        0.925     0.030     2.582     2.513
    82   1 H        0.926     0.037     2.487     2.466
    83   1 H        0.926     0.029     2.596     2.519
    84   1 H        0.926     0.028     2.610     2.526
    85   1 H        0.926     0.018     2.766     2.601
    86   1 H        0.926     0.064     2.150     2.293
    87   1 H        0.926     0.053     2.278     2.360
    88   1 H        0.926     0.059     2.215     2.327
    89   1 H        0.926     0.051     2.312     2.378
    90   1 H        0.926     0.039     2.465     2.455
    91   1 H        0.926     0.038     2.476     2.461
    92   1 H        0.926     0.041     2.438     2.442
    93   1 H        0.926     0.042     2.428     2.437
    94   1 H        0.926     0.046     2.370     2.407
    95   1 H        0.926     0.045     2.386     2.416
    96   1 H        0.926     0.044     2.401     2.423
    97   1 H        0.926     0.045     2.380     2.413
    98   1 H        0.926     0.045     2.381     2.413
    99   1 H        0.926     0.067     2.122     2.278
   100   1 H        0.926     0.019     2.745     2.591
   101   1 H        0.926     0.029     2.604     2.523
   102   1 H        0.926     0.029     2.595     2.519
   103   1 H        0.926     0.037     2.488     2.467

molecular dipole:
                 x           y           z       tot (Debye)
 q only:       -1.862       0.188       3.679
   full:       -1.827       0.215       3.285       9.569

 projected vibrational frequencies (cm⁻¹)
eigval :       -0.00    -0.00    -0.00     0.00     0.00     0.00
eigval :       -3.99     7.51     9.11    13.94    17.38    19.60
eigval :       24.31    32.81    43.64    44.43    48.95    56.67
eigval :       63.40    65.50    81.79    89.49    95.97    99.09
eigval :      102.36   103.66   114.06   118.50   125.91   137.46
eigval :      141.47   156.66   167.61   178.10   188.12   193.99
eigval :      200.85   203.33   218.26   220.33   223.62   225.13
eigval :      237.00   241.94   242.94   246.93   263.31   269.65
eigval :      281.78   295.73   306.14   307.77   316.33   330.93
eigval :      332.63   337.21   338.84   346.16   354.62   367.35
eigval :      369.79   378.24   380.11   383.99   386.37   394.57
eigval :      398.88   409.57   411.67   425.41   442.76   449.46
eigval :      454.21   455.24   474.02   484.09   490.50   498.59
eigval :      504.68   515.43   517.13   533.12   535.98   538.95
eigval :      543.84   547.09   549.25   550.15   557.71   572.27
eigval :      583.60   585.83   587.75   591.12   599.05   612.07
eigval :      620.78   639.15   646.68   655.60   671.27   676.92
eigval :      677.03   678.78   682.91   684.69   693.61   694.40
eigval :      695.63   708.98   723.76   764.48   766.52   770.42
eigval :      774.02   778.07   778.82   779.56   782.25   803.78
eigval :      819.84   822.75   823.97   834.33   860.80   865.98
eigval :      868.42   868.87   871.88   874.58   883.23   891.36
eigval :      898.59   900.96   906.69   909.53   913.09   914.01
eigval :      914.82   915.15   916.36   916.78   917.22   920.37
eigval :      920.63   922.97   923.71   924.21   924.63   927.17
eigval :      933.84   934.50   937.45   938.49   956.39   957.87
eigval :      991.81   996.74  1013.87  1014.09  1014.72  1022.07
eigval :     1066.48  1069.81  1075.92  1076.28  1078.23  1086.31
eigval :     1089.31  1093.89  1108.00  1111.74  1113.73  1114.45
eigval :     1117.84  1119.16  1121.65  1138.65  1138.99  1139.97
eigval :     1147.78  1158.46  1158.79  1174.71  1175.90  1176.63
eigval :     1178.05  1180.75  1182.42  1185.29  1187.66  1189.16
eigval :     1191.60  1194.18  1204.65  1214.28  1214.36  1236.51
eigval :     1238.22  1245.59  1248.02  1250.09  1263.57  1268.69
eigval :     1269.91  1273.54  1282.88  1291.84  1292.95  1296.58
eigval :     1301.83  1315.18  1321.68  1323.60  1328.37  1331.61
eigval :     1332.31  1334.42  1339.53  1351.82  1353.88  1368.42
eigval :     1399.70  1399.81  1414.24  1414.43  1418.09  1418.36
eigval :     1426.44  1431.60  1433.12  1435.16  1437.77  1439.33
eigval :     1444.25  1462.08  1475.48  1476.99  1478.36  1481.87
eigval :     1485.54  1485.97  1486.30  1487.47  1490.89  1494.55
eigval :     1495.50  1496.57  1501.38  1502.78  1540.36  1561.49
eigval :     1574.39  1574.69  1578.27  1579.34  1582.85  1586.50
eigval :     1589.92  1590.38  1590.61  1590.95  1592.28  1600.01
eigval :     1600.49  1607.47  3020.21  3022.81  3024.33  3025.23
eigval :     3040.64  3040.76  3042.66  3043.21  3049.09  3049.16
eigval :     3053.53  3053.54  3075.08  3075.53  3075.87  3077.79
eigval :     3079.10  3079.70  3082.05  3082.34  3082.66  3082.69
eigval :     3083.56  3085.40  3091.33  3092.30  3092.42  3093.27
eigval :     3093.44  3093.49  3095.59  3096.58  3098.82  3098.99
eigval :     3099.39  3099.92  3100.30  3101.11  3103.26  3106.82
eigval :     3108.82  3109.69  3112.38

   temp. (K)  partition function   enthalpy   heat capacity  entropy
                                   cal/mol     cal/K/mol   cal/K/mol   J/K/mol
 298.15  VIB  0.453E+25            30398.789    189.422    190.880
         ROT  0.139E+09              888.752      2.981     40.249
         INT  0.632E+33            31287.542    192.403    231.128
         TR   0.218E+29             1481.254      4.968     45.888
         TOT                       32768.7954   197.3715   277.0164  1159.0367

       T/K    H(0)-H(T)+PV         H(T)/Eh          T*S/Eh         G(T)/Eh
   ------------------------------------------------------------------------
    298.15    0.522204E-01    0.857563E+00    0.131619E+00    0.725944E+00
   ------------------------------------------------------------------------

         :::::::::::::::::::::::::::::::::::::::::::::::::::::
         ::                  THERMODYNAMIC                  ::
         :::::::::::::::::::::::::::::::::::::::::::::::::::::
         :: total free energy        -157.137389185456 Eh   ::
         ::.................................................::
         :: total energy             -157.863332944533 Eh   ::
         :: zero point energy           0.805342803849 Eh   ::
         :: G(RRHO) w/o ZPVE           -0.079399044772 Eh   ::
         :: G(RRHO) contrib.            0.725943759077 Eh   ::
         :::::::::::::::::::::::::::::::::::::::::::::::::::::

           -------------------------------------------------
          | TOTAL ENERGY             -157.863332944533 Eh   |
          | TOTAL ENTHALPY           -157.005769741181 Eh   |
          | TOTAL FREE ENERGY        -157.137389185456 Eh   |
          | GRADIENT NORM               0.000059227493 Eh/α |
          | HOMO-LUMO GAP               2.100410045440 eV   |
           -------------------------------------------------

 * finished run on 2025/07/19 at 16:39:18.560
