   * xtb version 6.7.1 (edcfbbe) compiled by 'albert@albert-system' on 2024-07-22

   ID    Z sym.   atoms
    1    6 C      1-9, 11-13, 15-31, 35-46, 48-60
    2    7 N      10, 14, 47
    3   16 S      32
    4    8 O      33, 34
    5    1 H      61-103

          program call               : xtb data2507/toluene/BCZ-DPS-AD/BCZ-DPS-AD_toluene_S0_crest.xyz --gfn 2 --gbsa toluene --ohess vtight --parallel 40 --molden --ceasefiles --namespace data2507/toluene/BCZ-DPS-AD/BCZ-DPS-AD_toluene_S0_finalOpt
      * Solvation model:               GBSA
        Solvent                        toluene
        Solvent mass                       9.2140E+01 g/mol
          :  Hamiltonian                  GFN2-xTB          :
 * total energy  :  -157.8616574 Eh     change       -0.7713084E-09 Eh
 * total energy  :  -157.8618195 Eh     change       -0.1620674E-03 Eh
 * total energy  :  -157.8619624 Eh     change       -0.1429712E-03 Eh
 * total energy  :  -157.8620131 Eh     change       -0.5066698E-04 Eh
 * total energy  :  -157.8620798 Eh     change       -0.6671993E-04 Eh
 * total energy  :  -157.8621255 Eh     change       -0.4569493E-04 Eh
 * total energy  :  -157.8621642 Eh     change       -0.3864289E-04 Eh
 * total energy  :  -157.8622003 Eh     change       -0.3619564E-04 Eh
 * total energy  :  -157.8622346 Eh     change       -0.3428399E-04 Eh
 * total energy  :  -157.8622677 Eh     change       -0.3309799E-04 Eh
 * total energy  :  -157.8637028 Eh     change       -0.2524417E-06 Eh
 * total energy  :  -157.8637029 Eh     change       -0.1741794E-06 Eh
 * total energy  :  -157.8637031 Eh     change       -0.1689948E-06 Eh
 * total energy  :  -157.8637033 Eh     change       -0.2066781E-06 Eh
 * total energy  :  -157.8637035 Eh     change       -0.2142298E-06 Eh
 * total energy  :  -157.8637038 Eh     change       -0.2252407E-06 Eh
 * total energy  :  -157.8637040 Eh     change       -0.2474107E-06 Eh
 * total energy  :  -157.8637043 Eh     change       -0.2715078E-06 Eh
 * total energy  :  -157.8637043 Eh     change       -0.8119287E-08 Eh
   *** GEOMETRY OPTIMIZATION CONVERGED AFTER 122 ITERATIONS ***

 final structure:
================
103
 xtb: 6.7.1 (edcfbbe)
C            7.12308259646921       -1.05485650924432        2.52305937827702
C            6.30218098584463       -1.66400780707001        1.37100878649092
C            6.95307676859303       -2.97381222897313        0.88737503311045
C            4.90631560509268       -1.97688202396970        1.87736854726149
C            4.74678788572887       -2.86964272282177        2.92941177201862
C            3.50094677475773       -3.21208392970699        3.42187692171636
C            2.37149329652374       -2.65936527411646        2.84573892852276
C            2.50118777815958       -1.76964759356679        1.79931990603854
C            3.76049244393732       -1.40813991935624        1.31221731947266
N            3.86123475207693       -0.50078013597326        0.26359313422947
C            2.67545967570666        0.01714762560110       -0.31242880715509
C            1.96608688041060        1.02027195819004        0.33851888770776
C            0.78390540005352        1.51658942236740       -0.20482007074065
N            0.03022279987520        2.49677957203237        0.47876694256825
C           -1.20601781386178        2.13540454223206        1.00698460202272
C           -1.62008113059086        0.80039116731313        0.96237588143952
C           -2.83694546175482        0.41334483748879        1.48365165962344
C           -3.66854601144216        1.35440149310804        2.06315313152983
C           -3.25058293890450        2.67043110367912        2.13195803079053
C           -2.02539537573374        3.08537093824103        1.62548008399213
C           -1.61250031101830        4.53701130118643        1.77906668158112
C           -1.57329549563240        4.87828769766245        3.28068948395678
C           -2.64280488313554        5.42492001769342        1.05603213489595
C           -0.24338494975527        4.80223341336778        1.18164184867305
C            0.28571975555386        6.08556766776780        1.23527980206502
C            1.51228081377127        6.39977083076373        0.68049135026592
C            2.23322728535444        5.41234091893276        0.03346991998962
C            1.73150572573718        4.12906721529792       -0.03284238286566
C            0.50521371219429        3.80277850755528        0.55249001027425
C            0.31966067496026        1.00492080113408       -1.41334748001164
C            1.02513449991351       -0.00251098447130       -2.03921249756166
S            0.24310254744839       -0.77138410761489       -3.46841968802085
O            1.02461846282619       -1.92625629280716       -3.85486155839404
O            0.00930590915728        0.22904592324002       -4.48769519386260
C           -1.30574667095485       -1.26640766551902       -2.73156950552105
C           -2.48665064490151       -0.62820684178731       -3.09412125366189
C           -3.66094902573760       -0.89049937443659       -2.41742142192538
C           -3.61277001223863       -1.78947335839937       -1.35637886030050
C           -2.40755678340607       -2.45783771910754       -1.00649571442043
C           -1.24087511071365       -2.18344169889737       -1.70248928762231
C           -2.72403781396156       -3.31379406328018        0.10106943828987
C           -1.97255370462811       -4.18085686703339        0.88597374412399
C           -2.60166389987873       -4.84320863975037        1.92073246658028
C           -3.95667596261763       -4.64333225648656        2.18369350339956
C           -4.72337681091184       -3.78607571902078        1.41794210460364
C           -4.10089879596617       -3.12932834221148        0.36515397154738
N           -4.61851036574774       -2.20827251784815       -0.52590616032301
C           -5.94832401067874       -1.74165402230045       -0.54183205531779
C           -7.00229132110203       -2.64393442851751       -0.63273062705843
C           -8.30538308343785       -2.17870174116895       -0.63801316175937
C           -8.56132037837622       -0.81933628884651       -0.56091033516102
C           -7.50965627874119        0.07845840770861       -0.47301156127094
C           -6.20338683866861       -0.37689861372410       -0.45959128827336
C            2.19260257772803       -0.50832586554322       -1.50990764879229
C            5.08700983168951       -0.14702211873952       -0.28586846067558
C            5.13270103591062        0.77730698098620       -1.33320247650999
C            6.33438407865225        1.15454143563793       -1.89592132478120
C            7.51629229180742        0.62056851078335       -1.41483517273011
C            7.47381968419217       -0.28058117342401       -0.36690075421582
C            6.27835390283194       -0.67939795963626        0.21659251331622
H            7.17439884731677       -1.73922930364579        3.36511091185419
H            8.13710349043743       -0.83451661646859        2.20186140310300
H            6.66013650503527       -0.12878613061622        2.85959277626664
H            7.96136255028023       -2.79444197740279        0.52501095151649
H            7.00512153763685       -3.70164748643314        1.69216013501183
H            6.36734932746139       -3.40105282688334        0.07499319916249
H            5.61917442385688       -3.31637967867348        3.38124482079366
H            3.41478808421285       -3.90827587248737        4.24236762114303
H            1.38698956976658       -2.91765959444407        3.20696560068138
H            1.61355055532793       -1.34953006342531        1.35242090790518
H            2.32735752221007        1.40472217903330        1.28106915244233
H           -0.98294052266799        0.05171120293029        0.51779345261486
H           -3.12478930954650       -0.62600855304311        1.44256271583703
H           -4.62627967436820        1.06582521252023        2.46903062100949
H           -3.90048429038424        3.39271225021980        2.60143659014513
H           -2.54320248686097        4.71486890876813        3.74163173941402
H           -0.84267054950858        4.24797407969357        3.78474077925879
H           -1.29444319764324        5.91676456630990        3.43450843736611
H           -2.66146628858243        5.18190678215374       -0.00512606849184
H           -2.39069224752075        6.47615524390029        1.16205601005837
H           -3.63873385355014        5.27146346938771        1.46171527955851
H           -0.27460912121818        6.86973962938143        1.72090482770662
H            1.89438679889781        7.40745334590568        0.74308048097301
H            3.18538635366909        5.63660754115046       -0.42434709312293
H            2.29490145112900        3.37071533815180       -0.55378685333527
H           -0.59428109141925        1.37124399403830       -1.85371299115283
H           -2.45345567747506        0.07215885190250       -3.91396755731850
H           -4.58334108516180       -0.40895616479852       -2.70087517031976
H           -0.30355599131585       -2.66226115260447       -1.46707777211689
H           -0.92163148830064       -4.32579969550004        0.68680254118493
H           -2.03842894787310       -5.52278541184052        2.54272955344524
H           -4.41651724476240       -5.16869877665835        3.00754176080503
H           -5.76766895615935       -3.62589740179806        1.63713819819717
H           -6.79538108491292       -3.70109726911446       -0.70794169056020
H           -9.12270627999062       -2.88080875689968       -0.70898094936970
H           -9.57949760432373       -0.46047108489697       -0.56831285921229
H           -7.70577807277852        1.13832125269189       -0.40813034716906
H           -5.37849987854786        0.31425876311588       -0.37042404269367
H            2.70640887906707       -1.30732322684152       -2.02148600442337
H            4.21531763274122        1.20184584742513       -1.71206985885267
H            6.34318287596524        1.86649681861416       -2.70821078857777
H            8.46345538166911        0.90615073163319       -1.84698119884776
H            8.40446480655409       -0.68282642189055        0.00318587267160

          :  Hamiltonian                  GFN2-xTB          :
         :: gradient norm              0.000063855792 Eh/a0 ::
         :: HOMO-LUMO gap              2.154105900577 eV    ::
         :: SCC energy              -160.609784205560 Eh    ::
         :: -> dispersion             -0.157709758733 Eh    ::
         :: -> Gsolv                  -0.065519312713 Eh    ::
         :: repulsion energy           2.746079918713 Eh    ::

    * Orbital Energies and Occupations

         #    Occupation            Energy/Eh            Energy/eV
      -------------------------------------------------------------
         1        2.0000           -0.7779730             -21.1697
       ...           ...                  ...                  ...
       134        2.0000           -0.4112160             -11.1898
       135        2.0000           -0.4093301             -11.1384
       136        2.0000           -0.4083355             -11.1114
       137        2.0000           -0.4073077             -11.0834
       138        2.0000           -0.4057682             -11.0415
       139        2.0000           -0.4013124             -10.9203
       140        2.0000           -0.3999281             -10.8826
       141        2.0000           -0.3957256             -10.7682
       142        2.0000           -0.3945282             -10.7357
       143        2.0000           -0.3945086             -10.7351
       144        2.0000           -0.3768403             -10.2543
       145        2.0000           -0.3529725              -9.6049
       146        2.0000           -0.3503055              -9.5323 (HOMO)
       147                         -0.2711436              -7.3782 (LUMO)
       148                         -0.2624097              -7.1405
       149                         -0.2619078              -7.1269
       150                         -0.2492964              -6.7837
       151                         -0.2371267              -6.4525
       152                         -0.2348705              -6.3912
       153                         -0.2280934              -6.2067
       154                         -0.2264553              -6.1622
       155                         -0.2231688              -6.0727
       156                         -0.2213844              -6.0242
       157                         -0.2212830              -6.0214
       ...                                ...                  ...
       288                          1.1751845              31.9784
      -------------------------------------------------------------
                  HL-Gap            0.0791620 Eh            2.1541 eV

     #   Z          covCN         q      C6AA      α(0)
     1   6 C        3.761    -0.105    22.557     6.771
     2   6 C        3.908     0.021    20.163     6.382
     3   6 C        3.761    -0.105    22.546     6.769
     4   6 C        2.979    -0.012    28.307     8.727
     5   6 C        2.928    -0.037    28.912     8.818
     6   6 C        2.917    -0.045    29.117     8.849
     7   6 C        2.919    -0.034    28.841     8.807
     8   6 C        2.924    -0.060    29.494     8.906
     9   6 C        2.927     0.057    26.732     8.479
    10   7 N        2.754    -0.071    22.613     7.063
    11   6 C        2.928     0.081    26.196     8.394
    12   6 C        2.924    -0.047    29.176     8.858
    13   6 C        2.927     0.081    26.203     8.395
    14   7 N        2.753    -0.068    22.550     7.053
    15   6 C        2.927     0.056    26.746     8.481
    16   6 C        2.924    -0.060    29.483     8.904
    17   6 C        2.920    -0.034    28.836     8.806
    18   6 C        2.917    -0.044    29.102     8.846
    19   6 C        2.928    -0.037    28.908     8.817
    20   6 C        2.979    -0.011    28.279     8.723
    21   6 C        3.909     0.021    20.160     6.382
    22   6 C        3.761    -0.106    22.566     6.772
    23   6 C        3.761    -0.105    22.561     6.771
    24   6 C        2.979    -0.011    28.295     8.726
    25   6 C        2.928    -0.037    28.910     8.818
    26   6 C        2.917    -0.044    29.101     8.846
    27   6 C        2.919    -0.033    28.834     8.806
    28   6 C        2.924    -0.059    29.474     8.903
    29   6 C        2.925     0.056    26.735     8.479
    30   6 C        2.974    -0.044    29.084     8.846
    31   6 C        2.969    -0.073    29.826     8.958
    32  16 S        3.839     0.946   108.217    17.509
    33   8 O        0.860    -0.576    25.533     6.775
    34   8 O        0.860    -0.576    25.531     6.774
    35   6 C        2.973    -0.088    30.209     9.016
    36   6 C        2.956    -0.031    28.781     8.799
    37   6 C        2.911    -0.045    29.113     8.848
    38   6 C        3.076     0.053    26.722     8.475
    39   6 C        3.074    -0.009    28.165     8.701
    40   6 C        2.969    -0.034    28.838     8.809
    41   6 C        3.064    -0.015    28.328     8.728
    42   6 C        2.912    -0.031    28.767     8.795
    43   6 C        2.920    -0.038    28.937     8.821
    44   6 C        2.924    -0.030    28.748     8.793
    45   6 C        2.909    -0.047    29.176     8.857
    46   6 C        3.081     0.048    26.825     8.491
    47   7 N        2.803    -0.027    21.761     6.928
    48   6 C        2.914     0.060    26.654     8.466
    49   6 C        2.921    -0.040    28.989     8.829
    50   6 C        2.920    -0.026    28.658     8.779
    51   6 C        2.919    -0.030    28.746     8.792
    52   6 C        2.920    -0.026    28.647     8.777
    53   6 C        2.921    -0.041    29.007     8.832
    54   6 C        2.949    -0.038    28.933     8.822
    55   6 C        2.927     0.057    26.722     8.477
    56   6 C        2.924    -0.059    29.474     8.903
    57   6 C        2.919    -0.034    28.846     8.807
    58   6 C        2.917    -0.045    29.119     8.849
    59   6 C        2.928    -0.037    28.916     8.819
    60   6 C        2.979    -0.012    28.310     8.728
    61   1 H        0.925     0.044     2.393     2.419
    62   1 H        0.925     0.043     2.403     2.424
    63   1 H        0.925     0.032     2.558     2.501
    64   1 H        0.925     0.043     2.406     2.426
    65   1 H        0.925     0.044     2.395     2.420
    66   1 H        0.925     0.030     2.591     2.517
    67   1 H        0.926     0.037     2.493     2.469
    68   1 H        0.926     0.030     2.584     2.514
    69   1 H        0.926     0.031     2.567     2.505
    70   1 H        0.926     0.020     2.736     2.586
    71   1 H        0.926     0.073     2.051     2.239
    72   1 H        0.926     0.015     2.816     2.624
    73   1 H        0.926     0.027     2.633     2.538
    74   1 H        0.926     0.033     2.548     2.496
    75   1 H        0.926     0.040     2.453     2.449
    76   1 H        0.925     0.045     2.386     2.415
    77   1 H        0.925     0.032     2.558     2.501
    78   1 H        0.925     0.044     2.394     2.419
    79   1 H        0.925     0.031     2.575     2.509
    80   1 H        0.925     0.044     2.397     2.421
    81   1 H        0.925     0.045     2.381     2.413
    82   1 H        0.926     0.038     2.477     2.461
    83   1 H        0.926     0.030     2.588     2.516
    84   1 H        0.926     0.029     2.597     2.520
    85   1 H        0.926     0.022     2.710     2.574
    86   1 H        0.926     0.059     2.209     2.324
    87   1 H        0.926     0.054     2.275     2.359
    88   1 H        0.926     0.058     2.220     2.330
    89   1 H        0.926     0.045     2.387     2.416
    90   1 H        0.926     0.037     2.490     2.468
    91   1 H        0.926     0.038     2.480     2.463
    92   1 H        0.926     0.041     2.436     2.441
    93   1 H        0.926     0.042     2.426     2.436
    94   1 H        0.926     0.046     2.369     2.407
    95   1 H        0.926     0.045     2.385     2.415
    96   1 H        0.926     0.044     2.399     2.422
    97   1 H        0.926     0.045     2.379     2.412
    98   1 H        0.926     0.047     2.361     2.403
    99   1 H        0.926     0.066     2.130     2.282
   100   1 H        0.926     0.017     2.780     2.607
   101   1 H        0.926     0.028     2.621     2.532
   102   1 H        0.926     0.029     2.597     2.520
   103   1 H        0.926     0.037     2.487     2.466

molecular dipole:
                 x           y           z       tot (Debye)
 q only:       -2.582       0.278       3.471
   full:       -2.470       0.250       3.055      10.005

 projected vibrational frequencies (cm⁻¹)
eigval :       -0.00    -0.00    -0.00     0.00     0.00     0.00
eigval :        5.49     9.11    12.18    14.72    16.48    22.00
eigval :       24.13    32.20    42.16    45.10    53.15    58.16
eigval :       65.15    67.04    84.64    88.37    94.73    97.52
eigval :       99.17    99.57   111.92   121.27   135.74   138.65
eigval :      143.18   147.76   166.88   172.80   198.13   199.87
eigval :      203.82   210.00   221.01   223.56   226.48   228.38
eigval :      235.24   242.53   245.27   248.68   263.20   270.02
eigval :      279.09   297.57   305.69   308.03   315.11   331.78
eigval :      332.76   337.11   339.90   346.61   353.74   367.16
eigval :      370.15   375.29   381.56   384.17   385.92   394.67
eigval :      403.56   409.69   411.37   426.43   441.56   451.31
eigval :      451.85   454.30   475.45   485.57   491.23   498.03
eigval :      513.88   515.65   516.06   529.55   537.49   538.32
eigval :      543.75   547.89   548.22   550.03   556.87   573.94
eigval :      583.60   586.01   588.38   591.41   599.78   612.15
eigval :      620.60   638.91   646.89   655.26   672.89   676.95
eigval :      677.66   679.77   682.66   683.12   693.19   693.88
eigval :      694.64   709.44   724.25   765.13   766.52   770.46
eigval :      775.36   777.68   779.91   780.14   783.40   803.25
eigval :      822.16   824.14   827.76   835.48   866.07   867.38
eigval :      869.63   870.24   871.37   876.35   883.10   892.95
eigval :      899.57   903.63   907.09   911.49   912.33   914.81
eigval :      915.09   915.19   915.72   917.15   919.40   920.42
eigval :      920.92   923.73   924.53   926.10   927.32   928.10
eigval :      934.06   936.21   937.85   938.55   957.01   957.16
eigval :      991.83   997.65  1013.39  1013.68  1015.18  1022.06
eigval :     1066.69  1069.64  1075.85  1075.92  1079.21  1086.21
eigval :     1088.89  1096.16  1108.58  1112.42  1114.34  1117.23
eigval :     1118.24  1119.03  1122.21  1138.91  1139.56  1139.98
eigval :     1148.41  1158.57  1158.84  1174.32  1176.04  1177.79
eigval :     1180.05  1181.40  1185.67  1185.75  1186.79  1187.45
eigval :     1191.72  1196.37  1206.46  1213.85  1215.64  1236.41
eigval :     1237.94  1247.64  1247.82  1248.96  1264.35  1268.53
eigval :     1270.73  1275.07  1282.60  1292.18  1292.80  1297.34
eigval :     1302.91  1314.87  1320.87  1323.06  1327.88  1331.15
eigval :     1331.28  1334.74  1339.79  1351.93  1355.66  1369.82
eigval :     1398.61  1399.20  1414.52  1415.09  1417.42  1418.02
eigval :     1427.32  1431.33  1433.57  1435.07  1437.20  1439.25
eigval :     1444.14  1462.17  1475.12  1476.72  1479.28  1481.93
eigval :     1485.74  1486.33  1487.36  1487.42  1490.59  1494.21
eigval :     1496.05  1497.01  1501.64  1503.08  1540.96  1562.04
eigval :     1574.19  1574.66  1578.48  1580.63  1583.52  1586.71
eigval :     1589.52  1590.27  1590.66  1590.72  1592.36  1599.80
eigval :     1600.06  1607.85  3021.82  3022.18  3025.68  3025.87
eigval :     3040.84  3041.97  3042.89  3044.01  3049.31  3050.33
eigval :     3053.43  3054.28  3073.50  3075.15  3075.96  3078.67
eigval :     3080.44  3080.76  3080.87  3082.61  3082.67  3082.77
eigval :     3084.37  3087.84  3089.19  3089.88  3092.82  3092.88
eigval :     3093.43  3093.97  3094.02  3096.05  3097.16  3098.89
eigval :     3099.74  3099.92  3100.40  3100.69  3101.67  3103.24
eigval :     3106.91  3107.41  3109.19

   temp. (K)  partition function   enthalpy   heat capacity  entropy
                                   cal/mol     cal/K/mol   cal/K/mol   J/K/mol
 298.15  VIB  0.156E+25            30336.590    189.388    189.639
         ROT  0.128E+09              888.752      2.981     40.083
         INT  0.200E+33            31225.343    192.369    229.722
         TR   0.218E+29             1481.254      4.968     45.888
         TOT                       32706.5967   197.3375   275.6102  1153.1532

       T/K    H(0)-H(T)+PV         H(T)/Eh          T*S/Eh         G(T)/Eh
   ------------------------------------------------------------------------
    298.15    0.521213E-01    0.857738E+00    0.130951E+00    0.726787E+00
   ------------------------------------------------------------------------

         :::::::::::::::::::::::::::::::::::::::::::::::::::::
         ::                  THERMODYNAMIC                  ::
         :::::::::::::::::::::::::::::::::::::::::::::::::::::
         :: total free energy        -157.136917435960 Eh   ::
         ::.................................................::
         :: total energy             -157.863704288892 Eh   ::
         :: zero point energy           0.805616890113 Eh   ::
         :: G(RRHO) w/o ZPVE           -0.078830037181 Eh   ::
         :: G(RRHO) contrib.            0.726786852932 Eh   ::
         :::::::::::::::::::::::::::::::::::::::::::::::::::::

           -------------------------------------------------
          | TOTAL ENERGY             -157.863704288892 Eh   |
          | TOTAL ENTHALPY           -157.005966119289 Eh   |
          | TOTAL FREE ENERGY        -157.136917435960 Eh   |
          | GRADIENT NORM               0.000063774558 Eh/α |
          | HOMO-LUMO GAP               2.154106966018 eV   |
           -------------------------------------------------

 * finished run on 2025/07/19 at 16:55:47.963
