   * xtb version 6.7.1 (edcfbbe) compiled by 'albert@albert-system' on 2024-07-22

   ID    Z sym.   atoms
    1    6 C      1-9, 11-13, 15-31, 35-46, 48-60
    2    7 N      10, 14, 47
    3   16 S      32
    4    8 O      33, 34
    5    1 H      61-103

          program call               : xtb data2507/toluene/BCZ-DPS-AD/BCZ-DPS-AD_toluene_T1_crest.xyz --gfn 2 --uhf 2 --gbsa toluene --ohess vtight --parallel 40 --molden --ceasefiles --namespace data2507/toluene/BCZ-DPS-AD/BCZ-DPS-AD_toluene_T1_finalOpt
      * Solvation model:               GBSA
        Solvent                        toluene
        Solvent mass                       9.2140E+01 g/mol
          :  Hamiltonian                  GFN2-xTB          :
 * total energy  :  -157.7667200 Eh     change       -0.1177122E-07 Eh
 * total energy  :  -157.7671249 Eh     change       -0.4048736E-03 Eh
 * total energy  :  -157.7674676 Eh     change       -0.3427554E-03 Eh
 * total energy  :  -157.7675274 Eh     change       -0.5980922E-04 Eh
 * total energy  :  -157.7676012 Eh     change       -0.7375306E-04 Eh
 * total energy  :  -157.7676540 Eh     change       -0.5279658E-04 Eh
 * total energy  :  -157.7677194 Eh     change       -0.6537434E-04 Eh
 * total energy  :  -157.7678000 Eh     change       -0.8063498E-04 Eh
 * total energy  :  -157.7678896 Eh     change       -0.8963477E-04 Eh
 * total energy  :  -157.7679918 Eh     change       -0.1021398E-03 Eh
 * total energy  :  -157.7696500 Eh     change       -0.8600121E-06 Eh
 * total energy  :  -157.7696509 Eh     change       -0.9076311E-06 Eh
 * total energy  :  -157.7696519 Eh     change       -0.9964989E-06 Eh
 * total energy  :  -157.7696529 Eh     change       -0.1015717E-05 Eh
 * total energy  :  -157.7696542 Eh     change       -0.1222900E-05 Eh
 * total energy  :  -157.7696554 Eh     change       -0.1207064E-05 Eh
 * total energy  :  -157.7696566 Eh     change       -0.1267453E-05 Eh
 * total energy  :  -157.7696579 Eh     change       -0.1275577E-05 Eh
 * total energy  :  -157.7696579 Eh     change       -0.4369127E-08 Eh
   *** GEOMETRY OPTIMIZATION CONVERGED AFTER 122 ITERATIONS ***

 final structure:
================
103
 xtb: 6.7.1 (edcfbbe)
C            6.34692755342231       -0.98174693989062        2.96982603722579
C            5.90562604603026       -1.24044742578975        1.51533907815203
C            6.87652698177450       -2.22583154945072        0.83440671802263
C            4.52281942681690       -1.85557966215918        1.52922674035141
C            4.30788164943345       -3.05888372941260        2.18838075714992
C            3.06214798947560       -3.65845986695021        2.22918599664800
C            1.98750991242103       -3.05370506033050        1.59237582093938
C            2.17146212765103       -1.86459898919575        0.92483412176815
C            3.43169984386344       -1.24873918154366        0.88512454114032
N            3.58052378743837       -0.05480205325468        0.21527398968144
C            2.44077559117473        0.51887804885414       -0.42265635597277
C            1.60673263626843        1.36459845438041        0.33682123703065
C            0.45332589834458        1.88433199329667       -0.28649425689360
N           -0.46508151054344        2.62755653946811        0.51193703535747
C           -1.43598668298992        1.92889197395332        1.19631130048799
C           -1.51427214414293        0.53444690049601        1.05612104554234
C           -2.45418388734844       -0.19228112796175        1.75043326302578
C           -3.34685381341611        0.45857198708451        2.59061231421281
C           -3.28695473124688        1.83446041989736        2.71610021894298
C           -2.34338320817959        2.59446686257065        2.03674630420641
C           -2.32186228996549        4.09845550326833        2.20972008681573
C           -2.09509832323636        4.42459527715466        3.69931061467754
C           -3.67827929586901        4.66478235533615        1.74422275449820
C           -1.22055338960510        4.74741312905264        1.39874924284454
C           -1.05038099409095        6.12475947032257        1.43716416924352
C           -0.05376001405456        6.75895335999771        0.71761985703819
C            0.80723994818788        6.00907450938434       -0.07172723702404
C            0.66232274017767        4.64208096433341       -0.13211589817887
C           -0.34726596000789        3.99521133620076        0.59571903098146
C            0.17193893329510        1.62670919511239       -1.60078433380460
C            1.03308864028054        0.79799319529996       -2.35735778491507
S            0.35462678500827        0.03424239046325       -3.78330955710338
O            1.34771108098094       -0.86189306088595       -4.36152514913037
O           -0.20414807298554        1.03883558212093       -4.67957932985068
C           -0.98203309298299       -0.89797039385167       -3.07418448001071
C           -2.25318938421944       -0.31222687585797       -3.03481359644157
C           -3.25723100465223       -0.84507345382970       -2.25142066390320
C           -2.96124461238901       -1.96782443356161       -1.48779155539262
C           -1.67699409882716       -2.58156282139229       -1.54460284245443
C           -0.67954433292373       -2.02814174903123       -2.32898230888491
C           -1.73724565330860       -3.72799821798905       -0.68323713040261
C           -0.81092823387684       -4.69913581623264       -0.32233141383705
C           -1.19172459424310       -5.67392489830671        0.58303159933028
C           -2.46990951673644       -5.67998612012839        1.13404556801715
C           -3.41236121180877       -4.72672765813004        0.78371225052861
C           -3.04586622159016       -3.76066092940305       -0.14317394561998
N           -3.77317622447198       -2.69516273887589       -0.63788932619994
C           -5.11201083044291       -2.40675755957775       -0.33898562543719
C           -6.08028182713703       -3.40647978485945       -0.41909410703397
C           -7.39761591542835       -3.11813679318392       -0.11589100102311
C           -7.76583812677703       -1.83554987316724        0.25974839031603
C           -6.80503218206656       -0.83886341217956        0.33386223682742
C           -5.48395910888406       -1.11790467180299        0.03939377580650
C            2.15543628202874        0.21674349871165       -1.72846020416625
C            4.78823532553619        0.60109411486647        0.14526346012431
C            4.87019319916048        1.81951083061908       -0.54573568319851
C            6.06243645968237        2.50066071096901       -0.63365272867444
C            7.20029141450865        1.97919477995226       -0.03364866190198
C            7.12446793483793        0.77835986886780        0.64826207116513
C            5.93567333688813        0.06925610887025        0.75736957652159
H            6.35888565277255       -1.90687561900736        3.53789554737912
H            7.34289587669778       -0.55057415482143        2.99859567382677
H            5.65690829689728       -0.29044028186915        3.44962051308379
H            7.88566080044033       -1.82515198712155        0.82163653867707
H            6.89215810260053       -3.17585461709260        1.36000912761484
H            6.56373911807285       -2.40493671351241       -0.19276385628902
H            5.13160970085182       -3.54627132546759        2.68588062249954
H            2.92908490865657       -4.59304084410656        2.75206474093656
H            1.00969447179972       -3.50993302374703        1.61129345372115
H            1.34221919745303       -1.39829248581923        0.41786974852533
H            1.82340389457912        1.57662391143494        1.36947610050283
H           -0.83599449191618        0.03012689780173        0.38697653712066
H           -2.49125625354858       -1.26474623011551        1.63596778997198
H           -4.08860944294031       -0.10354108797033        3.13671789992153
H           -3.99561812784695        2.32415890487289        3.36530321890802
H           -2.87531949301000        3.98436770043095        4.31266338131859
H           -1.13516350988507        4.02812769599625        4.02430109276200
H           -2.09756842960787        5.49806102462717        3.86194201272040
H           -3.83761383527850        4.42996538845925        0.69333657883270
H           -3.70641572954205        5.74365564559114        1.86350292399700
H           -4.49217179688178        4.23551503026364        2.32070698305635
H           -1.70947041036887        6.72525648954055        2.04435407932827
H            0.05116522750498        7.83169305891386        0.77065299864828
H            1.58874418700782        6.49120309628398       -0.63909317709972
H            1.32158251972420        4.05137978246833       -0.74825957846064
H           -0.71626861252500        2.01331295052379       -2.07467439319109
H           -2.42321331915502        0.55569641771473       -3.65296501599741
H           -4.24244418064725       -0.40499187204942       -2.24658398356287
H            0.31219582774255       -2.44970993686716       -2.38796222628170
H            0.18319826673865       -4.68599623771755       -0.74328602004848
H           -0.48610573038739       -6.43837536102976        0.87391503952178
H           -2.73427414452078       -6.44404858208406        1.85022558143470
H           -4.39615060713345       -4.73366939408143        1.22715454185657
H           -5.79598282976360       -4.39849913322652       -0.73703704080291
H           -8.14280916976070       -3.89714395342144       -0.18336967001346
H           -8.79665785342440       -1.61432264332518        0.49203429291912
H           -7.08435468457996        0.16165198927582        0.62960999894210
H           -4.72912146223616       -0.35059432574092        0.12022834340218
H            2.76828427273511       -0.45902740242485       -2.30409407417203
H            3.98412391980338        2.21459399008255       -1.01624021219871
H            6.10680978240911        3.43609514145855       -1.17035460907645
H            8.14028718615146        2.50525573881333       -0.09870683164665
H            8.01991594742064        0.38798461344551        1.10580433618967

          :  Hamiltonian                  GFN2-xTB          :
         :: gradient norm              0.000056927531 Eh/a0 ::
         :: HOMO-LUMO gap              0.142111951408 eV    ::
         :: SCC energy              -160.496150753357 Eh    ::
         :: -> dispersion             -0.160516219795 Eh    ::
         :: -> Gsolv                  -0.076693849232 Eh    ::
         :: repulsion energy           2.726492837602 Eh    ::

    * Orbital Energies and Occupations

         #    Occupation            Energy/Eh            Energy/eV
      -------------------------------------------------------------
         1        2.0000           -0.7463161             -20.3083
       ...           ...                  ...                  ...
       135        2.0000           -0.4107677             -11.1776
       136        2.0000           -0.4093595             -11.1392
       137        2.0000           -0.4081143             -11.1054
       138        2.0000           -0.4070574             -11.0766
       139        2.0000           -0.4067699             -11.0688
       140        2.0000           -0.4060851             -11.0501
       141        2.0000           -0.3968794             -10.7996
       142        2.0000           -0.3876702             -10.5490
       143        2.0000           -0.3803915             -10.3510
       144        1.9322           -0.3646956              -9.9239
       145        1.7828           -0.3634227              -9.8892
       146        1.2850           -0.3613312              -9.8323
       147        0.9398           -0.2534688              -6.8972 (HOMO)
       148        0.0601           -0.2482462              -6.7551 (LUMO)
       149        0.0001           -0.2415849              -6.5739
       150        0.0000           -0.2413341              -6.5670
       151                         -0.2339572              -6.3663
       152                         -0.2335019              -6.3539
       153                         -0.2329761              -6.3396
       154                         -0.2326396              -6.3304
       155                         -0.2320417              -6.3142
       156                         -0.2294693              -6.2442
       157                         -0.2289080              -6.2289
       158                         -0.2258977              -6.1470
       ...                                ...                  ...
       288                          1.1550368              31.4302
      -------------------------------------------------------------
                  HL-Gap            0.0052226 Eh            0.1421 eV

     #   Z          covCN         q      C6AA      α(0)
     1   6 C        3.761    -0.109    22.624     6.780
     2   6 C        3.909     0.024    20.111     6.374
     3   6 C        3.761    -0.107    22.601     6.777
     4   6 C        2.978    -0.001    28.058     8.689
     5   6 C        2.925    -0.033    28.829     8.805
     6   6 C        2.917    -0.031    28.772     8.796
     7   6 C        2.917    -0.027    28.683     8.782
     8   6 C        2.923    -0.045    29.129     8.851
     9   6 C        2.931     0.062    26.605     8.459
    10   7 N        2.757    -0.017    21.588     6.901
    11   6 C        2.925     0.051    26.845     8.497
    12   6 C        2.917    -0.097    30.449     9.049
    13   6 C        2.925     0.052    26.826     8.494
    14   7 N        2.757    -0.020    21.627     6.907
    15   6 C        2.932     0.062    26.614     8.461
    16   6 C        2.922    -0.046    29.141     8.853
    17   6 C        2.917    -0.026    28.657     8.778
    18   6 C        2.917    -0.031    28.778     8.797
    19   6 C        2.925    -0.033    28.831     8.805
    20   6 C        2.978    -0.002    28.063     8.690
    21   6 C        3.909     0.024    20.111     6.374
    22   6 C        3.761    -0.109    22.622     6.780
    23   6 C        3.761    -0.108    22.606     6.778
    24   6 C        2.978    -0.002    28.070     8.691
    25   6 C        2.925    -0.033    28.824     8.804
    26   6 C        2.917    -0.032    28.799     8.800
    27   6 C        2.917    -0.028    28.693     8.784
    28   6 C        2.923    -0.047    29.157     8.855
    29   6 C        2.929     0.062    26.604     8.459
    30   6 C        2.970    -0.057    29.416     8.896
    31   6 C        2.963    -0.121    31.066     9.142
    32  16 S        3.859     0.863   110.666    17.706
    33   8 O        0.860    -0.599    26.098     6.849
    34   8 O        0.860    -0.603    26.188     6.861
    35   6 C        2.967    -0.093    30.332     9.034
    36   6 C        2.965    -0.045    29.120     8.851
    37   6 C        2.908    -0.050    29.240     8.867
    38   6 C        3.067     0.038    27.082     8.533
    39   6 C        3.063    -0.018    28.384     8.737
    40   6 C        2.957    -0.041    29.009     8.834
    41   6 C        3.062    -0.018    28.393     8.738
    42   6 C        2.912    -0.037    28.922     8.819
    43   6 C        2.919    -0.041    29.013     8.833
    44   6 C        2.922    -0.037    28.921     8.819
    45   6 C        2.909    -0.053    29.305     8.877
    46   6 C        3.069     0.048    26.863     8.498
    47   7 N        2.798    -0.035    21.926     6.954
    48   6 C        2.912     0.061    26.636     8.463
    49   6 C        2.921    -0.043    29.064     8.841
    50   6 C        2.919    -0.028    28.711     8.787
    51   6 C        2.919    -0.034    28.859     8.809
    52   6 C        2.919    -0.028    28.708     8.786
    53   6 C        2.921    -0.043    29.079     8.843
    54   6 C        2.956    -0.054    29.335     8.884
    55   6 C        2.930     0.062    26.604     8.459
    56   6 C        2.923    -0.046    29.154     8.854
    57   6 C        2.917    -0.028    28.693     8.784
    58   6 C        2.917    -0.032    28.788     8.798
    59   6 C        2.925    -0.033    28.823     8.804
    60   6 C        2.978    -0.001    28.057     8.689
    61   1 H        0.925     0.053     2.279     2.361
    62   1 H        0.925     0.053     2.281     2.362
    63   1 H        0.925     0.039     2.466     2.456
    64   1 H        0.925     0.053     2.287     2.365
    65   1 H        0.925     0.053     2.286     2.364
    66   1 H        0.925     0.035     2.520     2.483
    67   1 H        0.926     0.052     2.296     2.370
    68   1 H        0.926     0.046     2.371     2.408
    69   1 H        0.926     0.045     2.387     2.416
    70   1 H        0.926     0.036     2.498     2.472
    71   1 H        0.926     0.035     2.518     2.481
    72   1 H        0.926     0.032     2.562     2.503
    73   1 H        0.926     0.038     2.471     2.458
    74   1 H        0.926     0.046     2.368     2.407
    75   1 H        0.926     0.053     2.286     2.365
    76   1 H        0.925     0.053     2.280     2.361
    77   1 H        0.925     0.038     2.474     2.460
    78   1 H        0.925     0.053     2.285     2.364
    79   1 H        0.925     0.035     2.514     2.479
    80   1 H        0.925     0.052     2.290     2.366
    81   1 H        0.925     0.053     2.281     2.362
    82   1 H        0.926     0.051     2.303     2.373
    83   1 H        0.926     0.045     2.385     2.415
    84   1 H        0.926     0.042     2.420     2.433
    85   1 H        0.926     0.039     2.460     2.453
    86   1 H        0.926     0.026     2.645     2.543
    87   1 H        0.926     0.029     2.595     2.519
    88   1 H        0.926     0.039     2.458     2.452
    89   1 H        0.926     0.028     2.610     2.527
    90   1 H        0.926     0.028     2.608     2.525
    91   1 H        0.926     0.031     2.575     2.509
    92   1 H        0.926     0.033     2.544     2.494
    93   1 H        0.926     0.034     2.526     2.485
    94   1 H        0.926     0.041     2.440     2.443
    95   1 H        0.926     0.040     2.452     2.449
    96   1 H        0.926     0.039     2.459     2.452
    97   1 H        0.926     0.041     2.432     2.439
    98   1 H        0.926     0.041     2.432     2.438
    99   1 H        0.926     0.031     2.567     2.506
   100   1 H        0.926     0.040     2.452     2.449
   101   1 H        0.926     0.043     2.415     2.430
   102   1 H        0.926     0.045     2.377     2.411
   103   1 H        0.926     0.052     2.298     2.370

molecular dipole:
                 x           y           z       tot (Debye)
 q only:        0.277       1.216       7.158
   full:        0.227       1.171       6.593      17.031

 projected vibrational frequencies (cm⁻¹)
eigval :       -0.00    -0.00    -0.00     0.00     0.00     0.00
eigval :        3.02     9.25    10.70    17.44    20.56    22.78
eigval :       28.14    32.21    44.99    47.84    51.31    61.21
eigval :       62.38    74.35    87.68    88.99    93.00    94.75
eigval :       96.60   103.09   113.80   119.10   130.06   138.47
eigval :      138.63   143.36   168.22   176.48   194.45   195.45
eigval :      200.25   201.67   216.64   217.42   218.16   226.26
eigval :      235.40   237.28   244.34   248.10   251.50   263.65
eigval :      291.56   294.95   303.59   304.64   311.49   324.71
eigval :      325.84   333.97   335.55   343.17   357.39   364.45
eigval :      372.94   374.88   380.76   384.60   385.42   388.32
eigval :      391.79   407.79   408.67   417.22   428.53   446.51
eigval :      448.53   449.62   451.74   470.97   494.70   499.40
eigval :      502.65   504.21   510.79   511.68   530.72   535.28
eigval :      540.07   542.18   543.87   546.92   552.11   555.04
eigval :      563.43   582.88   584.69   585.40   588.76   608.66
eigval :      621.78   633.34   634.77   638.36   642.72   658.00
eigval :      670.05   670.27   675.29   687.77   688.93   689.37
eigval :      700.27   701.87   703.07   718.84   762.99   763.76
eigval :      765.70   769.31   771.34   772.72   774.28   777.84
eigval :      794.85   799.64   801.88   824.14   825.44   845.35
eigval :      855.64   862.97   865.23   868.28   871.00   872.20
eigval :      879.79   890.39   896.21   897.00   908.91   910.43
eigval :      911.91   913.03   914.84   915.60   916.15   916.40
eigval :      917.26   918.06   920.59   923.15   923.43   929.71
eigval :      933.90   936.30   937.13   937.16   958.11   959.72
eigval :      970.09   992.12  1005.16  1009.20  1011.60  1014.10
eigval :     1036.83  1047.17  1061.41  1070.25  1072.79  1073.49
eigval :     1077.25  1079.34  1085.13  1100.69  1104.02  1108.82
eigval :     1110.33  1117.18  1117.65  1130.12  1134.88  1135.23
eigval :     1137.09  1145.58  1146.56  1152.77  1166.39  1170.07
eigval :     1172.87  1175.68  1177.58  1178.48  1180.96  1182.05
eigval :     1183.10  1192.67  1195.99  1202.42  1205.47  1213.33
eigval :     1228.91  1230.43  1236.60  1237.92  1240.04  1252.38
eigval :     1256.75  1258.44  1272.32  1287.48  1290.46  1291.01
eigval :     1291.20  1312.95  1314.90  1317.83  1318.21  1328.82
eigval :     1328.86  1330.93  1334.58  1334.81  1342.92  1344.87
eigval :     1356.40  1358.09  1393.17  1396.14  1397.34  1406.20
eigval :     1413.93  1414.62  1415.61  1415.84  1421.20  1425.89
eigval :     1427.47  1431.13  1441.97  1451.82  1452.55  1461.55
eigval :     1468.49  1469.20  1472.78  1476.07  1479.83  1480.89
eigval :     1481.92  1482.70  1483.88  1490.49  1491.54  1496.16
eigval :     1496.85  1541.83  1547.22  1547.61  1554.96  1557.89
eigval :     1559.31  1564.45  1571.87  1573.17  1573.62  1581.47
eigval :     1583.11  1586.49  3026.82  3027.01  3031.06  3031.29
eigval :     3048.80  3049.43  3051.12  3051.81  3055.45  3056.19
eigval :     3059.46  3060.29  3073.49  3076.12  3078.85  3080.40
eigval :     3084.80  3085.15  3085.38  3086.53  3087.71  3087.96
eigval :     3088.85  3089.65  3091.68  3092.22  3093.19  3093.65
eigval :     3094.70  3095.15  3096.76  3099.13  3099.16  3101.18
eigval :     3101.33  3101.60  3101.96  3103.14  3107.72  3111.62
eigval :     3112.26  3113.80  3121.09

   temp. (K)  partition function   enthalpy   heat capacity  entropy
                                   cal/mol     cal/K/mol   cal/K/mol   J/K/mol
 298.15  VIB  0.236E+25            30664.818    192.003    191.829
         ROT  0.119E+09              888.752      2.981     39.931
         INT  0.280E+33            31553.570    194.984    231.760
         TR   0.218E+29             1481.254      4.968     45.888
         TOT                       33034.8239   199.9525   277.6477  1161.6780

       T/K    H(0)-H(T)+PV         H(T)/Eh          T*S/Eh         G(T)/Eh
   ------------------------------------------------------------------------
    298.15    0.526443E-01    0.852654E+00    0.131919E+00    0.720735E+00
   ------------------------------------------------------------------------

         :::::::::::::::::::::::::::::::::::::::::::::::::::::
         ::                  THERMODYNAMIC                  ::
         :::::::::::::::::::::::::::::::::::::::::::::::::::::
         :: total free energy        -157.048923257782 Eh   ::
         ::.................................................::
         :: total energy             -157.769657915016 Eh   ::
         :: zero point energy           0.800009703970 Eh   ::
         :: G(RRHO) w/o ZPVE           -0.079275046736 Eh   ::
         :: G(RRHO) contrib.            0.720734657234 Eh   ::
         :::::::::::::::::::::::::::::::::::::::::::::::::::::

           -------------------------------------------------
          | TOTAL ENERGY             -157.769657915016 Eh   |
          | TOTAL ENTHALPY           -156.917003868159 Eh   |
          | TOTAL FREE ENERGY        -157.048923257782 Eh   |
          | GRADIENT NORM               0.000057419557 Eh/α |
          | HOMO-LUMO GAP               0.142115489479 eV   |
           -------------------------------------------------

 * finished run on 2025/07/19 at 17:11:24.420
