   * xtb version 6.7.1 (edcfbbe) compiled by 'albert@albert-system' on 2024-07-22

   ID    Z sym.   atoms
    1    6 C      1-4, 6-17, 19-30, 32-37, 39-44, 46-51, 53-58, 60, 61
    2    7 N      5, 18, 38
    3    5 B      31, 52
    4    8 O      45, 59
    5    1 H      62-96

          program call               : xtb data2507/gas/TPD4PA/TPD4PA_gas_S0_crest.xyz --gfn 2 --ohess vtight --parallel 40 --molden --ceasefiles --namespace data2507/gas/TPD4PA/TPD4PA_gas_S0_finalOpt
          :  Hamiltonian                  GFN2-xTB          :
 * total energy  :  -152.9540460 Eh     change       -0.1600276E-07 Eh
 * total energy  :  -152.9540473 Eh     change       -0.1337594E-05 Eh
 * total energy  :  -152.9540488 Eh     change       -0.1467413E-05 Eh
 * total energy  :  -152.9540532 Eh     change       -0.4397686E-05 Eh
 * total energy  :  -152.9540541 Eh     change       -0.8726819E-06 Eh
 * total energy  :  -152.9540553 Eh     change       -0.1181315E-05 Eh
 * total energy  :  -152.9540571 Eh     change       -0.1883128E-05 Eh
 * total energy  :  -152.9540584 Eh     change       -0.1225045E-05 Eh
 * total energy  :  -152.9540585 Eh     change       -0.8414136E-07 Eh
 * total energy  :  -152.9540590 Eh     change       -0.5514674E-06 Eh
 * total energy  :  -152.9540605 Eh     change       -0.2925394E-06 Eh
 * total energy  :  -152.9540608 Eh     change       -0.3375171E-06 Eh
 * total energy  :  -152.9540612 Eh     change       -0.3664811E-06 Eh
 * total energy  :  -152.9540615 Eh     change       -0.3785458E-06 Eh
 * total energy  :  -152.9540619 Eh     change       -0.3986489E-06 Eh
 * total energy  :  -152.9540623 Eh     change       -0.3722465E-06 Eh
 * total energy  :  -152.9540626 Eh     change       -0.2873097E-06 Eh
 * total energy  :  -152.9540628 Eh     change       -0.2483953E-06 Eh
 * total energy  :  -152.9540628 Eh     change       -0.4012520E-08 Eh
   *** GEOMETRY OPTIMIZATION CONVERGED AFTER 22 ITERATIONS ***

 final structure:
================
96
 xtb: 6.7.1 (edcfbbe)
C            5.28591446619289       -5.07778603512282       -1.03756774725876
C            5.83423204804123       -4.61433898194616        0.14690893902147
C            5.58847192993980       -3.32431982467310        0.57523433393615
C            4.79102683744382       -2.47029740899380       -0.18600405390006
N            4.52523205178074       -1.16926707812937        0.25519842508924
C            5.52652254082117       -0.42840861874169        0.89291980525116
C            5.21624016071423        0.41796897242094        1.95780119100683
C            6.20438694641992        1.16903087443539        2.56209716808032
C            7.51734703060399        1.08076299573516        2.12930038119301
C            7.83447014054023        0.22979043337751        1.08356140541680
C            6.85075111258097       -0.51691484453745        0.46483009300434
C            3.26021750285492       -0.60835224171180        0.05645156975984
C            3.13446569439406        0.75959272393092       -0.15285377681954
C            1.87218613672671        1.32807989568443       -0.30329740321864
C            0.71987718437814        0.51792990919327       -0.32930734388576
C            0.87866283177511       -0.87130863536242       -0.17062709675687
C            2.13232567945688       -1.42339431814047        0.06576933021420
N           -0.23287351617583       -1.69115670491087       -0.24606820354069
C            0.02350702593235       -3.09152927343604       -0.32374251117480
C           -0.10217808547425       -3.90175369200686        0.79775782569258
C            0.20080458188561       -5.24869458346525        0.70985168545519
C            0.63462987027170       -5.78834769317794       -0.48975288363289
C            0.75896413724000       -4.98047250795230       -1.60730140467694
C            0.45336085620207       -3.63381913044342       -1.52770031991584
C           -1.53225886300883       -1.23422407377496       -0.21291122117086
C           -2.56710477644112       -2.17779288620331       -0.16652985857080
C           -3.87589392806971       -1.76701036917218       -0.02109675274382
C           -4.20393997398091       -0.40754410320283        0.12735710171201
C           -3.15485601740687        0.51468492094647        0.02801915486874
C           -1.81772757746087        0.15320294048800       -0.22467246758963
B           -0.65569682065369        1.12705843383928       -0.51404496545616
C           -0.63196869730495        2.59733442873362       -0.98861448968963
C           -1.71018219378113        3.27186888267295       -1.57345864135005
C           -1.65855620698382        4.60711068405077       -1.90421111174657
C           -0.50247002856356        5.32945268087899       -1.63610746357122
C            0.60428180531362        4.69262454840570       -1.12378682589709
C            0.57605868945774        3.31888026451746       -0.84740237728521
N            1.74433286704710        2.69363489518232       -0.44326900417385
C            2.91595803605475        3.46910537223312       -0.20565257028790
C            3.68680637134903        3.93649746167908       -1.26312550536261
C            4.84601387649974        4.64695994087556       -1.00801609711023
C            5.24319201838383        4.88649101700764        0.29713994682026
C            4.47513640665545        4.42057846084843        1.35074609299591
C            3.31197037711875        3.71433499004376        1.10276605567677
O           -3.39516628910553        1.82886443397466        0.22156179676675
C           -4.64446973865131        2.33837545460173        0.35916389693817
C           -4.68101118753350        3.73469068521951        0.43997331952623
C           -5.88666289979910        4.38781394859718        0.53739475685836
C           -7.06905699317591        3.65484592604176        0.54466763900596
C           -7.02628724977585        2.28040341918121        0.48014431809488
C           -5.82169415801467        1.56685044818731        0.40515292975727
B           -5.63951839619712        0.02987137898203        0.36678710359731
C           -6.63196798058498       -1.15338111452781        0.52049042094942
C           -7.98651727726662       -1.07112700507526        0.86892115750429
C           -8.80108673176873       -2.17905409577540        0.94966234423606
C           -8.28310548471983       -3.44013153665730        0.68055883689833
C           -6.95184289788248       -3.57419281257675        0.36017702974852
C           -6.12794391900016       -2.44794142601495        0.29250572497514
O           -4.82715031334518       -2.73094565093549        0.00491057955485
C            4.25502839344038       -2.93785028148308       -1.38628244397553
C            4.49697226677946       -4.23238270341529       -1.80028174000455
H            5.47425528756597       -6.08899587789696       -1.36490320974706
H            6.45062633982170       -5.26598991836760        0.74878884139294
H            6.00707375735421       -2.96950795143114        1.50578780188399
H            4.19546014224659        0.48083047120926        2.30430010868999
H            5.94863547408595        1.82148867187207        3.38401140392815
H            8.28780088048882        1.66849269250644        2.60486021413215
H            8.85534069256339        0.15401162081125        0.73868620457379
H            7.09901724161943       -1.17002989306490       -0.35909583507429
H            4.02436374646024        1.36685086148423       -0.19717445342429
H            2.24835395760417       -2.47773700117510        0.25864956140591
H           -0.43322159961841       -3.46881654638472        1.73010439547133
H            0.10382261824197       -5.87734401045507        1.58240651361180
H            0.87673577054312       -6.83847230603434       -0.55264286980729
H            1.09476156824992       -5.40011868790343       -2.54357330907127
H            0.55116618427893       -2.99191159517831       -2.39052960947288
H           -2.36436437107169       -3.23437752933942       -0.22981151844275
H           -2.61052733937233        2.71646325878064       -1.78118621729440
H           -2.51234531093654        5.09426859567347       -2.35234436130272
H           -0.45947030261881        6.38843651841889       -1.84708756848263
H            1.50561916315331        5.26054844522793       -0.94716223314405
H            3.37279108010105        3.73589726000117       -2.27697149760943
H            5.44454622003530        5.00866403820188       -1.83088195502476
H            6.15228290423199        5.43503901656329        0.49231394880780
H            4.78302670814080        4.60736686040881        2.36855043567529
H            2.70685059356149        3.34138355340804        1.91575625364644
H           -3.74494936408971        4.27109541930122        0.40809743413763
H           -5.91486539576638        5.46591179075111        0.59563454967191
H           -8.01897814897908        4.16611916340121        0.60117896175230
H           -7.95546525951006        1.73318187803871        0.47184848827256
H           -8.40474019238646       -0.10378325835031        1.09682133353368
H           -9.84093695324673       -2.06993564370112        1.22095177466220
H           -8.91708070459829       -4.31289483927723        0.73318731548350
H           -6.51424971938651       -4.54146514886109        0.16485935976978
H            3.64843410372157       -2.27769848934844       -1.98816661312296
H            4.07395851133984       -4.58078597069039       -2.73100121932215

          :  Hamiltonian                  GFN2-xTB          :
         :: gradient norm              0.000041942124 Eh/a0 ::
         :: HOMO-LUMO gap              2.173483110114 eV    ::
         :: SCC energy              -155.689502955488 Eh    ::
         :: -> dispersion             -0.150371759285 Eh    ::
         :: repulsion energy           2.735440109155 Eh    ::

    * Orbital Energies and Occupations

         #    Occupation            Energy/Eh            Energy/eV
      -------------------------------------------------------------
         1        2.0000           -0.7196705             -19.5832
       ...           ...                  ...                  ...
       130        2.0000           -0.3987665             -10.8510
       131        2.0000           -0.3961826             -10.7807
       132        2.0000           -0.3957538             -10.7690
       133        2.0000           -0.3939620             -10.7203
       134        2.0000           -0.3893808             -10.5956
       135        2.0000           -0.3833542             -10.4316
       136        2.0000           -0.3810140             -10.3679
       137        2.0000           -0.3782808             -10.2935
       138        2.0000           -0.3740236             -10.1777
       139        2.0000           -0.3640554              -9.9065
       140        2.0000           -0.3558777              -9.6839
       141        2.0000           -0.3452772              -9.3955
       142        2.0000           -0.3417957              -9.3007 (HOMO)
       143                         -0.2619217              -7.1273 (LUMO)
       144                         -0.2515884              -6.8461
       145                         -0.2358757              -6.4185
       146                         -0.2344977              -6.3810
       147                         -0.2337763              -6.3614
       148                         -0.2335989              -6.3565
       149                         -0.2285927              -6.2203
       150                         -0.2245435              -6.1101
       151                         -0.2224270              -6.0525
       152                         -0.2201817              -5.9914
       153                         -0.2197162              -5.9788
       ...                                ...                  ...
       279                          0.7261097              19.7585
      -------------------------------------------------------------
                  HL-Gap            0.0798740 Eh            2.1735 eV

     #   Z          covCN         q      C6AA      α(0)
     1   6 C        2.919    -0.039    28.979     8.828
     2   6 C        2.920    -0.030    28.747     8.792
     3   6 C        2.923    -0.048    29.193     8.860
     4   6 C        2.924     0.066    26.522     8.445
     5   7 N        2.754    -0.075    22.697     7.076
     6   6 C        2.924     0.066    26.522     8.446
     7   6 C        2.923    -0.047    29.172     8.857
     8   6 C        2.920    -0.030    28.749     8.793
     9   6 C        2.919    -0.039    28.979     8.828
    10   6 C        2.920    -0.030    28.747     8.792
    11   6 C        2.923    -0.048    29.194     8.861
    12   6 C        2.924     0.065    26.537     8.448
    13   6 C        2.922    -0.091    30.272     9.023
    14   6 C        2.931     0.061    26.628     8.463
    15   6 C        2.899    -0.113    30.853     9.107
    16   6 C        2.932     0.060    26.665     8.469
    17   6 C        2.922    -0.090    30.265     9.022
    18   7 N        2.757    -0.047    22.139     6.988
    19   6 C        2.935     0.069    26.460     8.436
    20   6 C        2.921    -0.037    28.913     8.818
    21   6 C        2.920    -0.028    28.689     8.783
    22   6 C        2.920    -0.030    28.751     8.793
    23   6 C        2.920    -0.026    28.655     8.778
    24   6 C        2.923    -0.036    28.898     8.816
    25   6 C        2.926     0.063    26.593     8.457
    26   6 C        2.916    -0.098    30.468     9.051
    27   6 C        2.873     0.138    24.979     8.193
    28   6 C        2.885    -0.133    31.384     9.184
    29   6 C        2.874     0.137    25.016     8.199
    30   6 C        2.883    -0.115    30.922     9.116
    31   5 B        2.724     0.197    18.426     7.193
    32   6 C        2.887    -0.079    29.982     8.977
    33   6 C        2.924    -0.028    28.702     8.786
    34   6 C        2.914    -0.043    29.072     8.842
    35   6 C        2.920    -0.030    28.748     8.793
    36   6 C        2.920    -0.057    29.417     8.894
    37   6 C        2.925     0.058    26.696     8.473
    38   7 N        2.756    -0.054    22.276     7.010
    39   6 C        2.934     0.070    26.440     8.433
    40   6 C        2.921    -0.037    28.925     8.820
    41   6 C        2.920    -0.028    28.707     8.786
    42   6 C        2.920    -0.031    28.766     8.795
    43   6 C        2.920    -0.027    28.669     8.780
    44   6 C        2.923    -0.037    28.911     8.818
    45   8 O        1.712    -0.212    17.515     5.651
    46   6 C        2.877     0.137    24.998     8.196
    47   6 C        2.916    -0.053    29.325     8.880
    48   6 C        2.920    -0.027    28.688     8.783
    49   6 C        2.915    -0.041    29.020     8.834
    50   6 C        2.924    -0.033    28.829     8.805
    51   6 C        2.882    -0.091    30.294     9.023
    52   5 B        2.724     0.206    18.292     7.167
    53   6 C        2.882    -0.091    30.276     9.021
    54   6 C        2.925    -0.033    28.828     8.805
    55   6 C        2.915    -0.041    29.024     8.834
    56   6 C        2.920    -0.028    28.701     8.785
    57   6 C        2.917    -0.054    29.341     8.883
    58   6 C        2.877     0.139    24.977     8.193
    59   8 O        1.712    -0.230    17.817     5.699
    60   6 C        2.923    -0.047    29.174     8.858
    61   6 C        2.920    -0.030    28.751     8.793
    62   1 H        0.926     0.029     2.598     2.520
    63   1 H        0.926     0.031     2.573     2.508
    64   1 H        0.926     0.031     2.569     2.506
    65   1 H        0.926     0.032     2.552     2.498
    66   1 H        0.926     0.030     2.591     2.517
    67   1 H        0.926     0.029     2.599     2.521
    68   1 H        0.926     0.031     2.574     2.509
    69   1 H        0.926     0.031     2.571     2.508
    70   1 H        0.926     0.022     2.696     2.568
    71   1 H        0.926     0.023     2.690     2.565
    72   1 H        0.926     0.044     2.401     2.423
    73   1 H        0.926     0.039     2.458     2.452
    74   1 H        0.926     0.038     2.473     2.459
    75   1 H        0.926     0.039     2.462     2.454
    76   1 H        0.926     0.041     2.431     2.438
    77   1 H        0.926     0.038     2.470     2.458
    78   1 H        0.926     0.034     2.533     2.489
    79   1 H        0.926     0.021     2.725     2.581
    80   1 H        0.926     0.022     2.704     2.572
    81   1 H        0.926     0.019     2.746     2.591
    82   1 H        0.926     0.042     2.418     2.432
    83   1 H        0.926     0.038     2.478     2.462
    84   1 H        0.926     0.037     2.490     2.467
    85   1 H        0.926     0.038     2.476     2.461
    86   1 H        0.926     0.041     2.438     2.442
    87   1 H        0.926     0.046     2.373     2.409
    88   1 H        0.926     0.033     2.545     2.495
    89   1 H        0.926     0.028     2.611     2.527
    90   1 H        0.926     0.035     2.521     2.483
    91   1 H        0.926     0.035     2.513     2.479
    92   1 H        0.926     0.028     2.612     2.527
    93   1 H        0.926     0.032     2.553     2.499
    94   1 H        0.926     0.041     2.432     2.439
    95   1 H        0.926     0.032     2.555     2.500
    96   1 H        0.926     0.030     2.592     2.518

molecular dipole:
                 x           y           z       tot (Debye)
 q only:        0.912      -0.181       0.073
   full:        1.043      -0.259       0.084       2.740

 projected vibrational frequencies (cm⁻¹)
eigval :       -0.00    -0.00     0.00     0.00     0.00     0.00
eigval :       12.48    12.79    15.99    20.80    24.19    28.38
eigval :       35.01    38.45    43.44    47.39    50.47    52.99
eigval :       57.36    61.42    67.15    71.20    77.33    85.40
eigval :       95.54   115.26   125.20   137.75   151.59   164.42
eigval :      177.75   178.35   187.91   199.91   208.94   213.10
eigval :      221.10   233.66   237.92   239.67   247.91   259.21
eigval :      263.94   268.31   270.50   279.50   312.46   323.82
eigval :      333.68   345.85   359.74   374.59   375.20   378.22
eigval :      380.39   384.27   388.32   393.59   403.82   415.25
eigval :      420.06   427.98   440.45   462.10   469.36   482.20
eigval :      484.33   487.29   493.77   496.38   497.99   502.04
eigval :      520.86   538.59   543.95   554.22   555.10   567.63
eigval :      574.60   578.77   583.13   585.88   588.89   589.64
eigval :      594.04   599.28   602.57   606.68   608.87   621.62
eigval :      634.45   640.42   652.92   660.14   662.22   668.84
eigval :      672.69   677.80   680.89   690.78   691.38   699.79
eigval :      705.88   710.23   721.11   745.86   756.37   757.50
eigval :      770.33   771.06   774.31   776.92   778.08   796.36
eigval :      822.98   825.56   829.48   846.75   848.74   870.11
eigval :      872.48   873.58   874.86   875.78   877.35   877.83
eigval :      878.07   881.53   890.98   892.87   898.11   901.85
eigval :      903.70   907.27   909.03   912.20   912.83   919.57
eigval :      923.22   925.49   925.66   926.13   926.94   927.42
eigval :      928.54   930.06   930.16   931.73   932.49   932.57
eigval :      975.28   983.25   994.31  1005.74  1008.85  1057.73
eigval :     1075.85  1078.79  1079.15  1080.04  1083.21  1084.35
eigval :     1085.65  1093.03  1100.29  1105.65  1112.28  1113.67
eigval :     1114.72  1121.81  1124.57  1129.94  1150.49  1164.02
eigval :     1174.64  1178.99  1179.20  1179.58  1181.65  1181.72
eigval :     1183.50  1186.19  1187.46  1188.04  1191.46  1195.77
eigval :     1200.23  1213.50  1218.63  1221.21  1228.33  1240.80
eigval :     1250.48  1258.27  1263.76  1268.18  1273.38  1273.74
eigval :     1277.62  1278.47  1283.23  1286.29  1294.99  1302.41
eigval :     1311.26  1312.32  1313.53  1320.98  1321.28  1323.34
eigval :     1326.61  1328.40  1332.65  1335.73  1352.22  1358.74
eigval :     1376.34  1400.41  1411.89  1417.83  1426.39  1427.79
eigval :     1429.59  1433.73  1434.34  1437.85  1443.69  1447.48
eigval :     1453.25  1457.50  1466.45  1471.73  1473.46  1477.38
eigval :     1478.77  1515.00  1538.94  1549.81  1551.84  1553.67
eigval :     1566.72  1572.77  1577.08  1581.29  1584.01  1584.62
eigval :     1594.15  1594.72  1595.58  1596.18  1596.97  1598.12
eigval :     1601.56  3067.58  3073.58  3074.20  3074.75  3075.36
eigval :     3076.65  3076.98  3077.89  3079.67  3080.91  3082.03
eigval :     3083.04  3083.57  3084.32  3085.80  3087.01  3088.90
eigval :     3089.71  3090.05  3090.51  3091.04  3093.52  3094.63
eigval :     3096.18  3096.94  3097.46  3098.97  3099.75  3100.54
eigval :     3102.50  3107.65  3109.11  3109.37  3110.58  3114.25

   temp. (K)  partition function   enthalpy   heat capacity  entropy
                                   cal/mol     cal/K/mol   cal/K/mol   J/K/mol
 298.15  VIB  0.580E+22            27896.353    176.497    173.223
         ROT  0.138E+09              888.752      2.981     40.222
         INT  0.799E+30            28785.105    179.478    213.446
         TR   0.211E+29             1481.254      4.968     45.818
         TOT                       30266.3592   184.4463   259.2638  1084.7598

       T/K    H(0)-H(T)+PV         H(T)/Eh          T*S/Eh         G(T)/Eh
   ------------------------------------------------------------------------
    298.15    0.482325E-01    0.773676E+00    0.123185E+00    0.650491E+00
   ------------------------------------------------------------------------

         :::::::::::::::::::::::::::::::::::::::::::::::::::::
         ::                  THERMODYNAMIC                  ::
         :::::::::::::::::::::::::::::::::::::::::::::::::::::
         :: total free energy        -152.303571699496 Eh   ::
         ::.................................................::
         :: total energy             -152.954062846334 Eh   ::
         :: zero point energy           0.725443233807 Eh   ::
         :: G(RRHO) w/o ZPVE           -0.074952086969 Eh   ::
         :: G(RRHO) contrib.            0.650491146838 Eh   ::
         :::::::::::::::::::::::::::::::::::::::::::::::::::::

           -------------------------------------------------
          | TOTAL ENERGY             -152.954062846334 Eh   |
          | TOTAL ENTHALPY           -152.180387099041 Eh   |
          | TOTAL FREE ENERGY        -152.303571699496 Eh   |
          | GRADIENT NORM               0.000041941512 Eh/α |
          | HOMO-LUMO GAP               2.173482669925 eV   |
           -------------------------------------------------

 * finished run on 2025/08/23 at 01:26:17.983
