   * xtb version 6.7.1 (edcfbbe) compiled by 'albert@albert-system' on 2024-07-22

   ID    Z sym.   atoms
    1    6 C      1-4, 6-17, 19-30, 32-37, 39-44, 46-51, 53-58, 60, 61
    2    7 N      5, 18, 38
    3    5 B      31, 52
    4    8 O      45, 59
    5    1 H      62-96

          program call               : xtb data2507/gas/TPD4PA/TPD4PA_gas_S0_finalOpt.xtbopt.xyz --gfn 2 --spinpol --tblite --uhf 2 --ohess vtight --parallel 40 --molden --ceasefiles --namespace data2507/gas/TPD4PA/TPD4PA_gas_T1_preOpt
 * total energy  :  -152.8648871 Eh     change       -0.2980551E-07 Eh
 * total energy  :  -152.8656172 Eh     change       -0.7300549E-03 Eh
 * total energy  :  -152.8658112 Eh     change       -0.1940128E-03 Eh
 * total energy  :  -152.8658353 Eh     change       -0.2416774E-04 Eh
 * total energy  :  -152.8658571 Eh     change       -0.2177074E-04 Eh
 * total energy  :  -152.8658667 Eh     change       -0.9540455E-05 Eh
 * total energy  :  -152.8658983 Eh     change       -0.3161257E-04 Eh
 * total energy  :  -152.8659128 Eh     change       -0.1456004E-04 Eh
 * total energy  :  -152.8659220 Eh     change       -0.9176645E-05 Eh
 * total energy  :  -152.8659371 Eh     change       -0.1508010E-04 Eh
 * total energy  :  -152.8660191 Eh     change       -0.1015271E-05 Eh
 * total energy  :  -152.8660202 Eh     change       -0.1133900E-05 Eh
 * total energy  :  -152.8660212 Eh     change       -0.1035420E-05 Eh
 * total energy  :  -152.8660222 Eh     change       -0.9436608E-06 Eh
 * total energy  :  -152.8660232 Eh     change       -0.9966146E-06 Eh
 * total energy  :  -152.8660245 Eh     change       -0.1298873E-05 Eh
 * total energy  :  -152.8660254 Eh     change       -0.8802609E-06 Eh
 * total energy  :  -152.8660253 Eh     change        0.4057429E-07 Eh
 * total energy  :  -152.8660254 Eh     change       -0.3588164E-07 Eh
   *** GEOMETRY OPTIMIZATION CONVERGED AFTER 45 ITERATIONS ***

 final structure:
================
96
 xtb: 6.7.1 (edcfbbe)
C            5.30849431653320       -5.04999429822472       -1.12269024073956
C            5.87961483781561       -4.60322083367701        0.05836007756665
C            5.63839046084779       -3.32214406617948        0.51296779750434
C            4.82028491270259       -2.45886067486157       -0.21787390900830
N            4.54955470279886       -1.17103453839804        0.25130579743523
C            5.53870129037965       -0.43019753357221        0.90352915720739
C            5.20721985606229        0.41607596071781        1.96389621853421
C            6.18148840252965        1.17338764936652        2.58141873387171
C            7.50092840318109        1.09638477449087        2.16469600531190
C            7.83834207728923        0.24881468894776        1.12141820480124
C            6.86988558431684       -0.50657798762185        0.49081637657753
C            3.28170382359761       -0.61571763298589        0.05661629685432
C            3.14174302805023        0.75501489188424       -0.17484588846406
C            1.87445806078369        1.31157986267561       -0.31271090961163
C            0.71950822392371        0.49716148940622       -0.32512902175579
C            0.88904926656051       -0.89118539101456       -0.13553011072324
C            2.14873523452397       -1.43186915393796        0.09990273213944
N           -0.22177249938630       -1.71832660051353       -0.18658824576246
C            0.03043950708007       -3.11918928466334       -0.21559286414649
C           -0.17760178281416       -3.90305188587236        0.91325767202547
C            0.11457203077764       -5.25439629594419        0.87479144998396
C            0.61913313577139       -5.82639767658589       -0.28168941899836
C            0.82593049396229       -5.04502869759963       -1.40654581994679
C            0.53195449937331       -3.69431790620676       -1.37708198060848
C           -1.52293888673460       -1.26278502534396       -0.17205873266976
C           -2.56594702257170       -2.18987429482109       -0.15903585193175
C           -3.88472829703288       -1.76258182920208       -0.03229807838957
C           -4.20449700725695       -0.40531498898277        0.13298740656645
C           -3.14319969308935        0.50377006455919        0.07932768938130
C           -1.80319244470542        0.13217376723084       -0.19527793509415
B           -0.65245940815396        1.09950067701107       -0.51958767914851
C           -0.64667150834857        2.56479533509582       -0.98672507855529
C           -1.73259188504599        3.23489850022200       -1.56757529517518
C           -1.69940229836623        4.58358323518506       -1.85411200167618
C           -0.55732177836086        5.32163086991569       -1.56805387348229
C            0.56776503001476        4.68499544493585       -1.07929901111447
C            0.55799473839986        3.30647508363555       -0.84152698452646
N            1.73419598297385        2.67939150073827       -0.46347922535541
C            2.90902107301004        3.45840403847084       -0.26717033074033
C            3.61298597792949        3.97185418215500       -1.35054541415564
C            4.77503578908458        4.69047146293168       -1.13636595612676
C            5.24170703278403        4.89482112708263        0.15202887551230
C            4.53977666019532        4.38316835749463        1.23118840762583
C            3.37535429702978        3.66682938288231        1.02569501343972
O           -3.36328161905056        1.82544540286790        0.29488958401183
C           -4.60951097781381        2.34501285881199        0.43347711703405
C           -4.62654600867227        3.73646649846157        0.55812326431887
C           -5.82614509236214        4.40792996055820        0.67711786481792
C           -7.01367909628414        3.69026794821486        0.66472910784316
C           -6.99010949537136        2.31341236888230        0.55307968881964
C           -5.79961886756827        1.58298432042536        0.44856284734665
B           -5.64544926821519        0.04286899223148        0.34948401820659
C           -6.65014158262097       -1.12759654682836        0.41871662864665
C           -8.02844924007280       -1.04799197328636        0.67917038967392
C           -8.84883078985638       -2.15379045945705        0.70155355716303
C           -8.32472837111010       -3.41921591955750        0.45949858951564
C           -6.97443411708515       -3.55383663220769        0.21504132326613
C           -6.14816357933185       -2.43128476107998        0.20112616495048
O           -4.83193720244630       -2.71760796903942       -0.02945852410716
C            4.25834671064289       -2.91079044981168       -1.41377180714522
C            4.49900205174390       -4.19601149738569       -1.85472851929837
H            5.49508212666502       -6.05440526593156       -1.47069281107058
H            6.51082371410466       -5.26221379023502        0.63618204713081
H            6.07285397447401       -2.98137682560030        1.44137139695024
H            4.18196141925204        0.46760178063376        2.29884754513985
H            5.91067885144145        1.82191213288827        3.40152776466626
H            8.26045445626631        1.68983494205823        2.65023325805209
H            8.86389824731516        0.18300263114584        0.78900414406068
H            7.13336659035581       -1.15499403405510       -0.33196897321915
H            4.02885197278746        1.36575863305469       -0.22638029546014
H            2.27172010139128       -2.48275245265111        0.31007206517991
H           -0.56457865981133       -3.44628060276872        1.81199758628651
H           -0.04659268099146       -5.86160359359176        1.75293949399505
H            0.85129181567321       -6.88024398798691       -0.30583973155180
H            1.21610561184337       -5.48951504920648       -2.30954359306115
H            0.69108103911308       -3.07409719967677       -2.24657823819768
H           -2.37995627186616       -3.24879860027296       -0.23591571819312
H           -2.62526454694273        2.67265487125477       -1.78789645907318
H           -2.56548955399383        5.07029836220486       -2.27885365321978
H           -0.53335073597877        6.38635327664659       -1.74644875361766
H            1.45960124426557        5.26367303338505       -0.89187950812260
H            3.24512495502778        3.79969168213533       -2.35129088052842
H            5.32139236944155        5.08683604937229       -1.97911585373123
H            6.15203845021492        5.45146631247509        0.31447845586227
H            4.90049473166127        4.54290731430564        2.23593409452618
H            2.82095508059763        3.26037056329658        1.85838262780780
H           -3.68319675450751        4.26091834002240        0.54495568613813
H           -5.83677399387904        5.48383691907536        0.76995857674906
H           -7.95840540330784        4.20887470704641        0.74361635262767
H           -7.92866463856663        1.78341221677624        0.53625535553132
H           -8.46060236527872       -0.08180379149145        0.88355212782590
H           -9.90322552310470       -2.04059524016241        0.90953434595147
H           -8.96418436333142       -4.28903189246679        0.46975950989757
H           -6.52971049789282       -4.52094665175383        0.03397983650247
H            3.63845247327003       -2.24229905848789       -1.99255430212112
H            4.05968988151790       -4.53081048725510       -2.78277401989299

 projected vibrational frequencies (cm⁻¹)
eigval :       -0.00    -0.00    -0.00     0.00     0.00     0.00
eigval :       10.67    11.43    16.35    18.27    23.73    26.97
eigval :       33.91    36.44    43.02    48.16    48.32    52.42
eigval :       58.98    61.61    66.03    69.94    78.96    86.25
eigval :       96.09   112.17   123.85   135.81   149.21   161.32
eigval :      171.23   177.79   185.96   195.95   207.96   211.40
eigval :      219.82   232.96   235.98   239.24   248.44   251.72
eigval :      264.48   267.35   271.14   273.19   311.90   323.54
eigval :      330.95   341.33   353.20   372.64   373.71   374.87
eigval :      377.09   382.39   384.51   392.47   403.85   408.07
eigval :      413.46   419.58   439.58   457.63   464.74   475.52
eigval :      478.60   480.62   487.81   492.66   493.27   495.69
eigval :      506.73   517.84   532.37   536.49   543.71   549.42
eigval :      558.97   565.80   574.57   581.20   584.97   587.10
eigval :      591.12   594.55   596.08   599.57   604.19   613.24
eigval :      625.49   635.76   647.84   656.24   658.42   661.00
eigval :      665.85   669.87   673.34   677.45   684.94   693.43
eigval :      694.66   706.37   707.39   741.63   753.86   754.76
eigval :      758.35   759.15   767.47   768.29   772.83   787.78
eigval :      805.27   805.94   822.29   838.43   842.07   854.35
eigval :      856.75   862.21   866.05   870.63   872.12   875.32
eigval :      876.26   877.18   888.36   890.88   891.49   893.88
eigval :      897.09   899.57   900.12   901.24   902.77   909.79
eigval :      913.49   915.06   916.10   918.42   923.88   924.19
eigval :      925.55   927.76   928.70   929.44   930.26   931.04
eigval :      971.09   980.00   990.71   999.28  1002.18  1038.87
eigval :     1061.13  1064.40  1077.34  1078.04  1079.60  1081.47
eigval :     1082.70  1085.14  1097.11  1099.17  1105.39  1114.16
eigval :     1114.42  1120.62  1121.86  1124.41  1141.55  1152.75
eigval :     1166.13  1170.20  1173.47  1178.36  1178.43  1180.57
eigval :     1180.82  1180.98  1184.64  1186.04  1186.13  1193.59
eigval :     1196.58  1202.96  1207.02  1210.75  1221.10  1229.90
eigval :     1238.12  1239.95  1247.62  1249.09  1252.68  1263.81
eigval :     1271.82  1273.32  1274.11  1275.94  1277.69  1285.86
eigval :     1288.76  1295.34  1306.16  1312.45  1313.36  1317.12
eigval :     1322.18  1322.70  1328.15  1329.81  1329.92  1346.72
eigval :     1350.53  1359.27  1372.77  1383.79  1397.81  1401.97
eigval :     1403.71  1409.92  1417.58  1432.41  1433.15  1435.06
eigval :     1439.23  1441.23  1443.96  1460.61  1465.75  1467.27
eigval :     1467.75  1469.86  1470.89  1480.43  1493.98  1517.91
eigval :     1525.55  1534.82  1545.56  1551.03  1563.97  1565.56
eigval :     1568.76  1569.75  1573.79  1581.88  1584.55  1586.50
eigval :     1592.26  3069.45  3070.09  3071.23  3076.35  3076.91
eigval :     3077.60  3078.00  3081.05  3081.61  3081.88  3081.92
eigval :     3082.12  3083.81  3084.19  3086.90  3088.02  3089.95
eigval :     3090.51  3091.12  3091.37  3092.65  3092.90  3095.15
eigval :     3095.29  3096.00  3098.00  3098.30  3101.41  3101.84
eigval :     3101.93  3103.96  3106.60  3110.66  3111.00  3113.56

   temp. (K)  partition function   enthalpy   heat capacity  entropy
                                   cal/mol     cal/K/mol   cal/K/mol   J/K/mol
 298.15  VIB  0.138E+23            28196.022    178.339    175.226
         ROT  0.138E+09              888.752      2.981     40.222
         INT  0.190E+31            29084.774    181.319    215.448
         TR   0.211E+29             1481.254      4.968     45.818
         TOT                       30566.0279   186.2876   261.2657  1093.1358

       T/K    H(0)-H(T)+PV         H(T)/Eh          T*S/Eh         G(T)/Eh
   ------------------------------------------------------------------------
    298.15    0.487101E-01    0.769035E+00    0.124136E+00    0.644899E+00
   ------------------------------------------------------------------------

         :::::::::::::::::::::::::::::::::::::::::::::::::::::
         ::                  THERMODYNAMIC                  ::
         :::::::::::::::::::::::::::::::::::::::::::::::::::::
         :: total free energy        -152.221126100653 Eh   ::
         ::.................................................::
         :: total energy             -152.866025368013 Eh   ::
         :: zero point energy           0.720324982092 Eh   ::
         :: G(RRHO) w/o ZPVE           -0.075425714732 Eh   ::
         :: G(RRHO) contrib.            0.644899267360 Eh   ::
         :::::::::::::::::::::::::::::::::::::::::::::::::::::

           -------------------------------------------------
          | TOTAL ENERGY             -152.866025368013 Eh   |
          | TOTAL ENTHALPY           -152.096990319908 Eh   |
          | TOTAL FREE ENERGY        -152.221126100653 Eh   |
          | GRADIENT NORM               0.000104734222 Eh/α |
           -------------------------------------------------

 * finished run on 2025/08/23 at 01:26:37.566
