   * xtb version 6.7.1 (edcfbbe) compiled by 'albert@albert-system' on 2024-07-22

   ID    Z sym.   atoms
    1    6 C      1-4, 6-17, 19-30, 32-37, 39-44, 46-51, 53-58, 60, 61
    2    7 N      5, 18, 38
    3    5 B      31, 52
    4    8 O      45, 59
    5    1 H      62-96

          program call               : xtb data2507/gas/TPD4PA/TPD4PA_gas_T1_crest.xyz --gfn 2 --spinpol --tblite --uhf 2 --ohess vtight --parallel 40 --molden --ceasefiles --namespace data2507/gas/TPD4PA/TPD4PA_gas_T1_finalOpt
 * total energy  :  -152.8660804 Eh     change       -0.1318767E-07 Eh
 * total energy  :  -152.8660856 Eh     change       -0.5145175E-05 Eh
 * total energy  :  -152.8660879 Eh     change       -0.2342861E-05 Eh
 * total energy  :  -152.8660910 Eh     change       -0.3043607E-05 Eh
 * total energy  :  -152.8660948 Eh     change       -0.3784976E-05 Eh
 * total energy  :  -152.8660994 Eh     change       -0.4637191E-05 Eh
 * total energy  :  -152.8661024 Eh     change       -0.3028767E-05 Eh
 * total energy  :  -152.8661039 Eh     change       -0.1436405E-05 Eh
 * total energy  :  -152.8661048 Eh     change       -0.9646653E-06 Eh
 * total energy  :  -152.8661057 Eh     change       -0.8466752E-06 Eh
 * total energy  :  -152.8661102 Eh     change       -0.6523852E-06 Eh
 * total energy  :  -152.8661107 Eh     change       -0.4398963E-06 Eh
 * total energy  :  -152.8661111 Eh     change       -0.3898478E-06 Eh
 * total energy  :  -152.8661110 Eh     change        0.2925728E-07 Eh
 * total energy  :  -152.8661112 Eh     change       -0.1632326E-06 Eh
 * total energy  :  -152.8661115 Eh     change       -0.3173746E-06 Eh
 * total energy  :  -152.8661112 Eh     change        0.3167203E-06 Eh
 * total energy  :  -152.8661116 Eh     change       -0.3985906E-06 Eh
 * total energy  :  -152.8661116 Eh     change       -0.5446887E-07 Eh
   *** GEOMETRY OPTIMIZATION CONVERGED AFTER 27 ITERATIONS ***

 final structure:
================
96
 xtb: 6.7.1 (edcfbbe)
C            5.29857236946235       -5.06124554429197       -1.07225986019794
C            5.88310564791098       -4.59049688999394        0.09277581770825
C            5.64605382907416       -3.30069084240085        0.52437534474113
C            4.81869890143126       -2.45282101311891       -0.21397576740591
N            4.55263806866390       -1.15597184700996        0.23268829983435
C            5.54988318694915       -0.40187635950323        0.85690580777793
C            5.23236971780108        0.46372999890413        1.90580164671722
C            6.21432487098774        1.23359562638928        2.49500823262257
C            7.52774581792680        1.15028069372218        2.06089350991244
C            7.85146222835924        0.28351146328990        1.02913669880606
C            6.87513884911262       -0.48477654352934        0.42685642942851
C            3.28229090081683       -0.60511144470898        0.04231166407695
C            3.13794670699446        0.76099554003091       -0.21117008119920
C            1.86846231265674        1.31341092772769       -0.34592897546427
C            0.71468378961630        0.49710201703157       -0.33691194935320
C            0.88836426588283       -0.88714313220837       -0.12254408297641
C            2.15094071867449       -1.42137064366333        0.11222322940334
N           -0.22089206444526       -1.71725572316730       -0.14783862533614
C            0.03283079989918       -3.11826764380363       -0.14000268795385
C           -0.16535726247389       -3.86925004283465        1.01267003432173
C            0.12720106812495       -5.22103945075713        1.01092933877914
C            0.62238491505895       -5.82597950547615       -0.13277508175677
C            0.81938334570123       -5.07735067430384       -1.28139933938589
C            0.52489430165477       -3.72641924668179       -1.28861471982257
C           -1.52302467520839       -1.26441305230480       -0.13928041670103
C           -2.56305379389345       -2.19482279154066       -0.10719288408768
C           -3.88402403802994       -1.76921969956306        0.00238295255577
C           -4.20578525013623       -0.41034070689505        0.14761856306747
C           -3.14768748066032        0.50095898074952        0.08172679605380
C           -1.80663448076994        0.12881592590695       -0.19025031181663
B           -0.65976018203732        1.09417179992486       -0.53340006081429
C           -0.65988153443190        2.55467991341015       -1.01687019064818
C           -1.75176471504742        3.21824614926250       -1.59416165740503
C           -1.72345076411534        4.56445946413003       -1.89252919106951
C           -0.58013703101879        5.30681717240025       -1.62336612471626
C            0.55018889375423        4.67601716341955       -1.13941046893429
C            0.54455697865981        3.29971603479853       -0.88895848081991
N            1.72522958942930        2.67869049137874       -0.51474060418107
C            2.90085690956584        3.46151527826699       -0.33936993662607
C            3.59384414638632        3.96190774074918       -1.43585820644047
C            4.75770334626990        4.68336952079025       -1.24203508091922
C            5.23701815089889        4.90373605239287        0.03905844111725
C            4.54567321484119        4.40569994788906        1.13133306745591
C            3.37959203452415        3.68654488506884        0.94618228692113
O           -3.37163303329304        1.82572842214236        0.27202612101327
C           -4.60231705334497        2.32903484327454        0.54138014693039
C           -4.61286778303503        3.71244535262903        0.73690917816255
C           -5.79157428984420        4.36020433245825        1.04580836432865
C           -6.96146556183232        3.62481158174586        1.17412204007962
C           -6.94667300868514        2.25808233754412        0.97247903297671
C           -5.78300761383056        1.55737631780745        0.63090733132335
B           -5.64696058923421        0.03663062045910        0.36393574311176
C           -6.66820358978169       -1.11597921353429        0.26503833925233
C           -8.06903285778470       -1.00982327132034        0.28901171977049
C           -8.90041503262377       -2.10436838245021        0.20770132310451
C           -8.36507697250261       -3.38302027243156        0.09067105876035
C           -6.99607134252684       -3.53902255724355        0.03722956860951
C           -6.15989037316906       -2.42629834308685        0.11107967755617
O           -4.82970302588980       -2.72568707441418        0.01712648143400
C            4.24334395189855       -2.92893710450571       -1.39396716495864
C            4.47988392468435       -4.22263250845566       -1.81178854406249
H            5.48190966217620       -6.07233846087014       -1.40218307994838
H            6.52162197686415       -5.23733931818461        0.67627209198240
H            6.09107994589065       -2.94100133198749        1.44055959034604
H            4.21188215647073        0.52040382674695        2.25422657717572
H            5.95441973010765        1.89706686503150        3.30663816959807
H            8.29328267252434        1.75372832646178        2.52415926774538
H            8.87225850648050        0.21260144610491        0.68338732999219
H            7.12767797361401       -1.14848964338061       -0.38712064049541
H            4.02344112057895        1.37209778824718       -0.28217339454633
H            2.27741054262420       -2.46780789524786        0.34144466878833
H           -0.54540564590105       -3.38667888767805        1.90081663280827
H           -0.02647928715422       -5.80269473598005        1.90751905301778
H            0.85476687143295       -6.88004524022171       -0.12848427881657
H            1.20244756066933       -5.54765645335264       -2.17430204288446
H            0.67657252893611       -3.13158772422737       -2.17696291635379
H           -2.37300662715227       -3.25443953923503       -0.16097483341063
H           -2.64575894813885        2.65298191142661       -1.80066137285087
H           -2.59398280836092        5.04618786943403       -2.31388225645954
H           -0.55946301662854        6.36999179810640       -1.81123977820434
H            1.44291434920186        5.25746304451449       -0.96521043286119
H            3.21621141850684        3.77733480326104       -2.43072520456746
H            5.29565002813980        5.06933026254796       -2.09495923812917
H            6.14887692217270        5.46228873990134        0.18562829009192
H            4.91603508220165        4.57824408665977        2.13043422837329
H            2.83349344776214        3.29042300182592        1.78927493861942
H           -3.68050503178489        4.24793287878571        0.64080900878996
H           -5.79791872074027        5.42994521587247        1.19380301353792
H           -7.88587328711868        4.12226330247210        1.43040302367263
H           -7.86696800773865        1.70942032670880        1.09270936892703
H           -8.51097204948849       -0.02926476928914        0.36412755581252
H           -9.97260526327776       -1.97236412159754        0.23612405139339
H           -9.01231076220828       -4.24514482278945        0.03229168178641
H           -6.54543153295913       -4.51416708874828       -0.07157452574870
H            3.61620647952359       -2.27257328695837       -1.97879298785971
H            4.03001046194868       -4.57627870755528       -2.72771102537821

 projected vibrational frequencies (cm⁻¹)
eigval :       -0.00    -0.00    -0.00     0.00     0.00     0.00
eigval :       11.19    12.04    16.63    19.98    23.96    28.59
eigval :       33.58    35.28    43.04    48.51    49.54    52.64
eigval :       59.37    61.64    64.77    69.85    78.82    86.04
eigval :       96.17   110.52   125.25   134.20   153.47   156.81
eigval :      168.10   178.93   188.40   196.65   207.93   210.46
eigval :      220.51   231.72   234.32   239.08   246.42   249.06
eigval :      263.39   269.48   272.05   276.53   311.62   323.40
eigval :      330.14   341.81   354.52   372.69   373.91   374.69
eigval :      377.19   382.65   384.74   392.96   403.22   409.51
eigval :      412.81   419.55   439.70   458.02   464.99   475.41
eigval :      477.86   480.78   487.99   492.73   493.45   495.86
eigval :      506.85   518.29   531.53   536.01   543.94   549.75
eigval :      559.43   565.63   574.52   581.38   585.11   587.21
eigval :      591.16   594.58   596.14   599.94   604.19   613.29
eigval :      625.02   635.74   647.87   656.13   658.65   661.39
eigval :      665.96   669.92   673.23   677.24   684.48   693.44
eigval :      694.52   704.99   707.26   741.10   754.03   754.75
eigval :      758.22   760.02   767.42   768.30   772.83   788.46
eigval :      804.49   806.18   822.54   838.20   842.40   854.97
eigval :      856.85   861.71   866.06   870.82   872.47   875.10
eigval :      876.09   877.21   888.55   890.87   891.28   893.86
eigval :      897.05   899.19   899.65   901.21   902.49   909.70
eigval :      913.09   914.91   915.40   917.59   923.99   924.19
eigval :      925.74   927.93   928.71   929.30   930.21   930.85
eigval :      971.40   979.76   990.50   999.31  1002.15  1038.55
eigval :     1061.02  1064.79  1077.11  1077.92  1079.16  1081.30
eigval :     1082.39  1085.37  1096.38  1098.33  1105.59  1113.91
eigval :     1114.13  1120.52  1121.65  1124.22  1141.44  1153.22
eigval :     1165.96  1170.66  1174.25  1178.56  1178.64  1180.84
eigval :     1181.04  1181.10  1184.59  1186.17  1186.39  1193.80
eigval :     1196.85  1203.62  1206.69  1211.40  1221.13  1229.76
eigval :     1238.05  1240.01  1247.59  1250.02  1253.54  1264.28
eigval :     1270.82  1273.33  1274.14  1275.82  1277.56  1285.22
eigval :     1288.23  1295.35  1305.81  1312.43  1313.26  1317.42
eigval :     1322.23  1322.93  1328.26  1329.79  1329.92  1347.71
eigval :     1350.59  1358.92  1373.09  1384.54  1398.15  1401.92
eigval :     1404.01  1410.34  1417.49  1432.84  1433.65  1435.45
eigval :     1439.34  1440.86  1444.35  1460.96  1466.22  1467.78
eigval :     1468.12  1470.35  1471.39  1480.79  1494.40  1518.42
eigval :     1524.61  1534.21  1545.07  1550.46  1564.20  1564.61
eigval :     1568.99  1570.07  1574.21  1582.25  1584.95  1586.96
eigval :     1592.36  3069.89  3070.39  3071.29  3076.76  3077.27
eigval :     3077.81  3078.22  3081.26  3082.00  3082.30  3082.36
eigval :     3082.47  3084.12  3084.46  3087.15  3088.31  3090.41
eigval :     3090.89  3091.49  3091.75  3093.24  3093.62  3095.58
eigval :     3095.68  3095.83  3098.44  3098.73  3101.71  3102.05
eigval :     3102.79  3102.83  3107.05  3110.97  3111.59  3111.93

   temp. (K)  partition function   enthalpy   heat capacity  entropy
                                   cal/mol     cal/K/mol   cal/K/mol   J/K/mol
 298.15  VIB  0.110E+23            28193.176    178.366    175.063
         ROT  0.138E+09              888.752      2.981     40.221
         INT  0.151E+31            29081.929    181.347    215.284
         TR   0.211E+29             1481.254      4.968     45.818
         TOT                       30563.1826   186.3151   261.1026  1092.4531

       T/K    H(0)-H(T)+PV         H(T)/Eh          T*S/Eh         G(T)/Eh
   ------------------------------------------------------------------------
    298.15    0.487055E-01    0.769069E+00    0.124058E+00    0.645010E+00
   ------------------------------------------------------------------------

         :::::::::::::::::::::::::::::::::::::::::::::::::::::
         ::                  THERMODYNAMIC                  ::
         :::::::::::::::::::::::::::::::::::::::::::::::::::::
         :: total free energy        -152.221101440722 Eh   ::
         ::.................................................::
         :: total energy             -152.866111718584 Eh   ::
         :: zero point energy           0.720363001229 Eh   ::
         :: G(RRHO) w/o ZPVE           -0.075352723368 Eh   ::
         :: G(RRHO) contrib.            0.645010277862 Eh   ::
         :::::::::::::::::::::::::::::::::::::::::::::::::::::

           -------------------------------------------------
          | TOTAL ENERGY             -152.866111718584 Eh   |
          | TOTAL ENTHALPY           -152.097043185627 Eh   |
          | TOTAL FREE ENERGY        -152.221101440722 Eh   |
          | GRADIENT NORM               0.000056792668 Eh/α |
           -------------------------------------------------

 * finished run on 2025/08/23 at 01:37:17.609
