   * xtb version 6.7.1 (edcfbbe) compiled by 'albert@albert-system' on 2024-07-22

   ID    Z sym.   atoms
    1    6 C      1-4, 6-17, 19-30, 32-37, 39-44, 46-51, 53-58, 60, 61
    2    7 N      5, 18, 38
    3    5 B      31, 52
    4    8 O      45, 59
    5    1 H      62-96

          program call               : xtb data2507/gas/TPD4PA/TPD4PA.xyz --gfn 2 --ohess vtight --parallel 40 --molden --ceasefiles --namespace data2507/gas/TPD4PA/TPD4PA_gas_S0_preOpt
          :  Hamiltonian                  GFN2-xTB          :
 * total energy  :  -152.8052867 Eh     change       -0.1186078E-07 Eh
 * total energy  :  -152.8740544 Eh     change       -0.6876768E-01 Eh
 * total energy  :  -152.9074069 Eh     change       -0.3335253E-01 Eh
 * total energy  :  -152.9247310 Eh     change       -0.1732409E-01 Eh
 * total energy  :  -152.9359583 Eh     change       -0.1122726E-01 Eh
 * total energy  :  -152.9427164 Eh     change       -0.6758151E-02 Eh
 * total energy  :  -152.9465882 Eh     change       -0.3871746E-02 Eh
 * total energy  :  -152.9486498 Eh     change       -0.2061630E-02 Eh
 * total energy  :  -152.9497029 Eh     change       -0.1053043E-02 Eh
 * total energy  :  -152.9502934 Eh     change       -0.5905017E-03 Eh
 * total energy  :  -152.9540602 Eh     change       -0.8486967E-06 Eh
 * total energy  :  -152.9540611 Eh     change       -0.8473864E-06 Eh
 * total energy  :  -152.9540622 Eh     change       -0.1108957E-05 Eh
 * total energy  :  -152.9540632 Eh     change       -0.1047877E-05 Eh
 * total energy  :  -152.9540639 Eh     change       -0.6766416E-06 Eh
 * total energy  :  -152.9540644 Eh     change       -0.5051497E-06 Eh
 * total energy  :  -152.9540646 Eh     change       -0.1845640E-06 Eh
 * total energy  :  -152.9540649 Eh     change       -0.2986067E-06 Eh
 * total energy  :  -152.9540649 Eh     change       -0.6118060E-07 Eh
   *** GEOMETRY OPTIMIZATION CONVERGED AFTER 70 ITERATIONS ***

 final structure:
================
96
 xtb: 6.7.1 (edcfbbe)
C            5.21212605441055       -4.84033418955458       -1.22408614756135
C            5.77710388812910       -4.36086286199522       -0.05392434499497
C            5.49087785279934       -3.08478353463725        0.39082240218353
C            4.63489747608218       -2.26090691619958       -0.33937861002643
N            4.32765717785334       -0.97495623727237        0.11903726299786
C            5.31551143091363       -0.19499401374596        0.73024567870828
C            5.00212621445632        0.63312263576440        1.80850036957597
C            5.97557900356516        1.42264635041510        2.38708082514802
C            7.27746777702717        1.39169264415270        1.91476003023367
C            7.59841166791319        0.55939037612192        0.85523951608294
C            6.62879439493282       -0.22555085369691        0.26213668253245
C            3.03386619909926       -0.46876201452059       -0.03731477810714
C            2.84167065188878        0.89295325641054       -0.23616324598471
C            1.55160314086017        1.40476499038555       -0.35012950211732
C            0.43611152139869        0.54421875612735       -0.34899445775296
C            0.66054820688281       -0.83663811842371       -0.19641658640199
C            1.94375527773609       -1.33279181068888        0.00257020948207
N           -0.41534661428124       -1.70466182632073       -0.24110180352223
C           -0.09961827362998       -3.09309455021138       -0.31737735941054
C           -0.15074930199883       -3.89726187303830        0.81431638022383
C            0.21017216042577       -5.22987745751714        0.72719146967139
C            0.62761670276071       -5.76084907230657       -0.48207841100521
C            0.67718393988173       -4.95912499892627       -1.60981859214347
C            0.31348642511735       -3.62690107168190       -1.53087445410870
C           -1.73250013666799       -1.30573861970747       -0.17669764149425
C           -2.72196198577313       -2.29499526525715       -0.10061092911977
C           -4.04423537002525       -1.94315120101342        0.07400771404517
C           -4.43000738023674       -0.59891535378630        0.22188198329307
C           -3.42654100997657        0.36947701223953        0.09430736364613
C           -2.08019941423390        0.06748490709200       -0.18640257235292
B           -0.96912282196416        1.09146504932124       -0.50231458925973
C           -1.02097793411442        2.56121944023060       -0.97651438831644
C           -2.13977211671527        3.18693216056860       -1.53896577810582
C           -2.15536667616769        4.52378258449969       -1.86690602631348
C           -1.02863313610486        5.29770160266652       -1.61842099888737
C            0.11590777012333        4.71083575591928       -1.13001286011150
C            0.15578016818382        3.33654333525700       -0.85792726396961
N            1.35940273863527        2.76370024390859       -0.48093562263677
C            2.49946237767714        3.59011186824158       -0.26261659969492
C            3.22664842470796        4.09816657341099       -1.33219209021086
C            4.35791553269383        4.85835324977514       -1.09557628165145
C            4.77070391668928        5.10757971968154        0.20290505478536
C            4.04604827397465        4.60132111364134        1.26856770934412
C            2.91093948140937        3.84495255386157        1.03919327735673
O           -3.72278415217556        1.67250938219628        0.28653946838127
C           -4.99143303576890        2.12561435871799        0.44398463573328
C           -5.09122918828479        3.51937609146741        0.51455887628440
C           -6.32408798596412        4.11689339022059        0.62784706981518
C           -7.47114165660277        3.33043496484265        0.66132126210938
C           -7.36588481789698        1.95888852850891        0.60779774874473
C           -6.13084621719957        1.30136146995828        0.51813069150131
B           -5.87839438685782       -0.22563155857916        0.49046536235215
C           -6.81127336388180       -1.45124209815576        0.67925313834400
C           -8.15831203478008       -1.42732495409948        1.06370847611993
C           -8.91895983978078       -2.57042487878841        1.17460366355131
C           -8.35122787363972       -3.80886655065442        0.90069878828964
C           -7.02413757676269       -3.88521633799943        0.54575700786398
C           -6.25454053165117       -2.72336718890435        0.44789398843926
O           -4.94991923118144       -2.94897924670396        0.12843766827066
C            4.08219780880196       -2.74376248381046       -1.52597923277950
C            4.36523520779101       -4.02454000782042       -1.95631609152184
H            5.43232742295732       -5.84090088457814       -1.56401975639410
H            6.43871869228689       -4.98935586240219        0.52410078275223
H            5.92302494861696       -2.71798043742071        1.31046581979639
H            3.99053344819625        0.65141942924946        2.18579052214510
H            5.71744603973315        2.06023691711662        3.21984151713043
H            8.03652122150276        2.00932671958853        2.37033520320176
H            8.61070423316202        0.52826881676947        0.47952094697266
H            6.87942635070858       -0.86401430797171       -0.57248696333373
H            3.70200525267149        1.53953918045441       -0.30266427796376
H            2.11227065486991       -2.38127328813457        0.18841159824432
H           -0.46962074219214       -3.47057877644872        1.75376252805100
H            0.17148770267799       -5.85375982922773        1.60766413348643
H            0.91533071158666       -6.79942906642051       -0.54457943939862
H            1.00024630696463       -5.37221886761085       -2.55344728413234
H            0.35298473451993       -2.98955358593584       -2.40166703237156
H           -2.47269400292849       -3.34164799611884       -0.16297814893230
H           -3.01759257242669        2.59133945029714       -1.73117638417214
H           -3.03886700733994        4.97232486348502       -2.29743616051707
H           -1.03828395583227        6.35810906396808       -1.82638721098741
H            0.99377309633295        5.31879882758876       -0.96911960724825
H            2.90129330737330        3.88978063407183       -2.34088038794642
H            4.92271216567947        5.25148328175769       -1.92781982760740
H            5.65816599661332        5.69516200564155        0.38346210613782
H            4.36597597575750        4.79567860742603        2.28124258999804
H            2.33992696290815        3.44017643201443        1.86159483817307
H           -4.18190017223326        4.09839563952883        0.46176604105493
H           -6.40112758660496        5.19302646317701        0.67785432464629
H           -8.44259736251639        3.79793437833436        0.72958680939688
H           -8.26851663788799        1.36887957751732        0.61949023714802
H           -8.61347629637219       -0.47788544639404        1.29627301176139
H           -9.95504383209864       -2.50649345200152        1.47331749081300
H           -8.94314114959059       -4.70902329560296        0.97668916900889
H           -6.54826639952358       -4.83334502255165        0.34613362827965
H            3.43006419589003       -2.10633657441267       -2.10429089490796
H            3.92858249603658       -4.38507281433796       -2.87606343778706

          :  Hamiltonian                  GFN2-xTB          :
         :: gradient norm              0.000054438082 Eh/a0 ::
         :: HOMO-LUMO gap              2.173251439030 eV    ::
         :: SCC energy              -155.689487652434 Eh    ::
         :: -> dispersion             -0.150370365642 Eh    ::
         :: repulsion energy           2.735422714231 Eh    ::

    * Orbital Energies and Occupations

         #    Occupation            Energy/Eh            Energy/eV
      -------------------------------------------------------------
         1        2.0000           -0.7196571             -19.5829
       ...           ...                  ...                  ...
       130        2.0000           -0.3987925             -10.8517
       131        2.0000           -0.3961718             -10.7804
       132        2.0000           -0.3957789             -10.7697
       133        2.0000           -0.3939194             -10.7191
       134        2.0000           -0.3893762             -10.5955
       135        2.0000           -0.3833425             -10.4313
       136        2.0000           -0.3810450             -10.3688
       137        2.0000           -0.3782629             -10.2931
       138        2.0000           -0.3740097             -10.1773
       139        2.0000           -0.3640512              -9.9063
       140        2.0000           -0.3559108              -9.6848
       141        2.0000           -0.3452738              -9.3954
       142        2.0000           -0.3417887              -9.3005 (HOMO)
       143                         -0.2619232              -7.1273 (LUMO)
       144                         -0.2515694              -6.8456
       145                         -0.2359068              -6.4193
       146                         -0.2345582              -6.3827
       147                         -0.2337750              -6.3613
       148                         -0.2335802              -6.3560
       149                         -0.2285730              -6.2198
       150                         -0.2245254              -6.1096
       151                         -0.2224189              -6.0523
       152                         -0.2201679              -5.9911
       153                         -0.2197097              -5.9786
       ...                                ...                  ...
       279                          0.7260596              19.7571
      -------------------------------------------------------------
                  HL-Gap            0.0798655 Eh            2.1733 eV

     #   Z          covCN         q      C6AA      α(0)
     1   6 C        2.919    -0.039    28.979     8.828
     2   6 C        2.920    -0.030    28.747     8.792
     3   6 C        2.923    -0.048    29.193     8.860
     4   6 C        2.924     0.066    26.522     8.445
     5   7 N        2.754    -0.075    22.698     7.076
     6   6 C        2.924     0.066    26.522     8.446
     7   6 C        2.923    -0.047    29.173     8.857
     8   6 C        2.920    -0.030    28.749     8.793
     9   6 C        2.919    -0.039    28.980     8.828
    10   6 C        2.920    -0.030    28.747     8.792
    11   6 C        2.923    -0.048    29.195     8.861
    12   6 C        2.924     0.065    26.537     8.448
    13   6 C        2.922    -0.090    30.270     9.022
    14   6 C        2.931     0.061    26.629     8.463
    15   6 C        2.899    -0.113    30.853     9.107
    16   6 C        2.932     0.060    26.665     8.469
    17   6 C        2.922    -0.090    30.267     9.022
    18   7 N        2.758    -0.047    22.139     6.988
    19   6 C        2.935     0.069    26.459     8.436
    20   6 C        2.921    -0.037    28.912     8.818
    21   6 C        2.920    -0.028    28.689     8.783
    22   6 C        2.920    -0.030    28.751     8.793
    23   6 C        2.920    -0.026    28.655     8.778
    24   6 C        2.923    -0.036    28.897     8.815
    25   6 C        2.926     0.063    26.593     8.457
    26   6 C        2.916    -0.098    30.467     9.051
    27   6 C        2.873     0.138    24.979     8.193
    28   6 C        2.885    -0.133    31.384     9.184
    29   6 C        2.874     0.137    25.016     8.199
    30   6 C        2.883    -0.115    30.921     9.116
    31   5 B        2.724     0.197    18.426     7.193
    32   6 C        2.887    -0.079    29.982     8.977
    33   6 C        2.924    -0.028    28.701     8.786
    34   6 C        2.914    -0.043    29.073     8.842
    35   6 C        2.920    -0.030    28.749     8.793
    36   6 C        2.920    -0.057    29.417     8.894
    37   6 C        2.925     0.058    26.696     8.473
    38   7 N        2.756    -0.054    22.277     7.010
    39   6 C        2.934     0.070    26.440     8.433
    40   6 C        2.921    -0.037    28.926     8.820
    41   6 C        2.920    -0.028    28.707     8.786
    42   6 C        2.920    -0.031    28.765     8.795
    43   6 C        2.920    -0.027    28.668     8.780
    44   6 C        2.923    -0.037    28.912     8.818
    45   8 O        1.712    -0.212    17.517     5.651
    46   6 C        2.876     0.137    24.998     8.196
    47   6 C        2.916    -0.053    29.326     8.880
    48   6 C        2.920    -0.027    28.688     8.783
    49   6 C        2.915    -0.041    29.020     8.834
    50   6 C        2.924    -0.033    28.829     8.805
    51   6 C        2.882    -0.091    30.294     9.023
    52   5 B        2.724     0.206    18.291     7.166
    53   6 C        2.882    -0.091    30.276     9.021
    54   6 C        2.925    -0.033    28.828     8.805
    55   6 C        2.915    -0.041    29.024     8.834
    56   6 C        2.920    -0.028    28.701     8.785
    57   6 C        2.917    -0.054    29.341     8.882
    58   6 C        2.877     0.139    24.977     8.193
    59   8 O        1.712    -0.230    17.818     5.699
    60   6 C        2.923    -0.047    29.174     8.858
    61   6 C        2.920    -0.030    28.751     8.793
    62   1 H        0.926     0.029     2.598     2.520
    63   1 H        0.926     0.031     2.573     2.508
    64   1 H        0.926     0.031     2.569     2.506
    65   1 H        0.926     0.032     2.553     2.498
    66   1 H        0.926     0.030     2.591     2.517
    67   1 H        0.926     0.029     2.599     2.521
    68   1 H        0.926     0.031     2.575     2.509
    69   1 H        0.926     0.031     2.572     2.508
    70   1 H        0.926     0.022     2.696     2.567
    71   1 H        0.926     0.023     2.690     2.565
    72   1 H        0.926     0.044     2.401     2.423
    73   1 H        0.926     0.039     2.457     2.451
    74   1 H        0.926     0.038     2.473     2.459
    75   1 H        0.926     0.039     2.461     2.453
    76   1 H        0.926     0.041     2.430     2.438
    77   1 H        0.926     0.038     2.471     2.458
    78   1 H        0.926     0.034     2.532     2.488
    79   1 H        0.926     0.021     2.725     2.581
    80   1 H        0.926     0.022     2.705     2.572
    81   1 H        0.926     0.019     2.745     2.591
    82   1 H        0.926     0.042     2.418     2.432
    83   1 H        0.926     0.038     2.479     2.462
    84   1 H        0.926     0.037     2.490     2.468
    85   1 H        0.926     0.038     2.476     2.461
    86   1 H        0.926     0.041     2.439     2.442
    87   1 H        0.926     0.046     2.372     2.408
    88   1 H        0.926     0.033     2.545     2.495
    89   1 H        0.926     0.028     2.611     2.527
    90   1 H        0.926     0.035     2.520     2.483
    91   1 H        0.926     0.035     2.513     2.479
    92   1 H        0.926     0.028     2.612     2.527
    93   1 H        0.926     0.032     2.553     2.499
    94   1 H        0.926     0.041     2.432     2.439
    95   1 H        0.926     0.032     2.555     2.500
    96   1 H        0.926     0.030     2.592     2.518

molecular dipole:
                 x           y           z       tot (Debye)
 q only:        0.917      -0.145       0.055
   full:        1.052      -0.217       0.064       2.734

 projected vibrational frequencies (cm⁻¹)
eigval :       -0.00    -0.00    -0.00     0.00     0.00     0.00
eigval :       12.47    12.94    16.01    20.94    24.14    28.55
eigval :       35.09    38.14    43.67    47.15    50.90    53.14
eigval :       57.13    61.35    67.23    71.28    77.32    85.45
eigval :       95.54   115.37   125.25   137.80   151.58   164.63
eigval :      177.94   178.35   187.81   199.91   208.93   212.92
eigval :      220.99   233.61   237.92   239.63   247.74   259.20
eigval :      263.99   268.36   270.67   279.52   312.47   323.87
eigval :      333.70   345.85   359.72   374.60   375.09   378.18
eigval :      380.39   384.25   388.32   393.51   403.88   415.44
eigval :      420.32   427.95   440.64   462.11   469.36   482.14
eigval :      484.35   487.33   493.88   496.35   498.13   502.01
eigval :      520.88   538.61   543.96   554.25   555.05   567.55
eigval :      574.59   578.78   583.16   585.90   588.85   589.65
eigval :      594.05   599.29   602.55   606.65   608.87   621.65
eigval :      634.48   640.45   652.89   660.15   662.19   668.82
eigval :      672.66   677.72   680.93   690.76   691.40   699.76
eigval :      705.89   710.14   721.12   745.92   756.39   757.51
eigval :      770.36   771.42   774.43   776.92   778.16   796.35
eigval :      822.83   825.47   829.47   846.64   848.69   870.14
eigval :      872.80   873.56   874.85   875.80   877.53   877.73
eigval :      878.14   881.52   890.96   892.84   898.07   901.89
eigval :      903.59   907.35   909.46   912.18   912.92   919.59
eigval :      923.21   925.52   925.69   926.12   926.93   927.48
eigval :      928.55   930.03   930.08   931.95   932.46   932.59
eigval :      975.28   983.25   994.30  1005.73  1008.81  1057.71
eigval :     1075.90  1078.78  1079.14  1080.10  1083.23  1084.36
eigval :     1085.59  1093.01  1100.13  1105.58  1112.27  1113.66
eigval :     1114.66  1121.82  1124.59  1129.94  1150.46  1164.11
eigval :     1174.66  1178.99  1179.25  1179.56  1181.65  1181.71
eigval :     1183.45  1186.11  1187.41  1188.06  1191.44  1195.79
eigval :     1200.23  1213.48  1218.71  1221.28  1228.46  1240.78
eigval :     1250.46  1258.08  1263.62  1268.24  1273.37  1273.71
eigval :     1277.78  1278.47  1283.23  1286.24  1295.02  1302.49
eigval :     1311.31  1312.18  1313.53  1320.93  1321.21  1323.39
eigval :     1326.57  1328.40  1332.54  1335.74  1352.14  1358.74
eigval :     1376.32  1400.46  1411.94  1417.83  1426.38  1427.83
eigval :     1429.59  1433.73  1434.31  1437.85  1443.70  1447.60
eigval :     1453.22  1457.41  1466.42  1471.74  1473.44  1477.39
eigval :     1478.78  1515.02  1538.99  1549.81  1551.80  1553.66
eigval :     1566.73  1572.77  1577.07  1581.28  1584.00  1584.63
eigval :     1594.11  1594.69  1595.58  1596.18  1596.96  1598.09
eigval :     1601.56  3067.55  3073.56  3074.20  3074.73  3075.32
eigval :     3076.69  3076.93  3077.82  3079.65  3080.94  3081.93
eigval :     3083.14  3083.53  3084.30  3085.84  3087.08  3088.84
eigval :     3089.64  3090.06  3090.53  3091.03  3093.48  3094.68
eigval :     3096.14  3096.95  3097.44  3099.07  3099.65  3100.59
eigval :     3102.12  3107.51  3109.27  3109.50  3110.01  3114.14

   temp. (K)  partition function   enthalpy   heat capacity  entropy
                                   cal/mol     cal/K/mol   cal/K/mol   J/K/mol
 298.15  VIB  0.565E+22            27894.712    176.501    173.197
         ROT  0.138E+09              888.752      2.981     40.222
         INT  0.778E+30            28783.464    179.481    213.419
         TR   0.211E+29             1481.254      4.968     45.818
         TOT                       30264.7180   184.4495   259.2369  1084.6472

       T/K    H(0)-H(T)+PV         H(T)/Eh          T*S/Eh         G(T)/Eh
   ------------------------------------------------------------------------
    298.15    0.482299E-01    0.773675E+00    0.123172E+00    0.650504E+00
   ------------------------------------------------------------------------

         :::::::::::::::::::::::::::::::::::::::::::::::::::::
         ::                  THERMODYNAMIC                  ::
         :::::::::::::::::::::::::::::::::::::::::::::::::::::
         :: total free energy        -152.303561380332 Eh   ::
         ::.................................................::
         :: total energy             -152.954064938202 Eh   ::
         :: zero point energy           0.725445477739 Eh   ::
         :: G(RRHO) w/o ZPVE           -0.074941919869 Eh   ::
         :: G(RRHO) contrib.            0.650503557870 Eh   ::
         :::::::::::::::::::::::::::::::::::::::::::::::::::::

           -------------------------------------------------
          | TOTAL ENERGY             -152.954064938202 Eh   |
          | TOTAL ENTHALPY           -152.180389562289 Eh   |
          | TOTAL FREE ENERGY        -152.303561380332 Eh   |
          | GRADIENT NORM               0.000054473335 Eh/α |
          | HOMO-LUMO GAP               2.173251548736 eV   |
           -------------------------------------------------

 * finished run on 2025/08/23 at 01:18:59.211
