   * xtb version 6.7.1 (edcfbbe) compiled by 'albert@albert-system' on 2024-07-22

   ID    Z sym.   atoms
    1    6 C      1-4, 6-19, 21-26, 28-37, 39-53
    2    7 N      5, 20, 27, 38
    3    1 H      54-89

          program call               : xtb data2507/gas/DDPA-Ph-Bz/DDPA-Ph-Bz_gas_S0_finalOpt.xtbopt.xyz --gfn 2 --spinpol --tblite --uhf 2 --ohess vtight --parallel 40 --molden --ceasefiles --namespace data2507/gas/DDPA-Ph-Bz/DDPA-Ph-Bz_gas_T1_preOpt
 * total energy  :  -134.9147937 Eh     change        0.2724218E-07 Eh
 * total energy  :  -134.9207647 Eh     change       -0.5971035E-02 Eh
 * total energy  :  -134.9242229 Eh     change       -0.3458209E-02 Eh
 * total energy  :  -134.9249872 Eh     change       -0.7642703E-03 Eh
 * total energy  :  -134.9260334 Eh     change       -0.1046229E-02 Eh
 * total energy  :  -134.9265710 Eh     change       -0.5376363E-03 Eh
 * total energy  :  -134.9269608 Eh     change       -0.3897392E-03 Eh
 * total energy  :  -134.9272694 Eh     change       -0.3085913E-03 Eh
 * total energy  :  -134.9274242 Eh     change       -0.1548143E-03 Eh
 * total energy  :  -134.9274955 Eh     change       -0.7128538E-04 Eh
 * total energy  :  -134.9279562 Eh     change       -0.1983155E-06 Eh
 * total energy  :  -134.9279566 Eh     change       -0.4099406E-06 Eh
 * total energy  :  -134.9279569 Eh     change       -0.3396091E-06 Eh
 * total energy  :  -134.9279571 Eh     change       -0.1787371E-06 Eh
 * total energy  :  -134.9279573 Eh     change       -0.2478840E-06 Eh
 * total energy  :  -134.9279575 Eh     change       -0.1386097E-06 Eh
 * total energy  :  -134.9279578 Eh     change       -0.2762772E-06 Eh
 * total energy  :  -134.9279580 Eh     change       -0.1886850E-06 Eh
 * total energy  :  -134.9279580 Eh     change       -0.9296429E-07 Eh
   *** GEOMETRY OPTIMIZATION CONVERGED AFTER 62 ITERATIONS ***

 final structure:
================
89
 xtb: 6.7.1 (edcfbbe)
C           -6.72623065550452       -3.18994762258212        1.57268340335869
C           -5.79936169134917       -2.37196053157320        2.19798306725933
C           -4.57313892095001       -2.13002700170021        1.61202360844039
C           -4.25832688666611       -2.70077295004071        0.37819806393515
N           -3.02461242240721       -2.43706526963906       -0.22470415110166
C           -2.35087174305039       -3.44116253843571       -0.92206523741787
C           -2.41170066994162       -4.76576792556424       -0.48571098216893
C           -1.74209977720784       -5.75715425900296       -1.17529620967831
C           -0.99717705258336       -5.44878098011315       -2.30210047623396
C           -0.93115047923891       -4.13525315709875       -2.73841327928469
C           -1.60322687745987       -3.13741260013403       -2.06095268261497
C           -2.48152815541593       -1.14793159436618       -0.13054663579393
C           -1.11620927181273       -0.96705109237079        0.00767662367895
C           -0.54837232932246        0.32468186878673        0.07949459061608
C            0.86630898565496        0.51229178989133        0.17726757743326
C            1.48850844784346        1.74555332812869       -0.18021810890606
C            2.83360400532996        1.90567689597443       -0.14252735523534
C            3.70603993798759        0.84059630361676        0.25381623185249
C            5.08349982201063        1.07108328467096        0.22564923719512
N            5.60143520688072        2.31451164700711        0.10186688017806
C            6.92307879857618        2.19654678776578        0.25118101767565
C            7.92354342914654        3.18056768874875        0.22227345589845
C            9.23056608002365        2.77343093294126        0.35899470221470
C            9.56845653423779        1.42568886403403        0.51402175774871
C            8.59973860194374        0.42980676888892        0.55344595857811
C            7.28346819366846        0.82437478246089        0.44164463095682
N            6.10196162161893        0.12212261446845        0.40708405011184
C            6.01433538768366       -1.27167554398654        0.32000926987075
C            6.64222893386356       -2.07009069817635        1.27262967492779
C            6.58169522326295       -3.44709207247315        1.16541560117071
C            5.89697465425046       -4.03788943832138        0.11610879898068
C            5.27137676062149       -3.24386349946804       -0.83268891746996
C            5.33203421961740       -1.86762741374768       -0.74071287191609
C            3.08148875211636       -0.36952818799195        0.68841697588216
C            1.73336789472105       -0.51941368716032        0.64061072710215
C           -1.43610037994045        1.42151101449460        0.05964424637142
C           -2.80140558083712        1.24212346072098       -0.07444252060574
N           -3.66458625317910        2.34489813913251       -0.10217712105689
C           -3.27543475724422        3.52974918936446       -0.73071061568809
C           -2.47884215750718        3.49765213078169       -1.87646231030228
C           -2.08868183551895        4.67371010876276       -2.48545968842852
C           -2.48923133033267        5.89715169335430       -1.97248171564690
C           -3.28464531997011        5.93496232456941       -0.83873587159342
C           -3.67426671903566        4.76482009135709       -0.21738128665660
C           -4.92209955186340        2.24461589612604        0.49983084878311
C           -5.07545503901977        1.53861662887676        1.69380623534126
C           -6.32128603367267        1.41902850413087        2.27609949517458
C           -7.42980290153524        2.00543113333513        1.68739680332768
C           -7.28177623318834        2.71636417280942        0.50721465910155
C           -6.04117133970638        2.83544029976886       -0.08760216143700
C           -3.33647738183117       -0.04452282911834       -0.19240580418097
C           -5.19429615999029       -3.52537224546526       -0.24626472661933
C           -6.41531748534018       -3.76719990467000        0.35202319548941
H           -7.68356416457410       -3.37825529301189        2.03408039247696
H           -6.02932580945169       -1.92806046402153        3.15502032111066
H           -3.84391849480889       -1.50628923698740        2.10683865408968
H           -2.97963353535562       -5.00715264000620        0.40083001117148
H           -1.79488006328573       -6.77717960828331       -0.82422562040174
H           -0.47214231407242       -6.22610394915049       -2.83591456863244
H           -0.35772572520538       -3.88606669129777       -3.61898932147533
H           -1.55902302537270       -2.11661268879416       -2.41043725309652
H           -0.47920715815693       -1.83651437981970        0.02881504279022
H            0.87545811015461        2.56070942829084       -0.53379432105553
H            3.29777542754123        2.83281970795453       -0.43812453352124
H            7.65587796664245        4.21656611283649        0.09375130774357
H           10.02234058470690        3.50823118338798        0.34092339362795
H           10.60862109084512        1.14991832622676        0.60371107385516
H            8.87510091721730       -0.60900753789779        0.65775250792274
H            7.15618172192315       -1.60555390165097        2.10105924503729
H            7.06642772521065       -4.06192664434156        1.90954649440119
H            5.84995649429339       -5.11357990032220        0.03804227313555
H            4.73910261625680       -3.70047647249984       -1.65395696253533
H            4.85198637587340       -1.24271149034784       -1.47906260900077
H            3.68686735638739       -1.15867471754543        1.10664956424293
H            1.30275700740250       -1.43572476710019        1.01611477718302
H           -1.05691004869467        2.42217217974825        0.18957177946059
H           -2.17426333625396        2.54544769782012       -2.28488445240954
H           -1.47271180471661        4.63445233844652       -3.37161258892668
H           -2.18275144149303        6.81401969487375       -2.45213139965426
H           -3.59644415366332        6.88391390703977       -0.42815243833765
H           -4.28131673040463        4.79780759148502        0.67542327397842
H           -4.20825657309160        1.09725442028683        2.16141238377223
H           -6.42641697080395        0.87370952098363        3.20202018231156
H           -8.40223771399440        1.91133046026786        2.14601571431125
H           -8.14139657362277        3.17424082976549        0.04054535354835
H           -5.92976502066817        3.37779185253120       -1.01511025675050
H           -4.39579767555602       -0.18320110232645       -0.34069371943315
H           -4.95880198890132       -3.96502725570507       -1.20444945956373
H           -7.13341156113406       -4.40383820820722       -0.14341224433030

 projected vibrational frequencies (cm⁻¹)
eigval :       -0.00    -0.00     0.00     0.00     0.00     0.00
eigval :        8.93     9.57    11.22    15.27    22.26    24.85
eigval :       32.29    40.24    44.28    54.70    57.18    61.45
eigval :       65.38    65.57    71.70    73.67    79.88    87.01
eigval :       89.69   105.17   109.66   127.51   158.46   175.85
eigval :      198.48   208.19   216.21   227.35   229.44   232.46
eigval :      236.30   247.60   250.12   250.52   269.11   295.90
eigval :      304.87   315.75   324.52   357.79   361.75   372.61
eigval :      376.72   377.53   378.31   382.98   383.55   385.86
eigval :      391.34   398.56   403.41   416.57   427.49   469.80
eigval :      471.48   474.54   482.32   492.39   495.83   516.50
eigval :      534.53   545.67   549.60   571.22   579.55   580.79
eigval :      584.50   585.75   587.55   589.02   593.19   598.95
eigval :      601.74   605.73   622.38   625.24   635.98   654.75
eigval :      660.20   660.41   662.48   664.91   667.88   672.10
eigval :      697.64   703.84   741.08   747.49   754.58   755.59
eigval :      757.33   758.94   764.91   781.13   786.85   799.89
eigval :      808.04   832.01   841.38   843.51   857.16   868.21
eigval :      872.09   872.54   872.81   873.20   876.27   879.39
eigval :      889.90   892.53   893.66   894.22   896.80   903.64
eigval :      905.23   908.09   909.70   911.78   912.10   921.08
eigval :      926.66   926.77   926.80   927.69   928.28   928.74
eigval :      928.89   929.28   930.46   931.89   954.88   974.29
eigval :      975.59   993.71  1002.09  1004.41  1004.63  1053.22
eigval :     1066.55  1077.93  1081.89  1082.72  1083.16  1083.75
eigval :     1083.96  1088.27  1114.61  1118.56  1120.01  1122.08
eigval :     1123.67  1124.94  1136.15  1158.28  1158.81  1165.79
eigval :     1177.50  1179.67  1179.89  1180.11  1181.35  1186.25
eigval :     1187.63  1190.90  1195.13  1196.50  1200.98  1209.66
eigval :     1221.39  1243.67  1254.51  1259.64  1263.53  1265.41
eigval :     1275.92  1277.50  1278.62  1283.36  1287.22  1307.15
eigval :     1314.24  1316.23  1318.54  1319.44  1319.72  1321.16
eigval :     1327.68  1327.85  1338.60  1350.97  1354.42  1364.11
eigval :     1370.00  1384.19  1391.03  1399.40  1432.56  1434.24
eigval :     1435.26  1435.67  1442.13  1443.89  1454.17  1464.99
eigval :     1468.08  1468.31  1469.87  1476.36  1484.91  1486.59
eigval :     1503.54  1529.09  1539.62  1569.98  1572.49  1572.79
eigval :     1573.67  1576.94  1577.43  1584.61  1588.33  1589.40
eigval :     1591.11  1594.48  1596.70  3074.98  3077.27  3077.46
eigval :     3077.60  3078.16  3078.30  3079.10  3079.18  3079.72
eigval :     3079.94  3080.17  3080.41  3082.04  3082.59  3087.65
eigval :     3088.36  3088.88  3089.48  3089.59  3091.43  3091.84
eigval :     3092.03  3092.34  3093.02  3094.60  3098.11  3098.76
eigval :     3099.16  3099.24  3100.22  3100.77  3103.33  3109.43
eigval :     3110.04  3110.45  3112.12

   temp. (K)  partition function   enthalpy   heat capacity  entropy
                                   cal/mol     cal/K/mol   cal/K/mol   J/K/mol
 298.15  VIB  0.151E+22            25644.351    159.993    162.283
         ROT  0.127E+09              888.752      2.981     40.062
         INT  0.192E+30            26533.104    162.974    202.344
         TR   0.172E+29             1481.254      4.968     45.415
         TOT                       28014.3576   167.9417   247.7591  1036.6241

       T/K    H(0)-H(T)+PV         H(T)/Eh          T*S/Eh         G(T)/Eh
   ------------------------------------------------------------------------
    298.15    0.446437E-01    0.733744E+00    0.117718E+00    0.616026E+00
   ------------------------------------------------------------------------

         :::::::::::::::::::::::::::::::::::::::::::::::::::::
         ::                  THERMODYNAMIC                  ::
         :::::::::::::::::::::::::::::::::::::::::::::::::::::
         :: total free energy        -134.311932324512 Eh   ::
         ::.................................................::
         :: total energy             -134.927958065610 Eh   ::
         :: zero point energy           0.689100372012 Eh   ::
         :: G(RRHO) w/o ZPVE           -0.073074630914 Eh   ::
         :: G(RRHO) contrib.            0.616025741098 Eh   ::
         :::::::::::::::::::::::::::::::::::::::::::::::::::::

           -------------------------------------------------
          | TOTAL ENERGY             -134.927958065610 Eh   |
          | TOTAL ENTHALPY           -134.194213972990 Eh   |
          | TOTAL FREE ENERGY        -134.311932324512 Eh   |
          | GRADIENT NORM               0.000044648674 Eh/α |
           -------------------------------------------------

 * finished run on 2025/08/29 at 13:28:08.959
