   * xtb version 6.7.1 (edcfbbe) compiled by 'albert@albert-system' on 2024-07-22

   ID    Z sym.   atoms
    1    6 C      1-4, 6-19, 21-26, 28-37, 39-53
    2    7 N      5, 20, 27, 38
    3    1 H      54-89

          program call               : xtb data2507/gas/DDPA-Ph-Bz/DDPA-Ph-Bz.xyz --gfn 2 --ohess vtight --parallel 40 --molden --ceasefiles --namespace data2507/gas/DDPA-Ph-Bz/DDPA-Ph-Bz_gas_S0_preOpt
          :  Hamiltonian                  GFN2-xTB          :
 * total energy  :  -134.9838610 Eh     change       -0.2179689E-08 Eh
 * total energy  :  -134.9994623 Eh     change       -0.1560126E-01 Eh
 * total energy  :  -135.0065324 Eh     change       -0.7070063E-02 Eh
 * total energy  :  -135.0091931 Eh     change       -0.2660764E-02 Eh
 * total energy  :  -135.0104628 Eh     change       -0.1269626E-02 Eh
 * total energy  :  -135.0110380 Eh     change       -0.5752872E-03 Eh
 * total energy  :  -135.0114525 Eh     change       -0.4144736E-03 Eh
 * total energy  :  -135.0118564 Eh     change       -0.4039196E-03 Eh
 * total energy  :  -135.0122847 Eh     change       -0.4282759E-03 Eh
 * total energy  :  -135.0126181 Eh     change       -0.3333397E-03 Eh
 * total energy  :  -135.0132030 Eh     change       -0.5803599E-05 Eh
 * total energy  :  -135.0132087 Eh     change       -0.5698627E-05 Eh
 * total energy  :  -135.0132146 Eh     change       -0.5893173E-05 Eh
 * total energy  :  -135.0132192 Eh     change       -0.4578763E-05 Eh
 * total energy  :  -135.0132214 Eh     change       -0.2143048E-05 Eh
 * total energy  :  -135.0132222 Eh     change       -0.8757871E-06 Eh
 * total energy  :  -135.0132229 Eh     change       -0.6350920E-06 Eh
 * total energy  :  -135.0132236 Eh     change       -0.7771515E-06 Eh
 * total energy  :  -135.0132236 Eh     change       -0.4600366E-08 Eh
   *** GEOMETRY OPTIMIZATION CONVERGED AFTER 44 ITERATIONS ***

 final structure:
================
89
 xtb: 6.7.1 (edcfbbe)
C           -2.74220825353835       -5.99719760346243        1.62728436652924
C           -2.35613415925633       -4.81390492528578        2.23507263149603
C           -2.63380658279918       -3.59826485392677        1.64109798281623
C           -3.29791063866795       -3.54992120061027        0.41564559568385
N           -3.58019731025726       -2.32237406719341       -0.19426901119663
C           -4.78253917251977       -2.14947271722804       -0.89068968023268
C           -4.81732311635543       -1.39899553639198       -2.06565955129970
C           -6.00619130399899       -1.22657237257262       -2.74694732656281
C           -7.17440669782213       -1.80396574990299       -2.27714831042460
C           -7.14452491095399       -2.55487049235365       -1.11353596929861
C           -5.96209492568134       -2.72529854753971       -0.42021775986980
C           -2.67242452366888       -1.26343844536771       -0.09729747670628
C           -1.30051820026669       -1.50578032053847       -0.11940332877648
C           -0.39895227073151       -0.45324596440289       -0.01458499952877
C            1.04875942802069       -0.70746574895578       -0.03517653412876
C            1.59705107610802       -1.65173136782306       -0.90174521562010
C            2.95859667459311       -1.86484556163472       -0.94215356307920
C            3.81390788721748       -1.13599168241874       -0.11645795362306
C            5.24388190904594       -1.38600400139711       -0.19800795355099
N            5.75176345175714       -2.56384892006214       -0.43830434965300
C            7.10933155378465       -2.41067695253908       -0.39829449619773
C            8.12624465052277       -3.33953613830265       -0.59098923296457
C            9.42682147100876       -2.89028720426444       -0.50993347381056
C            9.72479472604909       -1.55011608406135       -0.25400218955731
C            8.73174569561971       -0.61135230572072       -0.05751986990841
C            7.42217293027218       -1.05942135405857       -0.11730565706217
N            6.20932951452480       -0.41860161562862        0.00740458917143
C            6.02697618897812        0.96274342449923        0.17669986346374
C            5.20734702390837        1.67113309254371       -0.69707574574689
C            5.03275522935928        3.03086164161697       -0.52316686343593
C            5.68178960759218        3.69288181257552        0.50653853607152
C            6.50564569909325        2.98934428007280        1.36878063247516
C            6.67861275962031        1.62609977158003        1.21081885516038
C            3.26734591156735       -0.21850358664725        0.77939661535934
C            1.90466593307388       -0.00620868840748        0.81187958412473
C           -0.87239828594384        0.84863065185465        0.10264944619209
C           -2.24157730607027        1.10387164214065        0.10327104124217
N           -2.71596860532112        2.41593819881182        0.20944357511406
C           -3.88476716996170        2.67868566052685        0.93395375647270
C           -4.15778978819016        1.98323226561107        2.11156018734765
C           -5.31487213319982        2.24085892827912        2.82012984380571
C           -6.21173932954772        3.19829486507086        2.37543122110696
C           -5.94297608773787        3.89566200383673        1.20916062947407
C           -4.79302016787703        3.63838462922134        0.48855148191571
C           -2.02891882599712        3.46224754745423       -0.41439434670133
C           -1.41229674091878        3.26913428955856       -1.65075142328666
C           -0.72920858492810        4.30452199282411       -2.25798638987053
C           -0.65642366147068        5.54860091068371       -1.65308709555865
C           -1.27187495354423        5.74795785345749       -0.42812882666515
C           -1.94892794781548        4.71608304054733        0.19183967534878
C           -3.13748508258830        0.04394075301100        0.00864579396893
C           -3.67959151629779       -4.74464976895667       -0.19447575974547
C           -3.40633972385851       -5.95488367766785        0.41236119340725
H           -2.52693357752707       -6.94501948450696        2.09662797253682
H           -1.84155020156795       -4.83639605820261        3.18447886930281
H           -2.34031870459970       -2.67739457373977        2.12337591115849
H           -3.90554866888039       -0.95671640395307       -2.43969663689163
H           -6.01858551509275       -0.64422385133889       -3.65664060645353
H           -8.10113349961251       -1.66990501201637       -2.81409481405842
H           -8.05138657576035       -3.00486399346165       -0.73696551882869
H           -5.94329206825218       -3.30331225706013        0.49214108673335
H           -0.94030948362500       -2.51992172880334       -0.19847917215247
H            0.94915025229144       -2.20520672514556       -1.56521180304172
H            3.38693362594024       -2.59110850183180       -1.61512378135510
H            7.89054256196114       -4.37030110371990       -0.80095134923091
H           10.24037489971406       -3.58586850627859       -0.65434628312136
H           10.75867365963775       -1.24081402660291       -0.21092595060199
H            8.96702174194353        0.42646190102350        0.12688329398391
H            4.71072533676976        1.15045085984760       -1.50226567680274
H            4.39146181744692        3.57688284098619       -1.19864145134579
H            5.54539876970299        4.75577623034181        0.63642446597467
H            7.01194312302531        3.50158460714341        2.17341090399166
H            7.30343626852666        1.06791701545906        1.89227925881767
H            3.90512124498547        0.31847801825030        1.46606662871621
H            1.49407178124840        0.69901493355083        1.51945666121241
H           -0.17762994168617        1.67161828994765        0.17257128410679
H           -3.45481626335267        1.24361599254840        2.46598937757837
H           -5.51324738627121        1.69574346402229        3.73132243958697
H           -7.11344914286818        3.39934612835264        2.93362002707109
H           -6.63897427052094        4.64039731261289        0.85186168455602
H           -4.59087516555832        4.17640160662437       -0.42610080580966
H           -1.47568412112690        2.30369376339612       -2.13092440041723
H           -0.25814328965456        4.14060946165608       -3.21622592077115
H           -0.12547856003108        6.35673400876545       -2.13296681861299
H           -1.21735406052073        6.71321185775399        0.05369651049501
H           -2.41897910361249        4.87225641165857        1.15181243771868
H           -4.19974713075701        0.23674968260070        0.01745347848926
H           -4.18873328975709       -4.71521551802252       -1.14675698708079
H           -3.70681540648585       -6.87235444227864       -0.07206505916744

          :  Hamiltonian                  GFN2-xTB          :
         :: gradient norm              0.000051600170 Eh/a0 ::
         :: HOMO-LUMO gap              2.288458045386 eV    ::
         :: SCC energy              -137.548236291965 Eh    ::
         :: -> dispersion             -0.123175829497 Eh    ::
         :: repulsion energy           2.535012648454 Eh    ::

    * Orbital Energies and Occupations

         #    Occupation            Energy/Eh            Energy/eV
      -------------------------------------------------------------
         1        2.0000           -0.6834690             -18.5981
       ...           ...                  ...                  ...
       114        2.0000           -0.4077985             -11.0968
       115        2.0000           -0.4074704             -11.0878
       116        2.0000           -0.4062512             -11.0547
       117        2.0000           -0.4057991             -11.0424
       118        2.0000           -0.4047177             -11.0129
       119        2.0000           -0.4044437             -11.0055
       120        2.0000           -0.4027003             -10.9580
       121        2.0000           -0.3958970             -10.7729
       122        2.0000           -0.3782545             -10.2928
       123        2.0000           -0.3745496             -10.1920
       124        2.0000           -0.3728630             -10.1461
       125        2.0000           -0.3511545              -9.5554
       126        2.0000           -0.3478158              -9.4646 (HOMO)
       127                         -0.2637166              -7.1761 (LUMO)
       128                         -0.2404271              -6.5424
       129                         -0.2382841              -6.4840
       130                         -0.2322889              -6.3209
       131                         -0.2304235              -6.2701
       132                         -0.2299749              -6.2579
       133                         -0.2288291              -6.2268
       134                         -0.2250478              -6.1239
       135                         -0.2248260              -6.1178
       136                         -0.2235747              -6.0838
       137                         -0.2216626              -6.0317
       ...                                ...                  ...
       248                          0.7059816              19.2107
      -------------------------------------------------------------
                  HL-Gap            0.0840993 Eh            2.2885 eV

     #   Z          covCN         q      C6AA      α(0)
     1   6 C        2.919    -0.038    28.950     8.823
     2   6 C        2.920    -0.029    28.725     8.789
     3   6 C        2.922    -0.047    29.179     8.858
     4   6 C        2.924     0.065    26.539     8.448
     5   7 N        2.753    -0.076    22.716     7.079
     6   6 C        2.924     0.065    26.536     8.448
     7   6 C        2.923    -0.047    29.173     8.857
     8   6 C        2.920    -0.029    28.732     8.790
     9   6 C        2.919    -0.038    28.953     8.824
    10   6 C        2.920    -0.029    28.729     8.790
    11   6 C        2.922    -0.047    29.173     8.857
    12   6 C        2.921     0.066    26.532     8.447
    13   6 C        2.927    -0.063    29.568     8.917
    14   6 C        2.975     0.010    27.797     8.648
    15   6 C        2.978     0.013    27.721     8.636
    16   6 C        2.923    -0.032    28.803     8.801
    17   6 C        2.925    -0.028    28.694     8.785
    18   6 C        2.975     0.001    27.994     8.679
    19   6 C        3.180     0.135    24.663     8.107
    20   7 N        1.886    -0.291    28.398     7.900
    21   6 C        3.191     0.067    26.029     8.321
    22   6 C        2.910    -0.042    29.042     8.837
    23   6 C        2.923    -0.039    28.978     8.828
    24   6 C        2.927    -0.037    28.922     8.819
    25   6 C        2.908    -0.051    29.266     8.871
    26   6 C        3.087     0.034    27.139     8.540
    27   7 N        2.825    -0.052    22.238     7.004
    28   6 C        2.913     0.067    26.498     8.441
    29   6 C        2.922    -0.039    28.970     8.826
    30   6 C        2.920    -0.026    28.657     8.779
    31   6 C        2.919    -0.031    28.785     8.798
    32   6 C        2.920    -0.028    28.690     8.784
    33   6 C        2.922    -0.041    29.020     8.834
    34   6 C        2.921    -0.033    28.811     8.802
    35   6 C        2.924    -0.034    28.842     8.807
    36   6 C        2.928    -0.064    29.580     8.919
    37   6 C        2.921     0.065    26.543     8.449
    38   7 N        2.753    -0.076    22.720     7.079
    39   6 C        2.924     0.065    26.538     8.448
    40   6 C        2.923    -0.047    29.175     8.858
    41   6 C        2.920    -0.029    28.730     8.790
    42   6 C        2.919    -0.038    28.952     8.824
    43   6 C        2.920    -0.029    28.730     8.790
    44   6 C        2.922    -0.047    29.177     8.858
    45   6 C        2.924     0.066    26.530     8.447
    46   6 C        2.922    -0.048    29.186     8.859
    47   6 C        2.919    -0.030    28.741     8.791
    48   6 C        2.919    -0.039    28.975     8.827
    49   6 C        2.919    -0.030    28.738     8.791
    50   6 C        2.923    -0.048    29.195     8.861
    51   6 C        2.926    -0.071    29.763     8.947
    52   6 C        2.923    -0.048    29.187     8.860
    53   6 C        2.920    -0.029    28.728     8.789
    54   1 H        0.926     0.030     2.580     2.512
    55   1 H        0.926     0.031     2.565     2.505
    56   1 H        0.926     0.031     2.579     2.511
    57   1 H        0.926     0.031     2.577     2.510
    58   1 H        0.926     0.031     2.569     2.507
    59   1 H        0.926     0.030     2.585     2.514
    60   1 H        0.926     0.031     2.565     2.505
    61   1 H        0.926     0.032     2.559     2.502
    62   1 H        0.926     0.036     2.498     2.472
    63   1 H        0.926     0.039     2.466     2.455
    64   1 H        0.926     0.053     2.279     2.361
    65   1 H        0.926     0.044     2.402     2.424
    66   1 H        0.926     0.031     2.571     2.507
    67   1 H        0.926     0.030     2.586     2.515
    68   1 H        0.926     0.026     2.649     2.545
    69   1 H        0.926     0.038     2.477     2.461
    70   1 H        0.926     0.039     2.466     2.456
    71   1 H        0.926     0.038     2.479     2.462
    72   1 H        0.926     0.038     2.469     2.457
    73   1 H        0.926     0.042     2.417     2.431
    74   1 H        0.926     0.028     2.612     2.527
    75   1 H        0.926     0.035     2.523     2.484
    76   1 H        0.926     0.033     2.538     2.491
    77   1 H        0.926     0.031     2.574     2.509
    78   1 H        0.926     0.031     2.566     2.505
    79   1 H        0.926     0.030     2.583     2.513
    80   1 H        0.926     0.031     2.565     2.505
    81   1 H        0.926     0.032     2.563     2.503
    82   1 H        0.926     0.031     2.574     2.509
    83   1 H        0.926     0.030     2.582     2.513
    84   1 H        0.926     0.029     2.600     2.521
    85   1 H        0.926     0.031     2.575     2.509
    86   1 H        0.926     0.031     2.568     2.506
    87   1 H        0.926     0.034     2.525     2.485
    88   1 H        0.926     0.031     2.568     2.506
    89   1 H        0.926     0.031     2.565     2.505

molecular dipole:
                 x           y           z       tot (Debye)
 q only:       -0.509       0.897       0.118
   full:       -0.332       1.292       0.209       3.433

 projected vibrational frequencies (cm⁻¹)
eigval :       -0.00    -0.00    -0.00    -0.00     0.00     0.00
eigval :        8.48    10.20    13.36    13.96    21.99    24.67
eigval :       30.69    38.92    46.32    49.40    55.89    59.57
eigval :       62.57    65.55    71.37    74.75    81.23    84.92
eigval :       88.01    99.15   103.64   123.05   165.74   173.94
eigval :      201.36   210.18   215.88   218.54   233.54   241.02
eigval :      244.73   248.70   250.00   277.54   282.38   297.51
eigval :      311.93   322.27   338.70   350.80   372.23   374.61
eigval :      377.86   377.93   380.82   382.92   383.56   385.33
eigval :      386.15   397.00   404.14   418.74   464.00   474.48
eigval :      476.84   482.33   488.05   490.39   522.91   542.63
eigval :      547.31   548.15   572.31   579.46   582.80   586.03
eigval :      589.30   589.83   592.53   597.20   603.52   606.43
eigval :      619.26   621.38   626.58   657.99   660.16   660.96
eigval :      661.94   666.32   668.64   672.26   678.75   703.58
eigval :      710.87   717.71   743.89   756.32   756.84   757.33
eigval :      763.86   767.40   774.90   794.85   814.43   838.45
eigval :      866.86   868.40   870.28   873.92   874.20   875.09
eigval :      875.18   878.24   880.58   883.85   886.10   891.25
eigval :      891.89   893.17   894.15   898.35   903.67   907.41
eigval :      911.52   920.07   922.00   926.19   927.11   927.22
eigval :      928.27   928.34   928.48   928.55   928.87   929.55
eigval :      929.59   930.06   932.58   955.50   975.74   979.95
eigval :      998.28  1003.45  1005.55  1012.48  1030.92  1060.82
eigval :     1069.13  1080.39  1083.42  1083.86  1084.36  1084.46
eigval :     1116.56  1118.14  1122.13  1122.34  1124.53  1125.16
eigval :     1134.12  1135.59  1139.53  1170.48  1175.00  1180.71
eigval :     1180.80  1180.84  1180.87  1180.93  1189.59  1190.09
eigval :     1195.68  1195.87  1199.34  1201.40  1207.82  1209.06
eigval :     1245.13  1257.91  1265.71  1270.26  1272.21  1277.31
eigval :     1278.17  1278.60  1286.11  1292.55  1295.45  1316.51
eigval :     1317.51  1317.87  1320.84  1321.22  1322.78  1323.60
eigval :     1327.69  1327.79  1335.37  1363.09  1374.50  1379.62
eigval :     1398.99  1415.50  1430.83  1433.23  1436.51  1440.16
eigval :     1442.95  1448.44  1450.23  1471.18  1474.88  1476.30
eigval :     1477.49  1478.24  1485.75  1489.47  1536.33  1559.76
eigval :     1569.85  1570.68  1577.48  1578.79  1581.60  1581.87
eigval :     1583.16  1589.74  1595.49  1595.68  1595.77  1598.40
eigval :     1600.48  1601.16  1616.80  3074.28  3074.87  3075.56
eigval :     3075.74  3076.13  3076.27  3076.81  3076.95  3077.28
eigval :     3078.06  3080.16  3081.11  3083.53  3084.18  3085.80
eigval :     3086.02  3086.52  3086.89  3088.41  3089.14  3089.61
eigval :     3089.81  3090.11  3090.92  3091.65  3094.92  3095.82
eigval :     3096.55  3096.70  3097.33  3097.60  3098.09  3099.28
eigval :     3100.93  3105.97  3108.82

   temp. (K)  partition function   enthalpy   heat capacity  entropy
                                   cal/mol     cal/K/mol   cal/K/mol   J/K/mol
 298.15  VIB  0.137E+22            25350.430    157.551    160.802
         ROT  0.125E+09              888.752      2.981     40.033
         INT  0.172E+30            26239.182    160.532    200.835
         TR   0.172E+29             1481.254      4.968     45.415
         TOT                       27720.4362   165.4999   246.2496  1030.3085

       T/K    H(0)-H(T)+PV         H(T)/Eh          T*S/Eh         G(T)/Eh
   ------------------------------------------------------------------------
    298.15    0.441753E-01    0.737854E+00    0.117001E+00    0.620852E+00
   ------------------------------------------------------------------------

         :::::::::::::::::::::::::::::::::::::::::::::::::::::
         ::                  THERMODYNAMIC                  ::
         :::::::::::::::::::::::::::::::::::::::::::::::::::::
         :: total free energy        -134.392371261277 Eh   ::
         ::.................................................::
         :: total energy             -135.013223643509 Eh   ::
         :: zero point energy           0.693678209682 Eh   ::
         :: G(RRHO) w/o ZPVE           -0.072825827450 Eh   ::
         :: G(RRHO) contrib.            0.620852382232 Eh   ::
         :::::::::::::::::::::::::::::::::::::::::::::::::::::

           -------------------------------------------------
          | TOTAL ENERGY             -135.013223643509 Eh   |
          | TOTAL ENTHALPY           -134.275370106825 Eh   |
          | TOTAL FREE ENERGY        -134.392371261277 Eh   |
          | GRADIENT NORM               0.000051596521 Eh/α |
          | HOMO-LUMO GAP               2.288458099934 eV   |
           -------------------------------------------------

 * finished run on 2025/08/29 at 13:20:28.663
