   * xtb version 6.7.1 (edcfbbe) compiled by 'albert@albert-system' on 2024-07-22

   ID    Z sym.   atoms
    1    6 C      1-4, 6-19, 21-26, 28-37, 39-53
    2    7 N      5, 20, 27, 38
    3    1 H      54-89

          program call               : xtb data2507/gas/DDPA-Ph-Bz/DDPA-Ph-Bz_gas_T1_crest.xyz --gfn 2 --spinpol --tblite --uhf 2 --ohess vtight --parallel 40 --molden --ceasefiles --namespace data2507/gas/DDPA-Ph-Bz/DDPA-Ph-Bz_gas_T1_finalOpt
 * total energy  :  -134.9279116 Eh     change        0.4251888E-10 Eh
 * total energy  :  -134.9279238 Eh     change       -0.1223419E-04 Eh
 * total energy  :  -134.9279284 Eh     change       -0.4597273E-05 Eh
 * total energy  :  -134.9279295 Eh     change       -0.1073821E-05 Eh
 * total energy  :  -134.9279308 Eh     change       -0.1348121E-05 Eh
 * total energy  :  -134.9279322 Eh     change       -0.1394883E-05 Eh
 * total energy  :  -134.9279338 Eh     change       -0.1578848E-05 Eh
 * total energy  :  -134.9279351 Eh     change       -0.1319541E-05 Eh
 * total energy  :  -134.9279359 Eh     change       -0.8107203E-06 Eh
 * total energy  :  -134.9279366 Eh     change       -0.6237930E-06 Eh
 * total energy  :  -134.9279409 Eh     change       -0.9598664E-06 Eh
 * total energy  :  -134.9279417 Eh     change       -0.8221485E-06 Eh
 * total energy  :  -134.9279423 Eh     change       -0.5914530E-06 Eh
 * total energy  :  -134.9279428 Eh     change       -0.5545603E-06 Eh
 * total energy  :  -134.9279435 Eh     change       -0.6672841E-06 Eh
 * total energy  :  -134.9279440 Eh     change       -0.5374301E-06 Eh
 * total energy  :  -134.9279444 Eh     change       -0.3711132E-06 Eh
 * total energy  :  -134.9279448 Eh     change       -0.3650698E-06 Eh
 * total energy  :  -134.9279448 Eh     change       -0.1165137E-07 Eh
   *** GEOMETRY OPTIMIZATION CONVERGED AFTER 22 ITERATIONS ***

 final structure:
================
89
 xtb: 6.7.1 (edcfbbe)
C           -6.69271156631844       -3.12291009187322        1.73098468874827
C           -5.73254524550816       -2.31101826610939        2.31246995977310
C           -4.52791987301462       -2.08789478819578        1.67646992024180
C           -4.26865220485503       -2.67159074562270        0.43568496253580
N           -3.05683699869399       -2.42590452704694       -0.21669279516304
C           -2.42301673610066       -3.43809024117065       -0.93866391212580
C           -2.48521206942400       -4.76255484065260       -0.50193016924562
C           -1.85607354527930       -5.76166629233648       -1.21791763470036
C           -1.15057936733476       -5.46146257322388       -2.37200047927636
C           -1.08236867433203       -4.14802375262915       -2.80824834097240
C           -1.71406098506346       -3.14231179701301       -2.10412891766260
C           -2.49528754627012       -1.14265554215743       -0.14674125124437
C           -1.12488714816347       -0.97758503254710       -0.04440628802503
C           -0.54071151489384        0.30776908840679        0.01011308622458
C            0.87678959723161        0.48262384894104        0.09107077000120
C            1.50511816728611        1.71092127623153       -0.27231342938205
C            2.85010585769104        1.86867654802642       -0.22404776378681
C            3.71717817297079        0.80612127536504        0.19023890995510
C            5.09362580350674        1.04473517889376        0.19710943438902
N            5.60475122844948        2.29249973984159        0.08692332144867
C            6.92165799006818        2.18654748140498        0.27947371222976
C            7.91348306700971        3.17972990643140        0.28290996788662
C            9.21873119301759        2.78479975456745        0.46482582220769
C            9.56334511142378        1.44035888647354        0.63284924751281
C            8.60297857811087        0.43555961724409        0.64021010892636
C            7.28768753040240        0.81788063207437        0.48382527463963
N            6.11408822174696        0.10505124084056        0.41147832469963
C            6.04206795728119       -1.28962009816962        0.32518822930695
C            6.64804985120522       -2.08007748921449        1.29846539504240
C            6.60518599931916       -3.45777572096370        1.19191419914076
C            5.95976459198560       -4.05724268351071        0.12280352594897
C            5.35536072527896       -3.27117819844332       -0.84617243635992
C            5.39872086146226       -1.89424332040513       -0.75477841998884
C            3.08746318141058       -0.40595613465820        0.61127548446768
C            1.73924840440769       -0.55332782444647        0.55308767699847
C           -1.41614534156648        1.41466108176773        0.00090885544313
C           -2.78610396354469        1.25073348539898       -0.09963066493303
N           -3.63591607726461        2.36441644747419       -0.11519773056371
C           -3.24997989370733        3.53467342192166       -0.77221429484348
C           -2.48934687381046        3.47420433800980       -1.94105777236577
C           -2.10156322280611        4.63534223742790       -2.57943433539026
C           -2.46864830346050        5.87186803153048       -2.07283107721772
C           -3.22777683403520        5.93787172130919       -0.91573023491253
C           -3.61485459806050        4.78278875233914       -0.26525974875108
C           -4.87437139356038        2.28848308739133        0.52782465583728
C           -4.99909588405811        1.59481150301042        1.73239826068041
C           -6.22673394848633        1.49930864472842        2.35624727972829
C           -7.34502984438995        2.09784575765737        1.79906926597427
C           -7.22523902455221        2.79615323978617        0.60818496957887
C           -6.00327253272246        2.89108595264188       -0.02808768294123
C           -3.33921654920430       -0.03008715038313       -0.19329692952872
C           -5.23826528614717       -3.48944861882542       -0.14483331154003
C           -6.43714538793785       -3.71258317666297        0.50343323314394
H           -7.63295854715484       -3.29677252942672        2.23152569690448
H           -5.91919949024246       -1.85715543819349        3.27426728741220
H           -3.77260359457519       -1.46902535598661        2.13710465647147
H           -3.02215821601578       -4.99782767650281        0.40531115412652
H           -1.90955260887745       -6.78155810299054       -0.86655360988579
H           -0.65759482381813       -6.24499977110883       -2.92686445548537
H           -0.53931334159406       -3.90509498266960       -3.70957970834576
H           -1.66864729345303       -2.12141364043597       -2.45317847208358
H           -0.49819395854439       -1.85479253436183       -0.03505019554196
H            0.89697841445947        2.52490843730298       -0.63695771563326
H            3.31819994778103        2.79354271187308       -0.52058869793056
H            7.64072761288858        4.21310187022034        0.14436041454489
H           10.00386152805612        3.52686170117002        0.47337114511503
H           10.60226418088023        1.17422856930135        0.75873689736284
H            8.88434434350903       -0.60052740650046        0.75494568846096
H            7.13107637698367       -1.60898328222508        2.14165448925252
H            7.07295422231850       -4.06640085810944        1.95184074946458
H            5.92670079551344       -5.13347058611331        0.04504113968659
H            4.85357247122403       -3.73454730492483       -1.68270241031434
H            4.93502614547473       -1.27540732406330       -1.50856471887958
H            3.68798207593456       -1.19896006628487        1.02914059425168
H            1.30497081821572       -1.47105051944173        0.92077675359678
H           -1.02302656322184        2.41188830162090        0.11473694130804
H           -2.21088901739206        2.51172557636635       -2.34400734408726
H           -1.51395899465308        4.57411256589458       -3.48343041879426
H           -2.16426333269292        6.77704059004975       -2.57547638648421
H           -3.51289306274260        6.89722137226087       -0.50994842611495
H           -4.19325410069757        4.83768352879418        0.64530071203544
H           -4.12382727079916        1.14404501692903        2.17533515705458
H           -6.30955010496626        0.96331601759600        3.28985300424547
H           -8.30309736621798        2.02283181696745        2.29027767474056
H           -8.09277324215924        3.26311540106189        0.16579005519032
H           -5.91445098482019        3.42343546489863       -0.96378368025810
H           -4.40374424216097       -0.15766767040323       -0.31129366668727
H           -5.04651042384438       -3.93851819130027       -1.10837919714240
H           -7.18162602459160       -4.34433987254358        0.04184381324920

 projected vibrational frequencies (cm⁻¹)
eigval :       -0.00    -0.00    -0.00     0.00     0.00     0.00
eigval :        9.13     9.64    11.84    15.48    22.49    25.16
eigval :       32.55    40.54    44.25    54.76    56.66    61.50
eigval :       65.14    65.72    71.67    74.00    80.00    87.50
eigval :       89.73   104.62   110.08   127.00   158.02   175.53
eigval :      198.66   208.22   216.51   227.41   229.55   232.18
eigval :      236.10   247.69   249.70   250.47   268.49   296.35
eigval :      305.14   316.40   324.70   357.48   361.80   372.05
eigval :      376.77   377.40   378.38   382.79   383.16   386.00
eigval :      391.15   398.43   403.49   416.61   427.54   469.88
eigval :      471.56   474.46   481.94   492.39   496.13   516.48
eigval :      534.47   545.77   549.51   571.20   579.55   580.79
eigval :      584.59   585.85   587.53   589.03   593.19   598.81
eigval :      601.75   605.73   622.58   625.50   636.18   654.77
eigval :      660.17   660.30   662.65   664.86   667.90   672.21
eigval :      697.64   703.93   741.16   747.98   754.69   755.87
eigval :      757.53   759.31   764.89   781.08   786.62   799.36
eigval :      808.81   831.91   841.66   843.98   857.41   868.32
eigval :      872.29   872.42   872.66   873.01   876.44   879.83
eigval :      889.93   892.63   893.76   894.19   897.22   903.57
eigval :      905.21   908.54   910.25   911.83   912.18   921.31
eigval :      926.90   926.99   927.07   927.87   928.31   929.10
eigval :      929.33   929.76   930.44   931.90   955.14   974.13
eigval :      975.58   993.83  1002.05  1004.37  1004.68  1053.45
eigval :     1066.54  1077.91  1082.03  1082.72  1083.32  1083.66
eigval :     1083.85  1088.05  1114.75  1118.77  1120.23  1122.23
eigval :     1123.87  1125.12  1136.72  1157.71  1158.50  1166.17
eigval :     1177.71  1180.16  1180.23  1180.33  1181.55  1185.95
eigval :     1187.31  1191.20  1195.36  1196.81  1200.75  1209.60
eigval :     1222.32  1243.61  1254.37  1259.56  1263.34  1265.64
eigval :     1276.15  1277.63  1278.47  1283.51  1287.46  1307.42
eigval :     1314.43  1316.45  1318.77  1319.50  1319.77  1321.41
eigval :     1327.74  1327.95  1338.36  1350.61  1354.27  1363.52
eigval :     1369.99  1384.65  1390.63  1399.42  1432.41  1434.32
eigval :     1435.26  1435.58  1442.33  1444.02  1453.90  1464.94
eigval :     1468.09  1468.44  1470.01  1476.28  1484.46  1486.57
eigval :     1503.15  1529.60  1538.96  1569.99  1572.44  1572.77
eigval :     1573.69  1576.88  1577.35  1584.46  1588.27  1589.33
eigval :     1590.93  1593.62  1596.67  3075.07  3077.38  3077.61
eigval :     3077.97  3078.28  3078.48  3079.21  3079.29  3079.82
eigval :     3080.01  3080.24  3080.44  3082.11  3082.18  3087.79
eigval :     3088.49  3089.15  3089.62  3089.70  3091.44  3091.71
eigval :     3092.14  3092.36  3092.92  3094.61  3098.29  3098.67
eigval :     3099.27  3099.47  3100.27  3100.85  3103.02  3108.57
eigval :     3110.08  3110.46  3112.10

   temp. (K)  partition function   enthalpy   heat capacity  entropy
                                   cal/mol     cal/K/mol   cal/K/mol   J/K/mol
 298.15  VIB  0.134E+22            25641.329    159.992    162.173
         ROT  0.128E+09              888.752      2.981     40.073
         INT  0.171E+30            26530.081    162.973    202.247
         TR   0.172E+29             1481.254      4.968     45.415
         TOT                       28011.3348   167.9413   247.6620  1036.2177

       T/K    H(0)-H(T)+PV         H(T)/Eh          T*S/Eh         G(T)/Eh
   ------------------------------------------------------------------------
    298.15    0.446389E-01    0.733765E+00    0.117672E+00    0.616093E+00
   ------------------------------------------------------------------------

         :::::::::::::::::::::::::::::::::::::::::::::::::::::
         ::                  THERMODYNAMIC                  ::
         :::::::::::::::::::::::::::::::::::::::::::::::::::::
         :: total free energy        -134.311851522240 Eh   ::
         ::.................................................::
         :: total energy             -134.927944792858 Eh   ::
         :: zero point energy           0.689126559334 Eh   ::
         :: G(RRHO) w/o ZPVE           -0.073033288716 Eh   ::
         :: G(RRHO) contrib.            0.616093270618 Eh   ::
         :::::::::::::::::::::::::::::::::::::::::::::::::::::

           -------------------------------------------------
          | TOTAL ENERGY             -134.927944792858 Eh   |
          | TOTAL ENTHALPY           -134.194179330062 Eh   |
          | TOTAL FREE ENERGY        -134.311851522240 Eh   |
          | GRADIENT NORM               0.000045746984 Eh/α |
           -------------------------------------------------

 * finished run on 2025/08/29 at 13:39:45.967
