   * xtb version 6.7.1 (edcfbbe) compiled by 'albert@albert-system' on 2024-07-22

   ID    Z sym.   atoms
    1    6 C      1-4, 6-19, 21-26, 28-37, 39-53
    2    7 N      5, 20, 27, 38
    3    1 H      54-89

          program call               : xtb data2507/gas/DDPA-Ph-Bz/DDPA-Ph-Bz_gas_S0_crest.xyz --gfn 2 --ohess vtight --parallel 40 --molden --ceasefiles --namespace data2507/gas/DDPA-Ph-Bz/DDPA-Ph-Bz_gas_S0_finalOpt
          :  Hamiltonian                  GFN2-xTB          :
 * total energy  :  -135.0153772 Eh     change       -0.1817710E-08 Eh
 * total energy  :  -135.0153787 Eh     change       -0.1492140E-05 Eh
 * total energy  :  -135.0153804 Eh     change       -0.1722625E-05 Eh
 * total energy  :  -135.0153824 Eh     change       -0.2018322E-05 Eh
 * total energy  :  -135.0153835 Eh     change       -0.1091613E-05 Eh
 * total energy  :  -135.0153854 Eh     change       -0.1856599E-05 Eh
 * total energy  :  -135.0153882 Eh     change       -0.2787446E-05 Eh
 * total energy  :  -135.0153903 Eh     change       -0.2102693E-05 Eh
 * total energy  :  -135.0153915 Eh     change       -0.1212042E-05 Eh
 * total energy  :  -135.0153923 Eh     change       -0.8039912E-06 Eh
 * total energy  :  -135.0153949 Eh     change       -0.7952251E-06 Eh
 * total energy  :  -135.0153956 Eh     change       -0.6988210E-06 Eh
 * total energy  :  -135.0153961 Eh     change       -0.5745925E-06 Eh
 * total energy  :  -135.0153968 Eh     change       -0.6073246E-06 Eh
 * total energy  :  -135.0153975 Eh     change       -0.7218920E-06 Eh
 * total energy  :  -135.0153981 Eh     change       -0.5975760E-06 Eh
 * total energy  :  -135.0153984 Eh     change       -0.3620867E-06 Eh
 * total energy  :  -135.0153987 Eh     change       -0.2655485E-06 Eh
 * total energy  :  -135.0153987 Eh     change       -0.2896059E-08 Eh
   *** GEOMETRY OPTIMIZATION CONVERGED AFTER 22 ITERATIONS ***

 final structure:
================
89
 xtb: 6.7.1 (edcfbbe)
C           -6.60830655142851       -3.26526306408347        1.56003353868481
C           -5.69707688003408       -2.43516034942572        2.19169724362369
C           -4.47657161865058       -2.16357035856937        1.60620119541705
C           -4.15327214947303       -2.71336334203756        0.36623779565047
N           -2.92260981491773       -2.42264261480264       -0.23704511563734
C           -2.22777051737850       -3.41867148488753       -0.92879915433645
C           -2.25183716048449       -4.73858019771137       -0.47763081486428
C           -1.56589740981903       -5.72196266425426       -1.16307941244530
C           -0.83879836334152       -5.40913361258729       -2.29993848460152
C           -0.80925702064240       -4.09973322536634       -2.75111340637085
C           -1.49994365987424       -3.11088493363584       -2.07847706112028
C           -2.40623507313789       -1.12570723983249       -0.14855910545214
C           -1.03515739572898       -0.91322197764577       -0.02812097188371
C           -0.52857070797411        0.37924535717943        0.05647175071598
C            0.92180147213624        0.59507026320883        0.15563787442493
C            1.53137017547779        1.64781893600034       -0.52584912572567
C            2.89702640865078        1.82842587666774       -0.46799773437607
C            3.69509413648112        0.95623442477755        0.27123914931171
C            5.13299320613136        1.17167271543603        0.29451861183912
N            5.68166067153012        2.35538310881173        0.28341774033099
C            7.03158328526393        2.15179855267801        0.35322455598764
C            8.07999107583050        3.06531291288400        0.36774027368211
C            9.36335634837758        2.56548755021730        0.42361505875813
C            9.61426617233765        1.19204797622167        0.45434729231779
C            8.58917397751997        0.26730775426242        0.44309078270265
C            7.29577974868112        0.76254098666503        0.40811351034453
N            6.06210721499318        0.15114721627547        0.36917132249669
C            5.83311695576208       -1.23118798594185        0.28897094469432
C            6.42216055615061       -2.08662401204848        1.21380895910036
C            6.20209404221633       -3.44941673661015        1.12610027602437
C            5.39251943114045       -3.96291402719012        0.12707672345086
C            4.80568295818187       -3.10969039514410       -0.79344380042679
C            5.02837353667378       -1.74775470422681       -0.72234650510322
C            3.08648448909434       -0.07378487131537        0.98656075822441
C            1.72000065332373       -0.25105756990577        0.92304840976047
C           -1.40066276003250        1.46155504529214        0.05228364821413
C           -2.77371072818033        1.25946614143235       -0.06904503476890
N           -3.65388835855705        2.34502316374824       -0.08295200477788
C           -3.28746249116810        3.54378185405698       -0.70355192553076
C           -2.50699461751220        3.53608924747397       -1.85965765786668
C           -2.14259903118282        4.72428353905875       -2.46205744685024
C           -2.55611179877962        5.93583677465350       -1.93291882807882
C           -3.33781162472658        5.94911677009762       -0.78945132912754
C           -3.69898183598447        4.76657689897171       -0.17390991670668
C           -4.91835229713543        2.21651947283823        0.50578604457786
C           -5.07078027049714        1.51134785603193        1.69907999392474
C           -6.32014218702520        1.36822395381158        2.26893046509488
C           -7.43333946699856        1.93316590625153        1.66883281692315
C           -7.28599962535754        2.64500434754322        0.48976822974906
C           -6.04150588452252        2.78485496826000       -0.09330443831315
C           -3.26894107803773       -0.03519597371588       -0.18729784643604
C           -5.07297017405403       -3.54959543188252       -0.26468575538450
C           -6.28766040798826       -3.82341509958470        0.33351587963054
H           -7.56095264011930       -3.47735034811232        2.02103877762141
H           -5.93434219606111       -2.00440331428421        3.15310827519121
H           -3.76090881952083       -1.52740096624120        2.10549984970449
H           -2.80939058798571       -4.98429308035274        0.41436887154090
H           -1.59257283192258       -6.73939473442716       -0.80118722384662
H           -0.30101462465777       -6.17991915253208       -2.83090256291359
H           -0.25136230725727       -3.84676774665728       -3.64094387044495
H           -1.48418749781181       -2.09346957396532       -2.44070880663683
H           -0.36419412037116       -1.75847129293609       -0.02063536475529
H            0.92871271701831        2.31549521062566       -1.12392343895147
H            3.37245273566101        2.63899502386636       -0.99791154771524
H            7.88101910576567        4.12416038862305        0.33075488170098
H           10.20045399528420        3.24787814811868        0.43668789488750
H           10.63665593552839        0.84538862147135        0.48574259080044
H            8.78888814990394       -0.79401138164316        0.45339942937361
H            7.03535086612016       -1.67796146374343        2.00331474884352
H            6.66014884739533       -4.11111190992345        1.84617302576692
H            5.21884783838061       -5.02652178808057        0.06550956766861
H            4.17562828590116       -3.50693525473520       -1.57503751983761
H            4.58087506164779       -1.07829928449467       -1.44179738174436
H            3.67914004363783       -0.72822487388786        1.60881379324722
H            1.26113961735375       -1.04528046171130        1.49319322664538
H           -1.01862930017782        2.46415201634375        0.16724553249851
H           -2.19403510167467        2.59258628358305       -2.28267049402901
H           -1.53855024128133        4.70351481611499       -3.35745765317027
H           -2.27191814316634        6.86218347945040       -2.40840283264327
H           -3.66214520080606        6.88887109049908       -0.36715542015813
H           -4.29986212236305        4.78061577379851        0.72362917553076
H           -4.20125954763788        1.08292555866236        2.17494941282188
H           -6.42422807952244        0.82070348582647        3.19388349404310
H           -8.40855321050693        1.82134020790348        2.11775561773932
H           -8.14886151481107        3.08754264989820        0.01397381554153
H           -5.93048037252997        3.33117181757532       -1.01862230986301
H           -4.32989730102270       -0.19501986675180       -0.30814040390315
H           -4.82889349616368       -3.97733148421990       -1.22619881395152
H           -6.99306910245587       -4.47035979465624       -0.16707198357607

          :  Hamiltonian                  GFN2-xTB          :
         :: gradient norm              0.000038437514 Eh/a0 ::
         :: HOMO-LUMO gap              2.274934428174 eV    ::
         :: SCC energy              -137.551104618759 Eh    ::
         :: -> dispersion             -0.125821106772 Eh    ::
         :: repulsion energy           2.535705911486 Eh    ::

    * Orbital Energies and Occupations

         #    Occupation            Energy/Eh            Energy/eV
      -------------------------------------------------------------
         1        2.0000           -0.6834540             -18.5977
       ...           ...                  ...                  ...
       114        2.0000           -0.4078709             -11.0987
       115        2.0000           -0.4077635             -11.0958
       116        2.0000           -0.4065660             -11.0632
       117        2.0000           -0.4060431             -11.0490
       118        2.0000           -0.4048375             -11.0162
       119        2.0000           -0.4046231             -11.0104
       120        2.0000           -0.4028847             -10.9631
       121        2.0000           -0.3957458             -10.7688
       122        2.0000           -0.3781770             -10.2907
       123        2.0000           -0.3746274             -10.1941
       124        2.0000           -0.3729007             -10.1471
       125        2.0000           -0.3518172              -9.5734
       126        2.0000           -0.3473468              -9.4518 (HOMO)
       127                         -0.2637445              -7.1769 (LUMO)
       128                         -0.2405304              -6.5452
       129                         -0.2381628              -6.4807
       130                         -0.2322381              -6.3195
       131                         -0.2307199              -6.2782
       132                         -0.2298812              -6.2554
       133                         -0.2288955              -6.2286
       134                         -0.2250215              -6.1231
       135                         -0.2247434              -6.1156
       136                         -0.2236946              -6.0870
       137                         -0.2218733              -6.0375
       ...                                ...                  ...
       248                          0.7060591              19.2128
      -------------------------------------------------------------
                  HL-Gap            0.0836023 Eh            2.2749 eV

     #   Z          covCN         q      C6AA      α(0)
     1   6 C        2.919    -0.038    28.945     8.823
     2   6 C        2.920    -0.028    28.709     8.787
     3   6 C        2.923    -0.046    29.144     8.853
     4   6 C        2.925     0.065    26.539     8.448
     5   7 N        2.753    -0.076    22.721     7.080
     6   6 C        2.923     0.066    26.532     8.447
     7   6 C        2.923    -0.048    29.203     8.862
     8   6 C        2.919    -0.030    28.738     8.791
     9   6 C        2.919    -0.039    28.980     8.828
    10   6 C        2.920    -0.030    28.741     8.791
    11   6 C        2.922    -0.048    29.197     8.861
    12   6 C        2.922     0.065    26.545     8.449
    13   6 C        2.927    -0.064    29.588     8.920
    14   6 C        2.975     0.010    27.799     8.649
    15   6 C        2.978     0.013    27.723     8.637
    16   6 C        2.924    -0.032    28.803     8.801
    17   6 C        2.925    -0.028    28.695     8.785
    18   6 C        2.975     0.001    27.991     8.678
    19   6 C        3.180     0.135    24.658     8.106
    20   7 N        1.886    -0.291    28.395     7.900
    21   6 C        3.192     0.067    26.027     8.320
    22   6 C        2.910    -0.042    29.041     8.837
    23   6 C        2.923    -0.039    28.979     8.828
    24   6 C        2.927    -0.037    28.922     8.819
    25   6 C        2.908    -0.051    29.266     8.871
    26   6 C        3.086     0.034    27.140     8.540
    27   7 N        2.825    -0.052    22.237     7.004
    28   6 C        2.913     0.067    26.499     8.441
    29   6 C        2.922    -0.041    29.021     8.834
    30   6 C        2.920    -0.028    28.690     8.784
    31   6 C        2.919    -0.032    28.786     8.798
    32   6 C        2.920    -0.026    28.657     8.779
    33   6 C        2.922    -0.039    28.972     8.827
    34   6 C        2.921    -0.032    28.808     8.802
    35   6 C        2.924    -0.034    28.841     8.807
    36   6 C        2.927    -0.063    29.576     8.919
    37   6 C        2.922     0.066    26.533     8.447
    38   7 N        2.753    -0.076    22.711     7.078
    39   6 C        2.923     0.065    26.538     8.448
    40   6 C        2.922    -0.048    29.194     8.861
    41   6 C        2.920    -0.029    28.734     8.790
    42   6 C        2.919    -0.038    28.957     8.824
    43   6 C        2.920    -0.029    28.723     8.789
    44   6 C        2.923    -0.048    29.185     8.859
    45   6 C        2.925     0.065    26.539     8.448
    46   6 C        2.923    -0.046    29.147     8.853
    47   6 C        2.920    -0.029    28.713     8.787
    48   6 C        2.919    -0.038    28.949     8.823
    49   6 C        2.920    -0.029    28.731     8.790
    50   6 C        2.922    -0.047    29.173     8.857
    51   6 C        2.927    -0.070    29.751     8.945
    52   6 C        2.922    -0.047    29.170     8.857
    53   6 C        2.920    -0.029    28.731     8.790
    54   1 H        0.926     0.030     2.579     2.511
    55   1 H        0.926     0.031     2.568     2.506
    56   1 H        0.926     0.031     2.578     2.511
    57   1 H        0.926     0.031     2.573     2.508
    58   1 H        0.926     0.031     2.577     2.510
    59   1 H        0.926     0.029     2.602     2.523
    60   1 H        0.926     0.030     2.586     2.515
    61   1 H        0.926     0.031     2.571     2.508
    62   1 H        0.926     0.034     2.533     2.489
    63   1 H        0.926     0.039     2.460     2.453
    64   1 H        0.926     0.053     2.285     2.364
    65   1 H        0.926     0.044     2.402     2.424
    66   1 H        0.926     0.031     2.571     2.507
    67   1 H        0.926     0.030     2.586     2.515
    68   1 H        0.926     0.026     2.648     2.545
    69   1 H        0.926     0.042     2.417     2.431
    70   1 H        0.926     0.038     2.470     2.458
    71   1 H        0.926     0.038     2.480     2.462
    72   1 H        0.926     0.039     2.467     2.456
    73   1 H        0.926     0.038     2.478     2.462
    74   1 H        0.926     0.028     2.613     2.528
    75   1 H        0.926     0.035     2.520     2.482
    76   1 H        0.926     0.036     2.497     2.471
    77   1 H        0.926     0.030     2.585     2.514
    78   1 H        0.926     0.031     2.573     2.508
    79   1 H        0.926     0.030     2.582     2.513
    80   1 H        0.926     0.031     2.566     2.505
    81   1 H        0.926     0.031     2.569     2.507
    82   1 H        0.926     0.031     2.578     2.511
    83   1 H        0.926     0.031     2.573     2.508
    84   1 H        0.926     0.030     2.583     2.513
    85   1 H        0.926     0.032     2.564     2.504
    86   1 H        0.926     0.032     2.559     2.501
    87   1 H        0.926     0.033     2.537     2.491
    88   1 H        0.926     0.032     2.560     2.502
    89   1 H        0.926     0.032     2.562     2.503

molecular dipole:
                 x           y           z       tot (Debye)
 q only:       -0.572      -0.897      -0.049
   full:       -0.421      -1.306      -0.027       3.489

 projected vibrational frequencies (cm⁻¹)
eigval :       -0.00    -0.00    -0.00     0.00     0.00     0.00
eigval :        9.04    10.26    12.12    14.43    22.55    25.34
eigval :       30.42    41.55    43.21    55.26    56.65    62.22
eigval :       65.14    67.69    70.30    74.45    82.50    86.13
eigval :       87.40    99.63   104.54   122.69   169.66   174.15
eigval :      196.78   210.32   220.49   224.46   229.84   233.55
eigval :      240.64   248.89   251.30   277.94   281.44   302.58
eigval :      313.24   322.47   341.01   353.08   369.89   373.24
eigval :      377.22   378.84   380.75   381.29   383.90   386.40
eigval :      393.08   395.73   407.10   419.61   465.95   474.48
eigval :      477.65   482.45   489.02   490.71   517.29   542.64
eigval :      547.25   561.21   566.38   578.43   582.21   586.36
eigval :      589.36   589.70   592.39   595.55   602.67   604.48
eigval :      618.79   625.77   627.99   657.59   660.36   661.64
eigval :      662.51   665.97   666.61   669.10   678.70   703.78
eigval :      711.08   717.81   743.09   755.56   757.11   758.66
eigval :      763.85   766.95   774.97   794.50   815.31   836.55
eigval :      866.76   868.38   870.01   870.95   874.59   875.38
eigval :      877.86   878.31   881.02   884.20   886.10   889.97
eigval :      892.07   892.93   894.85   898.36   903.72   907.87
eigval :      911.84   920.53   922.01   922.27   926.06   927.34
eigval :      927.51   928.53   929.01   929.10   929.36   929.55
eigval :      930.11   932.19   932.57   955.50   975.62   980.36
eigval :      998.43  1004.12  1005.61  1012.55  1031.00  1060.91
eigval :     1069.13  1080.47  1082.91  1083.57  1084.39  1084.58
eigval :     1116.20  1117.47  1120.44  1122.53  1123.93  1125.21
eigval :     1134.09  1135.87  1140.09  1170.47  1174.98  1178.43
eigval :     1180.73  1180.87  1181.01  1182.03  1189.72  1190.60
eigval :     1192.85  1196.91  1198.73  1201.76  1207.75  1209.63
eigval :     1244.87  1257.99  1265.59  1269.22  1272.58  1277.36
eigval :     1277.47  1279.03  1286.16  1291.84  1295.09  1316.67
eigval :     1317.71  1318.51  1320.97  1321.26  1323.33  1323.92
eigval :     1327.92  1328.03  1336.29  1363.04  1374.58  1379.85
eigval :     1398.90  1415.51  1431.43  1433.45  1436.54  1440.02
eigval :     1443.11  1448.94  1450.33  1470.88  1474.94  1476.52
eigval :     1477.02  1478.79  1485.79  1489.51  1537.24  1559.89
eigval :     1569.29  1570.52  1577.58  1578.86  1581.82  1582.10
eigval :     1583.20  1589.79  1595.25  1595.68  1596.48  1598.42
eigval :     1600.59  1601.60  1616.95  3074.34  3074.72  3074.86
eigval :     3075.87  3076.02  3076.51  3077.03  3077.40  3078.10
eigval :     3079.35  3080.17  3081.12  3082.33  3083.61  3085.74
eigval :     3086.01  3086.64  3087.38  3088.63  3089.22  3089.57
eigval :     3090.14  3091.02  3091.62  3091.75  3095.00  3095.64
eigval :     3096.59  3097.26  3097.61  3097.93  3098.98  3099.66
eigval :     3100.95  3105.56  3108.83

   temp. (K)  partition function   enthalpy   heat capacity  entropy
                                   cal/mol     cal/K/mol   cal/K/mol   J/K/mol
 298.15  VIB  0.104E+22            25320.636    157.727    160.528
         ROT  0.124E+09              888.752      2.981     40.018
         INT  0.129E+30            26209.388    160.708    200.545
         TR   0.172E+29             1481.254      4.968     45.415
         TOT                       27690.6424   165.6757   245.9604  1029.0982

       T/K    H(0)-H(T)+PV         H(T)/Eh          T*S/Eh         G(T)/Eh
   ------------------------------------------------------------------------
    298.15    0.441278E-01    0.737887E+00    0.116864E+00    0.621023E+00
   ------------------------------------------------------------------------

         :::::::::::::::::::::::::::::::::::::::::::::::::::::
         ::                  THERMODYNAMIC                  ::
         :::::::::::::::::::::::::::::::::::::::::::::::::::::
         :: total free energy        -134.394375669388 Eh   ::
         ::.................................................::
         :: total energy             -135.015398707272 Eh   ::
         :: zero point energy           0.693758902692 Eh   ::
         :: G(RRHO) w/o ZPVE           -0.072735864808 Eh   ::
         :: G(RRHO) contrib.            0.621023037884 Eh   ::
         :::::::::::::::::::::::::::::::::::::::::::::::::::::

           -------------------------------------------------
          | TOTAL ENERGY             -135.015398707272 Eh   |
          | TOTAL ENTHALPY           -134.277511957100 Eh   |
          | TOTAL FREE ENERGY        -134.394375669388 Eh   |
          | GRADIENT NORM               0.000038436346 Eh/α |
          | HOMO-LUMO GAP               2.274934695015 eV   |
           -------------------------------------------------

 * finished run on 2025/08/29 at 13:27:53.081
