   * xtb version 6.7.1 (edcfbbe) compiled by 'albert@albert-system' on 2024-07-22

   ID    Z sym.   atoms
    1    6 C      1-16, 18-30, 32-38, 40-43
    2    7 N      17, 31, 39
    3    1 H      44-70

          program call               : xtb data2507/toluene/3CzPhpPM/3CzPhpPM.xyz --gfn 2 --gbsa toluene --ohess vtight --parallel 40 --molden --ceasefiles --namespace data2507/toluene/3CzPhpPM/3CzPhpPM_toluene_S0_preOpt
      * Solvation model:               GBSA
        Solvent                        toluene
        Solvent mass                       9.2140E+01 g/mol
          :  Hamiltonian                  GFN2-xTB          :
 * total energy  :  -108.2501022 Eh     change       -0.2365852E-08 Eh
 * total energy  :  -108.2608600 Eh     change       -0.1075779E-01 Eh
 * total energy  :  -108.2634993 Eh     change       -0.2639330E-02 Eh
 * total energy  :  -108.2642236 Eh     change       -0.7242974E-03 Eh
 * total energy  :  -108.2646845 Eh     change       -0.4609044E-03 Eh
 * total energy  :  -108.2648578 Eh     change       -0.1733132E-03 Eh
 * total energy  :  -108.2649942 Eh     change       -0.1363921E-03 Eh
 * total energy  :  -108.2651029 Eh     change       -0.1086271E-03 Eh
 * total energy  :  -108.2652061 Eh     change       -0.1032053E-03 Eh
 * total energy  :  -108.2652946 Eh     change       -0.8856439E-04 Eh
 * total energy  :  -108.2655855 Eh     change       -0.4263854E-06 Eh
 * total energy  :  -108.2655858 Eh     change       -0.3291519E-06 Eh
 * total energy  :  -108.2655861 Eh     change       -0.3208803E-06 Eh
 * total energy  :  -108.2655864 Eh     change       -0.3115553E-06 Eh
 * total energy  :  -108.2655867 Eh     change       -0.2868014E-06 Eh
 * total energy  :  -108.2655869 Eh     change       -0.2180861E-06 Eh
 * total energy  :  -108.2655871 Eh     change       -0.1862986E-06 Eh
 * total energy  :  -108.2655873 Eh     change       -0.1675903E-06 Eh
 * total energy  :  -108.2655873 Eh     change       -0.1495792E-08 Eh
   *** GEOMETRY OPTIMIZATION CONVERGED AFTER 44 ITERATIONS ***

 final structure:
================
70
 xtb: 6.7.1 (edcfbbe)
C            9.48336458572419       -2.13257392271310        2.54089617765586
C            9.36961291451228       -0.78426730703895        2.24443358711049
C            8.20676483989206       -0.29114579660158        1.68173290821401
C            7.13350051023820       -1.13746828452776        1.41063099961783
C            5.89339443253496       -0.61222580019905        0.81693966059710
C            4.64941543786279       -1.03960692849662        1.30182946063544
C            3.45920212869884       -0.57739819816543        0.77817163140661
C            3.51684239981904        0.32731291228412       -0.27284727355995
C            4.76066238330977        0.78829240928631       -0.76134703589887
C            5.94455345851915        0.31595431721502       -0.21528540520350
C            4.46506573718520        1.74057380528240       -1.79663053008361
C            5.25569603388735        2.50551162918033       -2.64442843795982
C            4.63597211771340        3.32726506196038       -3.56520717714099
C            3.24664619410176        3.37833860347445       -3.65811472314903
C            2.43923963242074        2.62647401980540       -2.82540827908410
C            3.05583143364830        1.81988268404330       -1.87930977711531
N            2.49421707762774        0.95989561410897       -0.95349750828975
C            1.12505724437659        0.76670409721074       -0.73789465080369
C            0.59252327824340       -0.52109026490859       -0.70090049737452
C           -0.75703589797248       -0.70493058713655       -0.48728503058753
C           -1.60710890810212        0.38539475265764       -0.30188426949285
C           -3.03924653457995        0.15259296784111       -0.08095615342794
C           -3.84684542558996        1.04681405208585        0.62140369597538
C           -5.19422419820527        0.71569782605004        0.76356993271146
C           -6.14601090806335        1.57214291953055        1.48383183701311
C           -7.25621452026088        0.99342647118074        2.09718224719409
C           -8.16390340889777        1.77568084799388        2.78519904731062
C           -7.98078034158799        3.14740449845568        2.86248032012416
C           -6.88753940271379        3.73283966853219        2.24456232652545
C           -5.97309896516017        2.95269300937575        1.56085456664886
N           -5.67541097538690       -0.41849972977052        0.25722648260016
C           -4.83548952940490       -1.22003439397657       -0.38952823260759
C           -5.37844215196313       -2.46464342765122       -0.94380247494872
C           -4.54839842244033       -3.35114288158565       -1.62811992215395
C           -5.06297872253729       -4.52234302287863       -2.15065318321766
C           -6.40813391750842       -4.82095640762355       -1.99745686837932
C           -7.23980760724427       -3.94217570158157       -1.32047534352272
C           -6.73049161827733       -2.76966986156558       -0.79562613151884
N           -3.54255649868464       -0.97741159474381       -0.57640842878921
C           -1.06954232120241        1.67072651667389       -0.34725687762396
C            0.28042892204547        1.86099832070446       -0.56183316823752
C            7.25947870810622       -2.49173662638993        1.71364617290910
C            8.42453125101228       -2.98431723092386        2.27230267805042
H           10.39257391495385       -2.51760929764802        2.97955745335717
H           10.19061431262059       -0.11356922412975        2.45524465315416
H            8.11843761292674        0.76462680667215        1.46844661606392
H            4.62442563664265       -1.73467908438630        2.12833629008743
H            2.51471244852215       -0.90382653662200        1.18666565894721
H            6.89447413543434        0.65468554438207       -0.60071022681904
H            6.33247951053858        2.45193916669853       -2.58462640984065
H            5.23241803192920        3.93247438388850       -4.23208122777094
H            2.78979032035431        4.01657188841575       -4.40044898886448
H            1.36436188771199        2.65904965392695       -2.91988942740771
H            1.24021570286034       -1.37035890966950       -0.85789681063075
H           -1.17854987290343       -1.69773992118807       -0.46223000273513
H           -3.43895477358501        1.93488050140676        1.07346235169106
H           -7.38490199725962       -0.07598822621440        2.02856167579751
H           -9.01700775865636        1.31584423644081        3.26220767092993
H           -8.69048159777097        3.75998243426468        3.39873791798593
H           -6.74770765774572        4.80296013370441        2.29344608128629
H           -5.13690922848612        3.42316453809789        1.06478078890560
H           -3.50510477703715       -3.10152185960729       -1.74326915138428
H           -4.41503253432634       -5.20555467344447       -2.68032272752550
H           -6.80844865295441       -5.73683574923910       -2.40717321405210
H           -8.28860626715870       -4.17322453093167       -1.20321198621471
H           -7.36525500849050       -2.07295382580568       -0.27038746874268
H           -1.70958045134261        2.53226009023664       -0.23050731495968
H            0.69130457711948        2.85925408860714       -0.58062602972479
H            6.44337640299401       -3.16461829980736        1.49198857335344
H            8.50861763741497       -4.03819436450406        2.49721390298194

          :  Hamiltonian                  GFN2-xTB          :
         :: gradient norm              0.000030989468 Eh/a0 ::
         :: HOMO-LUMO gap              2.147048807355 eV    ::
         :: SCC energy              -110.306422267281 Eh    ::
         :: -> dispersion             -0.090899914818 Eh    ::
         :: -> Gsolv                  -0.048242211746 Eh    ::
         :: repulsion energy           2.040834984939 Eh    ::

    * Orbital Energies and Occupations

         #    Occupation            Energy/Eh            Energy/eV
      -------------------------------------------------------------
         1        2.0000           -0.6790172             -18.4770
       ...           ...                  ...                  ...
        89        2.0000           -0.4155178             -11.3068
        90        2.0000           -0.4124712             -11.2239
        91        2.0000           -0.4114267             -11.1955
        92        2.0000           -0.4096628             -11.1475
        93        2.0000           -0.4082732             -11.1097
        94        2.0000           -0.4075052             -11.0888
        95        2.0000           -0.4019931             -10.9388
        96        2.0000           -0.4009904             -10.9115
        97        2.0000           -0.3974609             -10.8155
        98        2.0000           -0.3933441             -10.7034
        99        2.0000           -0.3795366             -10.3277
       100        2.0000           -0.3650684              -9.9340
       101        2.0000           -0.3620424              -9.8517 (HOMO)
       102                         -0.2831398              -7.7046 (LUMO)
       103                         -0.2749220              -7.4810
       104                         -0.2480713              -6.7504
       105                         -0.2433372              -6.6215
       106                         -0.2386630              -6.4944
       107                         -0.2371048              -6.4520
       108                         -0.2301090              -6.2616
       109                         -0.2254089              -6.1337
       110                         -0.2201360              -5.9902
       111                         -0.2150998              -5.8532
       112                         -0.2060955              -5.6081
       ...                                ...                  ...
       199                          0.7442796              20.2529
      -------------------------------------------------------------
                  HL-Gap            0.0789026 Eh            2.1470 eV

     #   Z          covCN         q      C6AA      α(0)
     1   6 C        2.920    -0.034    28.835     8.806
     2   6 C        2.918    -0.031    28.782     8.798
     3   6 C        2.925    -0.036    28.890     8.815
     4   6 C        2.977     0.010    27.798     8.648
     5   6 C        2.976    -0.002    28.063     8.690
     6   6 C        2.929    -0.038    28.954     8.824
     7   6 C        2.908    -0.052    29.289     8.874
     8   6 C        3.074     0.045    26.911     8.506
     9   6 C        3.064    -0.018    28.385     8.736
    10   6 C        2.918    -0.039    28.959     8.825
    11   6 C        3.067    -0.017    28.366     8.733
    12   6 C        2.912    -0.034    28.847     8.807
    13   6 C        2.920    -0.042    29.034     8.836
    14   6 C        2.924    -0.034    28.856     8.809
    15   6 C        2.910    -0.051    29.275     8.872
    16   6 C        3.073     0.047    26.880     8.501
    17   7 N        2.801    -0.041    22.036     6.972
    18   6 C        2.912     0.068    26.480     8.438
    19   6 C        2.920    -0.041    29.024     8.835
    20   6 C        2.925    -0.023    28.591     8.769
    21   6 C        2.979    -0.003    28.091     8.694
    22   6 C        2.966     0.112    25.522     8.286
    23   6 C        2.912    -0.072    29.797     8.951
    24   6 C        2.966     0.113    25.511     8.285
    25   6 C        2.980    -0.000    28.026     8.684
    26   6 C        2.925    -0.024    28.612     8.772
    27   6 C        2.918    -0.027    28.688     8.783
    28   6 C        2.920    -0.026    28.650     8.778
    29   6 C        2.918    -0.029    28.716     8.788
    30   6 C        2.923    -0.032    28.798     8.800
    31   7 N        1.849    -0.293    28.446     7.905
    32   6 C        2.942     0.190    23.959     8.028
    33   6 C        2.984    -0.004    28.123     8.699
    34   6 C        2.924    -0.029    28.719     8.788
    35   6 C        2.918    -0.029    28.721     8.788
    36   6 C        2.920    -0.026    28.645     8.777
    37   6 C        2.918    -0.029    28.720     8.788
    38   6 C        2.924    -0.029    28.715     8.788
    39   7 N        1.849    -0.293    28.444     7.904
    40   6 C        2.922    -0.031    28.769     8.796
    41   6 C        2.920    -0.043    29.057     8.840
    42   6 C        2.925    -0.036    28.893     8.815
    43   6 C        2.918    -0.031    28.782     8.798
    44   1 H        0.926     0.029     2.604     2.523
    45   1 H        0.926     0.029     2.598     2.520
    46   1 H        0.926     0.031     2.579     2.511
    47   1 H        0.926     0.034     2.533     2.489
    48   1 H        0.926     0.032     2.561     2.503
    49   1 H        0.926     0.034     2.529     2.487
    50   1 H        0.926     0.032     2.555     2.500
    51   1 H        0.926     0.030     2.593     2.518
    52   1 H        0.926     0.031     2.568     2.506
    53   1 H        0.926     0.031     2.579     2.511
    54   1 H        0.926     0.050     2.316     2.380
    55   1 H        0.926     0.055     2.257     2.349
    56   1 H        0.926     0.038     2.477     2.461
    57   1 H        0.926     0.047     2.356     2.400
    58   1 H        0.926     0.041     2.433     2.439
    59   1 H        0.926     0.041     2.429     2.437
    60   1 H        0.926     0.040     2.450     2.448
    61   1 H        0.926     0.035     2.522     2.484
    62   1 H        0.926     0.050     2.318     2.381
    63   1 H        0.926     0.041     2.437     2.441
    64   1 H        0.926     0.042     2.424     2.435
    65   1 H        0.926     0.041     2.439     2.442
    66   1 H        0.926     0.050     2.317     2.380
    67   1 H        0.926     0.042     2.417     2.431
    68   1 H        0.926     0.049     2.332     2.388
    69   1 H        0.926     0.031     2.575     2.509
    70   1 H        0.926     0.029     2.597     2.520

molecular dipole:
                 x           y           z       tot (Debye)
 q only:       -0.441       0.183       0.206
   full:       -0.353       0.534       0.353       1.858

 projected vibrational frequencies (cm⁻¹)
eigval :       -0.00    -0.00    -0.00     0.00     0.00     0.00
eigval :        9.84    13.76    20.25    27.88    36.94    42.52
eigval :       45.85    51.73    53.78    64.84    73.06    77.43
eigval :       95.99   101.77   114.05   126.38   146.88   150.92
eigval :      177.88   195.10   203.57   217.82   232.81   249.91
eigval :      261.72   269.22   279.22   305.21   325.12   353.52
eigval :      364.29   366.28   370.27   371.90   377.99   394.10
eigval :      398.28   414.49   427.22   430.34   436.64   451.57
eigval :      457.91   490.55   497.03   535.22   542.76   548.92
eigval :      578.30   584.51   586.80   587.32   597.47   603.14
eigval :      604.77   611.12   617.67   619.96   627.60   646.14
eigval :      663.58   668.92   673.57   682.59   686.18   699.12
eigval :      707.78   728.55   737.35   759.99   764.26   774.46
eigval :      780.42   815.04   819.63   830.53   835.59   838.08
eigval :      845.04   867.50   874.23   874.94   876.85   877.77
eigval :      884.10   902.05   902.78   904.19   904.55   910.58
eigval :      917.52   920.34   925.98   928.95   929.55   931.79
eigval :      931.95   933.25   933.49   934.08   936.29   970.83
eigval :      974.79   988.04  1013.79  1020.86  1025.55  1069.91
eigval :     1072.39  1075.16  1077.91  1086.31  1086.72  1102.66
eigval :     1110.46  1120.35  1121.05  1123.36  1134.22  1155.38
eigval :     1169.53  1176.68  1177.87  1179.94  1180.50  1182.98
eigval :     1193.53  1196.24  1199.96  1204.14  1218.85  1223.00
eigval :     1244.18  1247.21  1260.03  1263.29  1269.53  1276.51
eigval :     1281.24  1287.65  1311.64  1317.77  1319.68  1321.13
eigval :     1325.85  1347.13  1354.52  1358.66  1361.17  1375.17
eigval :     1396.04  1408.15  1417.48  1428.79  1429.15  1431.58
eigval :     1436.54  1462.05  1467.70  1475.31  1480.56  1491.57
eigval :     1495.06  1511.08  1528.29  1559.27  1567.57  1579.95
eigval :     1581.31  1583.36  1583.99  1591.18  1593.74  1593.91
eigval :     1594.95  1600.13  1612.62  3064.12  3065.79  3072.16
eigval :     3072.58  3072.61  3073.75  3075.79  3077.19  3077.21
eigval :     3078.02  3078.65  3082.44  3084.03  3085.78  3086.14
eigval :     3087.41  3087.60  3090.49  3090.65  3091.64  3093.47
eigval :     3096.29  3099.35  3102.09  3103.56  3105.40  3108.87

   temp. (K)  partition function   enthalpy   heat capacity  entropy
                                   cal/mol     cal/K/mol   cal/K/mol   J/K/mol
 298.15  VIB  0.245E+16            19515.536    123.740    121.964
         ROT  0.952E+08              888.752      2.981     39.490
         INT  0.234E+24            20404.288    126.721    161.454
         TR   0.125E+29             1481.254      4.968     44.777
         TOT                       21885.5422   131.6887   206.2311   862.8711

       T/K    H(0)-H(T)+PV         H(T)/Eh          T*S/Eh         G(T)/Eh
   ------------------------------------------------------------------------
    298.15    0.348768E-01    0.572840E+00    0.979871E-01    0.474853E+00
   ------------------------------------------------------------------------

         :::::::::::::::::::::::::::::::::::::::::::::::::::::
         ::                  THERMODYNAMIC                  ::
         :::::::::::::::::::::::::::::::::::::::::::::::::::::
         :: total free energy        -107.790734144761 Eh   ::
         ::.................................................::
         :: total energy             -108.265587282499 Eh   ::
         :: zero point energy           0.537963376419 Eh   ::
         :: G(RRHO) w/o ZPVE           -0.063110238681 Eh   ::
         :: G(RRHO) contrib.            0.474853137738 Eh   ::
         :::::::::::::::::::::::::::::::::::::::::::::::::::::

           -------------------------------------------------
          | TOTAL ENERGY             -108.265587282499 Eh   |
          | TOTAL ENTHALPY           -107.692747074557 Eh   |
          | TOTAL FREE ENERGY        -107.790734144761 Eh   |
          | GRADIENT NORM               0.000030987780 Eh/α |
          | HOMO-LUMO GAP               2.147048866444 eV   |
           -------------------------------------------------

 * finished run on 2025/09/09 at 08:24:13.357
