   * xtb version 6.7.1 (edcfbbe) compiled by 'albert@albert-system' on 2024-07-22

   ID    Z sym.   atoms
    1    6 C      1-16, 18-30, 32-38, 40-43
    2    7 N      17, 31, 39
    3    1 H      44-70

          program call               : xtb data2507/toluene/3CzPhpPM/3CzPhpPM_toluene_T1_crest.xyz --gfn 2 --uhf 2 --gbsa toluene --ohess vtight --parallel 40 --molden --ceasefiles --namespace data2507/toluene/3CzPhpPM/3CzPhpPM_toluene_T1_finalOpt
      * Solvation model:               GBSA
        Solvent                        toluene
        Solvent mass                       9.2140E+01 g/mol
          :  Hamiltonian                  GFN2-xTB          :
 * total energy  :  -108.1843280 Eh     change       -0.6590398E-08 Eh
 * total energy  :  -108.1843925 Eh     change       -0.6451054E-04 Eh
 * total energy  :  -108.1844195 Eh     change       -0.2698143E-04 Eh
 * total energy  :  -108.1844235 Eh     change       -0.3996721E-05 Eh
 * total energy  :  -108.1844252 Eh     change       -0.1680120E-05 Eh
 * total energy  :  -108.1844267 Eh     change       -0.1529609E-05 Eh
 * total energy  :  -108.1844286 Eh     change       -0.1890932E-05 Eh
 * total energy  :  -108.1844303 Eh     change       -0.1715727E-05 Eh
 * total energy  :  -108.1844321 Eh     change       -0.1811738E-05 Eh
 * total energy  :  -108.1844340 Eh     change       -0.1913205E-05 Eh
 * total energy  :  -108.1844402 Eh     change       -0.1379096E-05 Eh
 * total energy  :  -108.1844415 Eh     change       -0.1355534E-05 Eh
 * total energy  :  -108.1844427 Eh     change       -0.1133028E-05 Eh
 * total energy  :  -108.1844437 Eh     change       -0.9920028E-06 Eh
 * total energy  :  -108.1844446 Eh     change       -0.9936849E-06 Eh
 * total energy  :  -108.1844457 Eh     change       -0.1019702E-05 Eh
 * total energy  :  -108.1844466 Eh     change       -0.9558341E-06 Eh
 * total energy  :  -108.1844474 Eh     change       -0.7356965E-06 Eh
 * total energy  :  -108.1844474 Eh     change       -0.3244526E-07 Eh
   *** GEOMETRY OPTIMIZATION CONVERGED AFTER 22 ITERATIONS ***

 final structure:
================
70
 xtb: 6.7.1 (edcfbbe)
C            9.48530978345308       -2.88354410536362        1.76596109074034
C            8.39905102485719       -3.59457644946172        1.28122764159234
C            7.24014222065041       -2.93411186390073        0.91928843391814
C            7.14844037035873       -1.54595812033757        1.02765842973356
C            5.92081167477666       -0.84179846708053        0.63852585935319
C            4.66501896441082       -1.38849567723096        0.94860800786602
C            3.48699609620689       -0.76263358908464        0.60096476169419
C            3.56556150742439        0.43972191723793       -0.09546177372687
C            4.82373513675367        1.01956530037069       -0.39826323223111
C            5.99286393120734        0.37997890162340       -0.03134680226191
C            4.54448254803137        2.26107954635324       -1.07242662663971
C            5.34377607474136        3.25383412328547       -1.61707460172916
C            4.73182885640288        4.33363514867365       -2.23140192976864
C            3.34457362959314        4.41940652421624       -2.31744819021183
C            2.52684644900303        3.44127522020792       -1.78022430449021
C            3.13433374429209        2.36903902579490       -1.14009178354987
N            2.56085158571907        1.26239645128116       -0.54476853292770
C            1.18835145803806        1.01916071335241       -0.42173275611340
C            0.64394676306749       -0.21269049602443       -0.81004563789845
C           -0.69904311871529       -0.44515998787028       -0.68500360931473
C           -1.57787909892171        0.53497617923617       -0.16426970947421
C           -2.96999918891179        0.23520217091508       -0.05359248247306
C           -3.93103539888862        1.10139507537949        0.49867059879248
C           -5.24796204912790        0.68258367875127        0.56313094459790
C           -6.32617169857753        1.47980431967156        1.11701905299541
C           -7.56238143609810        0.86803359970967        1.37599581870308
C           -8.61184210155896        1.58495028171959        1.90833706865430
C           -8.46430936700010        2.93446322338314        2.19584212073196
C           -7.25101325599160        3.55618742353184        1.93765436509582
C           -6.19556535827008        2.84484117816502        1.40549115582878
N           -5.57523866642027       -0.55946360334251        0.09982276530071
C           -4.64436782261939       -1.35682404027882       -0.39497380834175
C           -5.03700763664821       -2.68956738272207       -0.85839108788299
C           -4.07960853442169       -3.58463617733926       -1.33060098996999
C           -4.45517156723908       -4.84300971450163       -1.76025991629949
C           -5.78863810448484       -5.22114345237758       -1.72435266996477
C           -6.74723438284704       -4.33485047274630       -1.25804801108571
C           -6.37522584011987       -3.07559318141770       -0.82752070926598
N           -3.38993646844189       -0.99149237087278       -0.48994914219847
C           -1.00930543429747        1.76998674910776        0.21941871069348
C            0.33616107964474        2.00411868141281        0.09223261573262
C            8.25070567575092       -0.84117538189951        1.51288559630099
C            9.40565547556634       -1.50479574754689        1.88122474684471
H           10.38932110178585       -3.40108747797543        2.05183263025388
H            8.45696960900210       -4.66922715523318        1.18392957648951
H            6.40542368536868       -3.49411569808903        0.52366562137419
H            4.62277432995161       -2.31408957460525        1.50264149809011
H            2.53301443687590       -1.18603153536159        0.87506671801381
H            6.95072877653283        0.81040796494880       -0.27976110045781
H            6.41959249741433        3.18222158764974       -1.56790691959255
H            5.33703622792660        5.11797722001531       -2.66087465734534
H            2.89660849321759        5.26480047646173       -2.81821924632593
H            1.45313353326086        3.50470411326552       -1.86721662302017
H            1.29028716292276       -0.96490431362627       -1.23838043309722
H           -1.12474899049569       -1.38693664778262       -0.99500316862201
H           -3.64007676107382        2.06231245629325        0.88683823715188
H           -7.66892775290914       -0.18346584566385        1.15576307663125
H           -9.55370759731400        1.09142287535524        2.10278369659671
H           -9.28604530309862        3.49741667628148        2.61305964549157
H           -7.13028226985281        4.60899274211711        2.15136476101747
H           -5.26924500762668        3.35948669528363        1.19905324907710
H           -3.04548861371296       -3.27604483226680       -1.35155133924941
H           -3.70781225250207       -5.53265993822742       -2.12464977011481
H           -6.08067274439686       -6.20563580338138       -2.05939523395633
H           -7.78675075697201       -4.62745083390664       -1.23122014469843
H           -7.10921311934637       -2.37193681563393       -0.46477169136225
H           -1.63212047665105        2.54975657543823        0.62883841992042
H            0.75415293446677        2.94603991192472        0.41672199210176
H            8.19021850878123        0.23150774349407        1.62551930318651
H           10.24727074889452       -0.94532762825589        2.26375519009419

          :  Hamiltonian                  GFN2-xTB          :
         :: gradient norm              0.000081054929 Eh/a0 ::
         :: HOMO-LUMO gap              0.367702234408 eV    ::
         :: SCC energy              -110.216899345899 Eh    ::
         :: -> dispersion             -0.091011786831 Eh    ::
         :: -> Gsolv                  -0.049251554419 Eh    ::
         :: repulsion energy           2.032451952654 Eh    ::

    * Orbital Energies and Occupations

         #    Occupation            Energy/Eh            Energy/eV
      -------------------------------------------------------------
         1        2.0000           -0.6884086             -18.7326
       ...           ...                  ...                  ...
        90        2.0000           -0.4096640             -11.1475
        91        2.0000           -0.4093607             -11.1393
        92        2.0000           -0.4072559             -11.0820
        93        2.0000           -0.4058171             -11.0428
        94        2.0000           -0.4022700             -10.9463
        95        2.0000           -0.4016098             -10.9284
        96        2.0000           -0.3986789             -10.8486
        97        2.0000           -0.3960686             -10.7776
        98        2.0000           -0.3900082             -10.6127
        99        2.0000           -0.3875237             -10.5451
       100        1.7200           -0.3679827             -10.0133
       101        1.2800           -0.3661882              -9.9645
       102        0.9992           -0.2820109              -7.6739 (HOMO)
       103        0.0008           -0.2684981              -7.3062 (LUMO)
       104                         -0.2549193              -6.9367
       105                         -0.2493384              -6.7848
       106                         -0.2398584              -6.5269
       107                         -0.2266482              -6.1674
       108                         -0.2250216              -6.1231
       109                         -0.2235207              -6.0823
       110                         -0.2217876              -6.0351
       111                         -0.2184297              -5.9438
       112                         -0.2026363              -5.5140
       113                         -0.1919562              -5.2234
       ...                                ...                  ...
       199                          0.7361460              20.0316
      -------------------------------------------------------------
                  HL-Gap            0.0135128 Eh            0.3677 eV

     #   Z          covCN         q      C6AA      α(0)
     1   6 C        2.919    -0.030    28.737     8.791
     2   6 C        2.918    -0.029    28.731     8.790
     3   6 C        2.924    -0.033    28.830     8.805
     4   6 C        2.976     0.012    27.736     8.639
     5   6 C        2.976     0.009    27.807     8.650
     6   6 C        2.927    -0.036    28.900     8.816
     7   6 C        2.907    -0.042    29.053     8.838
     8   6 C        3.077     0.047    26.877     8.500
     9   6 C        3.062    -0.012    28.254     8.716
    10   6 C        2.916    -0.034    28.837     8.806
    11   6 C        3.064    -0.013    28.264     8.718
    12   6 C        2.912    -0.029    28.731     8.789
    13   6 C        2.920    -0.034    28.851     8.808
    14   6 C        2.923    -0.031    28.785     8.798
    15   6 C        2.909    -0.042    29.040     8.836
    16   6 C        3.077     0.046    26.881     8.500
    17   7 N        2.800    -0.010    21.440     6.877
    18   6 C        2.912     0.040    27.099     8.536
    19   6 C        2.915    -0.042    29.054     8.839
    20   6 C        2.924    -0.037    28.929     8.820
    21   6 C        2.972    -0.006    28.172     8.706
    22   6 C        2.934     0.069    26.451     8.435
    23   6 C        2.912    -0.057    29.422     8.895
    24   6 C        2.934     0.081    26.192     8.393
    25   6 C        2.975    -0.002    28.083     8.693
    26   6 C        2.926    -0.033    28.831     8.806
    27   6 C        2.916    -0.032    28.798     8.800
    28   6 C        2.919    -0.038    28.934     8.821
    29   6 C        2.917    -0.032    28.806     8.801
    30   6 C        2.921    -0.041    29.017     8.834
    31   7 N        1.853    -0.268    27.808     7.816
    32   6 C        2.885     0.191    23.929     8.020
    33   6 C        2.983    -0.002    28.078     8.692
    34   6 C        2.924    -0.028    28.689     8.784
    35   6 C        2.918    -0.029    28.713     8.787
    36   6 C        2.920    -0.026    28.658     8.779
    37   6 C        2.918    -0.028    28.708     8.786
    38   6 C        2.924    -0.027    28.682     8.783
    39   7 N        1.853    -0.254    27.469     7.768
    40   6 C        2.919    -0.044    29.105     8.847
    41   6 C        2.916    -0.042    29.055     8.839
    42   6 C        2.924    -0.033    28.830     8.805
    43   6 C        2.918    -0.029    28.733     8.790
    44   1 H        0.926     0.033     2.539     2.492
    45   1 H        0.926     0.034     2.534     2.489
    46   1 H        0.926     0.036     2.499     2.472
    47   1 H        0.926     0.043     2.404     2.425
    48   1 H        0.926     0.043     2.415     2.430
    49   1 H        0.926     0.046     2.374     2.410
    50   1 H        0.926     0.042     2.418     2.432
    51   1 H        0.926     0.040     2.455     2.450
    52   1 H        0.926     0.039     2.456     2.451
    53   1 H        0.926     0.040     2.444     2.445
    54   1 H        0.926     0.040     2.452     2.449
    55   1 H        0.926     0.042     2.421     2.433
    56   1 H        0.926     0.031     2.566     2.505
    57   1 H        0.926     0.036     2.499     2.472
    58   1 H        0.926     0.030     2.585     2.514
    59   1 H        0.926     0.029     2.602     2.522
    60   1 H        0.926     0.029     2.605     2.524
    61   1 H        0.926     0.025     2.665     2.553
    62   1 H        0.926     0.046     2.376     2.410
    63   1 H        0.926     0.042     2.418     2.432
    64   1 H        0.926     0.043     2.410     2.428
    65   1 H        0.926     0.041     2.429     2.437
    66   1 H        0.926     0.046     2.375     2.410
    67   1 H        0.926     0.029     2.602     2.522
    68   1 H        0.926     0.038     2.481     2.463
    69   1 H        0.926     0.036     2.496     2.471
    70   1 H        0.926     0.034     2.531     2.488

molecular dipole:
                 x           y           z       tot (Debye)
 q only:        2.842      -0.261      -0.297
   full:        2.807       0.034      -0.165       7.149

 projected vibrational frequencies (cm⁻¹)
eigval :       -0.00    -0.00    -0.00    -0.00     0.00     0.00
eigval :        9.62    11.55    15.81    23.31    25.76    38.27
eigval :       46.11    51.34    56.01    62.33    78.16    81.27
eigval :       92.38    97.96   116.75   126.01   150.60   159.63
eigval :      163.86   194.78   200.44   207.85   225.87   246.06
eigval :      258.48   268.59   279.60   301.30   317.79   354.96
eigval :      365.27   365.97   368.97   371.54   376.99   395.53
eigval :      400.20   403.89   406.74   424.74   426.44   443.83
eigval :      453.07   466.00   490.79   537.76   539.82   540.93
eigval :      546.04   577.64   581.56   583.07   584.53   586.70
eigval :      589.84   593.60   599.97   604.44   613.65   638.33
eigval :      640.37   653.01   661.76   664.69   667.62   681.77
eigval :      685.11   709.07   724.29   745.84   757.23   759.97
eigval :      772.96   796.61   808.15   811.82   821.41   826.26
eigval :      834.40   841.84   854.03   867.54   869.34   871.21
eigval :      875.69   878.84   898.37   899.97   902.15   903.60
eigval :      907.82   914.92   917.35   920.37   920.72   921.47
eigval :      923.71   924.32   926.78   929.21   932.36   935.78
eigval :      972.13   977.95   983.37   997.29  1018.02  1050.29
eigval :     1065.63  1068.11  1070.84  1073.67  1079.11  1084.04
eigval :     1091.22  1110.08  1117.04  1120.74  1123.20  1136.90
eigval :     1145.26  1166.06  1173.45  1176.43  1178.89  1179.82
eigval :     1180.53  1196.56  1199.83  1201.00  1207.55  1218.37
eigval :     1235.71  1250.52  1253.89  1266.06  1270.23  1277.45
eigval :     1279.02  1285.29  1292.76  1296.02  1317.91  1324.91
eigval :     1325.70  1328.12  1337.74  1346.44  1354.28  1357.29
eigval :     1382.52  1393.35  1407.21  1423.06  1424.94  1426.91
eigval :     1429.40  1434.37  1448.83  1452.04  1463.48  1470.33
eigval :     1472.20  1474.36  1484.70  1485.94  1547.99  1551.82
eigval :     1559.02  1565.09  1573.02  1575.47  1581.66  1586.90
eigval :     1588.81  1592.88  1599.65  3064.70  3067.37  3069.28
eigval :     3070.70  3073.39  3076.46  3077.31  3078.27  3079.44
eigval :     3079.58  3080.63  3082.52  3085.60  3085.86  3086.59
eigval :     3087.15  3090.30  3092.19  3092.86  3093.42  3093.68
eigval :     3094.41  3095.97  3097.88  3098.05  3099.29  3114.51

   temp. (K)  partition function   enthalpy   heat capacity  entropy
                                   cal/mol     cal/K/mol   cal/K/mol   J/K/mol
 298.15  VIB  0.842E+16            19816.291    125.397    123.967
         ROT  0.946E+08              888.752      2.981     39.477
         INT  0.796E+24            20705.044    128.378    163.444
         TR   0.125E+29             1481.254      4.968     44.777
         TOT                       22186.2976   133.3459   208.2213   871.1978

       T/K    H(0)-H(T)+PV         H(T)/Eh          T*S/Eh         G(T)/Eh
   ------------------------------------------------------------------------
    298.15    0.353561E-01    0.569282E+00    0.989326E-01    0.470349E+00
   ------------------------------------------------------------------------

         :::::::::::::::::::::::::::::::::::::::::::::::::::::
         ::                  THERMODYNAMIC                  ::
         :::::::::::::::::::::::::::::::::::::::::::::::::::::
         :: total free energy        -107.714098533520 Eh   ::
         ::.................................................::
         :: total energy             -108.184447394051 Eh   ::
         :: zero point energy           0.533925390377 Eh   ::
         :: G(RRHO) w/o ZPVE           -0.063576529846 Eh   ::
         :: G(RRHO) contrib.            0.470348860531 Eh   ::
         :::::::::::::::::::::::::::::::::::::::::::::::::::::

           -------------------------------------------------
          | TOTAL ENERGY             -108.184447394051 Eh   |
          | TOTAL ENTHALPY           -107.615165887923 Eh   |
          | TOTAL FREE ENERGY        -107.714098533520 Eh   |
          | GRADIENT NORM               0.000081825000 Eh/α |
          | HOMO-LUMO GAP               0.367701228195 eV   |
           -------------------------------------------------

 * finished run on 2025/09/09 at 08:32:31.253
