   * xtb version 6.7.1 (edcfbbe) compiled by 'albert@albert-system' on 2024-07-22

   ID    Z sym.   atoms
    1    6 C      1-16, 18-30, 32-38, 40-43
    2    7 N      17, 31, 39
    3    1 H      44-70

          program call               : xtb data2507/toluene/3CzPhpPM/3CzPhpPM_toluene_S0_finalOpt.xtbopt.xyz --gfn 2 --uhf 2 --gbsa toluene --ohess vtight --parallel 40 --molden --ceasefiles --namespace data2507/toluene/3CzPhpPM/3CzPhpPM_toluene_T1_preOpt
      * Solvation model:               GBSA
        Solvent                        toluene
        Solvent mass                       9.2140E+01 g/mol
          :  Hamiltonian                  GFN2-xTB          :
 * total energy  :  -108.1778527 Eh     change       -0.1624232E-07 Eh
 * total energy  :  -108.1813611 Eh     change       -0.3508401E-02 Eh
 * total energy  :  -108.1826769 Eh     change       -0.1315786E-02 Eh
 * total energy  :  -108.1827974 Eh     change       -0.1205301E-03 Eh
 * total energy  :  -108.1829989 Eh     change       -0.2014202E-03 Eh
 * total energy  :  -108.1830900 Eh     change       -0.9111956E-04 Eh
 * total energy  :  -108.1831986 Eh     change       -0.1086724E-03 Eh
 * total energy  :  -108.1832706 Eh     change       -0.7191745E-04 Eh
 * total energy  :  -108.1833207 Eh     change       -0.5016630E-04 Eh
 * total energy  :  -108.1833798 Eh     change       -0.5909799E-04 Eh
 * total energy  :  -108.1842149 Eh     change       -0.6420495E-06 Eh
 * total energy  :  -108.1842155 Eh     change       -0.5950561E-06 Eh
 * total energy  :  -108.1842160 Eh     change       -0.5510071E-06 Eh
 * total energy  :  -108.1842166 Eh     change       -0.5134096E-06 Eh
 * total energy  :  -108.1842170 Eh     change       -0.4859074E-06 Eh
 * total energy  :  -108.1842175 Eh     change       -0.4755119E-06 Eh
 * total energy  :  -108.1842180 Eh     change       -0.4815697E-06 Eh
 * total energy  :  -108.1842185 Eh     change       -0.5120396E-06 Eh
 * total energy  :  -108.1842185 Eh     change       -0.3570037E-08 Eh
   *** GEOMETRY OPTIMIZATION CONVERGED AFTER 94 ITERATIONS ***

 final structure:
================
70
 xtb: 6.7.1 (edcfbbe)
C            9.55664039916357       -2.98081205433202        1.19237118557646
C            9.42918685128937       -2.17663933246487        0.07097590445018
C            8.25790405604129       -1.47887876801194       -0.15503217825220
C            7.18695915466155       -1.57634143597719        0.73459484528195
C            5.94363660511213       -0.83725244534789        0.48549321408446
C            4.70006650650073       -1.43034208386064        0.75646217900195
C            3.50889992419059       -0.78007080621040        0.51391482733202
C            3.56022302214089        0.50426291544894       -0.01991694034576
C            4.80676739402297        1.13559602739174       -0.26258300057510
C            5.98926984811556        0.46303296646062       -0.01884193468249
C            4.50296729212885        2.45586545587703       -0.75037343053273
C            5.28349810269047        3.52460962167302       -1.16197376012777
C            4.65092745326238        4.67017311577930       -1.61501438577238
C            3.26190826926928        4.74596914320821       -1.67762830826783
C            2.46288557969722        3.69173048196541       -1.27231557053637
C            3.09079388661782        2.55201540716129       -0.78698181616712
N            2.53883914998136        1.36700329526721       -0.33914022681541
C            1.17160985212789        1.08715560047446       -0.24585133783657
C            0.65059933481775       -0.10439242531543       -0.76952769224692
C           -0.68786092318740       -0.37471103868563       -0.67547814112333
C           -1.58704999703133        0.53251415351187       -0.06576453189208
C           -2.97582059022624        0.20358587387274       -0.00345888975762
C           -3.98630255560023        1.08416817118556        0.42313266748782
C           -5.29611219609587        0.63932554520226        0.43201081241719
C           -6.42621822826337        1.45829462862595        0.82871242499422
C           -6.35188261188766        2.85314230635857        0.93888528041464
C           -7.45617763177835        3.58880113384944        1.31659183206845
C           -8.66221126807867        2.96144179703085        1.59438309549591
C           -8.75297081448333        1.58111224124862        1.48356493868869
C           -7.65495637789392        0.83959176206686        1.10460189521594
N           -5.56622813597667       -0.64665012421531        0.06092866459077
C           -4.59085062556431       -1.45117976163918       -0.32477784369832
C           -4.92250789566070       -2.82690043836396       -0.70165708038505
C           -3.91219810946484       -3.74303525538252       -0.98611783094988
C           -4.22858721399334       -5.04233168624706       -1.33356948181207
C           -5.55487851307158       -5.44108065004368       -1.40019008481175
C           -6.56543980996781       -4.53459306338080       -1.11911252354801
C           -6.25290026009501       -3.23421494928323       -0.77117967344986
N           -3.34266480665381       -1.05782602122655       -0.38385878695294
C           -1.04241830544320        1.72566925163884        0.45881550771684
C            0.30019807803447        1.99256933059617        0.37268269157673
C            7.32685588369322       -2.39183765187528        1.85810859888404
C            8.50200013079546       -3.08304091083866        2.08551515119834
H           10.47313854246744       -3.52429256692147        1.36967909369479
H           10.24573579096113       -2.09676148756317       -0.63224567113274
H            8.15934052994616       -0.87098255000266       -1.04261946865357
H            4.67645953821572       -2.43603077926662        1.14807717030108
H            2.56567473949327       -1.25299295763975        0.73960275542699
H            6.93773429156284        0.94810213549151       -0.19124830701503
H            6.36060378857572        3.46212271409034       -1.13278240008768
H            5.24123081774775        5.51521732390194       -1.93646387510191
H            2.79760479777913        5.64480117577100       -2.05529174937461
H            1.38787574767690        3.75031339441742       -1.34421424496517
H            1.31069655582332       -0.79248242774578       -1.27708603800587
H           -1.09452275876071       -1.28390167475206       -1.09061947178952
H           -3.74181637417813        2.08448583246793        0.73738749286869
H           -5.43172161360701        3.36890544087317        0.70837094309378
H           -7.38000866396251        4.66452687206333        1.39155090026135
H           -9.52278348384980        3.54335329171201        1.88936966564376
H           -9.68893357851863        1.08317321380725        1.69458623740553
H           -7.71755449881158       -0.23500289026496        1.02083127052289
H           -2.88449698482263       -3.41846496855721       -0.92453845591045
H           -3.44039419986142       -5.74819365894991       -1.55152743018542
H           -5.80064536285905       -6.45747485309712       -1.67095502170825
H           -7.59912193705843       -4.84388025066111       -1.17181304612798
H           -7.02770612049309       -2.51474883067323       -0.55273259097572
H           -1.68042045517468        2.43564979821627        0.96159464564318
H            0.70124420058084        2.89363270517089        0.81351640023622
H            6.51825706946714       -2.46227664139000        2.57080089445524
H            8.59735085175950       -3.70425688180852        2.96459360019280

          :  Hamiltonian                  GFN2-xTB          :
         :: gradient norm              0.000049501978 Eh/a0 ::
         :: HOMO-LUMO gap              0.361394457472 eV    ::
         :: SCC energy              -110.216480760988 Eh    ::
         :: -> dispersion             -0.090989490076 Eh    ::
         :: -> Gsolv                  -0.049276211226 Eh    ::
         :: repulsion energy           2.032262240428 Eh    ::

    * Orbital Energies and Occupations

         #    Occupation            Energy/Eh            Energy/eV
      -------------------------------------------------------------
         1        2.0000           -0.6884059             -18.7325
       ...           ...                  ...                  ...
        90        2.0000           -0.4093932             -11.1402
        91        2.0000           -0.4092350             -11.1359
        92        2.0000           -0.4072065             -11.0807
        93        2.0000           -0.4058831             -11.0446
        94        2.0000           -0.4023023             -10.9472
        95        2.0000           -0.4016648             -10.9299
        96        2.0000           -0.3988569             -10.8534
        97        2.0000           -0.3960587             -10.7773
        98        2.0000           -0.3901479             -10.6165
        99        2.0000           -0.3874030             -10.5418
       100        1.6769           -0.3677250             -10.0063
       101        1.3231           -0.3663199              -9.9681
       102        0.9991           -0.2815261              -7.6607 (HOMO)
       103        0.0009           -0.2682452              -7.2993 (LUMO)
       104                         -0.2549195              -6.9367
       105                         -0.2494962              -6.7891
       106                         -0.2395195              -6.5177
       107                         -0.2265322              -6.1643
       108                         -0.2249733              -6.1218
       109                         -0.2234233              -6.0797
       110                         -0.2219889              -6.0406
       111                         -0.2184898              -5.9454
       112                         -0.2028286              -5.5192
       113                         -0.1918996              -5.2219
       ...                                ...                  ...
       199                          0.7362348              20.0340
      -------------------------------------------------------------
                  HL-Gap            0.0132809 Eh            0.3614 eV

     #   Z          covCN         q      C6AA      α(0)
     1   6 C        2.919    -0.030    28.738     8.791
     2   6 C        2.918    -0.029    28.733     8.790
     3   6 C        2.925    -0.033    28.831     8.805
     4   6 C        2.976     0.012    27.737     8.639
     5   6 C        2.976     0.009    27.806     8.650
     6   6 C        2.926    -0.036    28.904     8.817
     7   6 C        2.907    -0.042    29.053     8.838
     8   6 C        3.075     0.046    26.884     8.501
     9   6 C        3.062    -0.012    28.253     8.716
    10   6 C        2.916    -0.034    28.837     8.806
    11   6 C        3.064    -0.013    28.263     8.718
    12   6 C        2.912    -0.029    28.731     8.789
    13   6 C        2.920    -0.034    28.850     8.808
    14   6 C        2.923    -0.032    28.788     8.799
    15   6 C        2.909    -0.042    29.040     8.836
    16   6 C        3.076     0.046    26.886     8.501
    17   7 N        2.800    -0.009    21.428     6.875
    18   6 C        2.912     0.040    27.098     8.536
    19   6 C        2.915    -0.043    29.062     8.840
    20   6 C        2.924    -0.037    28.929     8.820
    21   6 C        2.973    -0.006    28.168     8.706
    22   6 C        2.935     0.069    26.451     8.435
    23   6 C        2.912    -0.057    29.427     8.895
    24   6 C        2.935     0.081    26.189     8.393
    25   6 C        2.975    -0.002    28.081     8.692
    26   6 C        2.921    -0.041    29.018     8.834
    27   6 C        2.917    -0.032    28.805     8.801
    28   6 C        2.919    -0.038    28.934     8.821
    29   6 C        2.916    -0.032    28.797     8.800
    30   6 C        2.926    -0.033    28.830     8.805
    31   7 N        1.852    -0.268    27.814     7.817
    32   6 C        2.886     0.191    23.928     8.020
    33   6 C        2.983    -0.002    28.078     8.692
    34   6 C        2.924    -0.028    28.693     8.784
    35   6 C        2.918    -0.029    28.714     8.787
    36   6 C        2.920    -0.026    28.659     8.779
    37   6 C        2.918    -0.028    28.709     8.786
    38   6 C        2.924    -0.027    28.684     8.783
    39   7 N        1.853    -0.255    27.480     7.770
    40   6 C        2.918    -0.045    29.107     8.847
    41   6 C        2.916    -0.043    29.057     8.839
    42   6 C        2.924    -0.033    28.830     8.805
    43   6 C        2.918    -0.029    28.732     8.790
    44   1 H        0.926     0.033     2.539     2.492
    45   1 H        0.926     0.034     2.530     2.487
    46   1 H        0.926     0.037     2.494     2.470
    47   1 H        0.926     0.044     2.401     2.423
    48   1 H        0.926     0.043     2.409     2.427
    49   1 H        0.926     0.046     2.376     2.410
    50   1 H        0.926     0.042     2.418     2.432
    51   1 H        0.926     0.040     2.455     2.450
    52   1 H        0.926     0.039     2.456     2.451
    53   1 H        0.926     0.041     2.440     2.443
    54   1 H        0.926     0.040     2.451     2.448
    55   1 H        0.926     0.042     2.425     2.435
    56   1 H        0.926     0.031     2.567     2.505
    57   1 H        0.926     0.025     2.661     2.551
    58   1 H        0.926     0.029     2.604     2.523
    59   1 H        0.926     0.029     2.601     2.522
    60   1 H        0.926     0.030     2.585     2.514
    61   1 H        0.926     0.036     2.502     2.474
    62   1 H        0.926     0.046     2.372     2.408
    63   1 H        0.926     0.042     2.419     2.432
    64   1 H        0.926     0.043     2.411     2.428
    65   1 H        0.926     0.041     2.430     2.438
    66   1 H        0.926     0.046     2.375     2.410
    67   1 H        0.926     0.029     2.601     2.522
    68   1 H        0.926     0.038     2.476     2.461
    69   1 H        0.926     0.036     2.502     2.474
    70   1 H        0.926     0.034     2.536     2.490

molecular dipole:
                 x           y           z       tot (Debye)
 q only:        2.871      -0.213      -0.229
   full:        2.820       0.089      -0.121       7.179

 projected vibrational frequencies (cm⁻¹)
eigval :       -0.00    -0.00    -0.00     0.00     0.00     0.00
eigval :        9.22    14.32    22.82    34.39    37.03    44.69
eigval :       46.04    47.04    54.94    62.60    73.94    82.02
eigval :       94.30   102.52   113.38   125.35   148.68   152.32
eigval :      167.34   197.38   202.21   208.07   222.04   248.55
eigval :      258.83   266.73   280.99   302.59   320.92   347.91
eigval :      365.14   368.81   369.75   372.67   383.01   392.87
eigval :      395.38   406.58   409.57   424.28   431.53   441.19
eigval :      456.91   461.75   489.57   535.41   539.40   542.20
eigval :      544.11   577.36   581.02   584.00   584.95   587.48
eigval :      589.58   592.81   600.60   602.76   614.65   637.91
eigval :      641.15   655.54   660.99   666.56   667.26   681.80
eigval :      683.48   708.25   724.37   748.71   757.12   763.86
eigval :      773.16   795.01   811.56   819.22   821.78   825.89
eigval :      834.41   841.36   857.20   867.11   868.92   874.72
eigval :      877.09   881.53   898.62   901.32   902.41   903.34
eigval :      907.44   913.40   919.89   920.15   921.89   922.03
eigval :      923.30   927.80   929.08   932.53   934.89   935.21
eigval :      972.21   977.62   983.43   997.71  1017.63  1050.45
eigval :     1064.74  1068.40  1070.56  1073.96  1078.78  1083.92
eigval :     1090.24  1110.96  1117.24  1120.21  1121.77  1137.60
eigval :     1145.44  1166.50  1174.41  1176.67  1177.30  1179.14
eigval :     1181.79  1196.48  1198.47  1199.59  1207.41  1216.66
eigval :     1235.74  1250.69  1253.54  1266.74  1269.61  1277.12
eigval :     1278.95  1284.43  1291.38  1295.72  1317.81  1325.02
eigval :     1325.59  1328.00  1337.65  1345.91  1354.27  1357.22
eigval :     1382.21  1393.12  1407.04  1422.68  1425.45  1427.15
eigval :     1429.01  1434.44  1448.48  1451.58  1463.17  1469.97
eigval :     1471.74  1474.13  1484.55  1485.31  1547.35  1551.82
eigval :     1558.96  1564.51  1572.90  1574.97  1581.83  1586.51
eigval :     1588.56  1592.80  1599.43  3064.21  3067.26  3069.14
eigval :     3070.73  3073.01  3076.92  3077.07  3079.01  3079.06
eigval :     3079.16  3079.54  3082.32  3085.19  3085.38  3085.96
eigval :     3088.33  3090.15  3091.67  3092.44  3092.55  3092.85
eigval :     3094.21  3095.52  3097.59  3098.95  3099.84  3111.92

   temp. (K)  partition function   enthalpy   heat capacity  entropy
                                   cal/mol     cal/K/mol   cal/K/mol   J/K/mol
 298.15  VIB  0.243E+16            19766.433    125.689    123.218
         ROT  0.940E+08              888.752      2.981     39.465
         INT  0.228E+24            20655.185    128.670    162.683
         TR   0.125E+29             1481.254      4.968     44.777
         TOT                       22136.4391   133.6381   207.4601   868.0129

       T/K    H(0)-H(T)+PV         H(T)/Eh          T*S/Eh         G(T)/Eh
   ------------------------------------------------------------------------
    298.15    0.352767E-01    0.569316E+00    0.985710E-01    0.470745E+00
   ------------------------------------------------------------------------

         :::::::::::::::::::::::::::::::::::::::::::::::::::::
         ::                  THERMODYNAMIC                  ::
         :::::::::::::::::::::::::::::::::::::::::::::::::::::
         :: total free energy        -107.713473740470 Eh   ::
         ::.................................................::
         :: total energy             -108.184218521585 Eh   ::
         :: zero point energy           0.534039085932 Eh   ::
         :: G(RRHO) w/o ZPVE           -0.063294304817 Eh   ::
         :: G(RRHO) contrib.            0.470744781115 Eh   ::
         :::::::::::::::::::::::::::::::::::::::::::::::::::::

           -------------------------------------------------
          | TOTAL ENERGY             -108.184218521585 Eh   |
          | TOTAL ENTHALPY           -107.614902774509 Eh   |
          | TOTAL FREE ENERGY        -107.713473740470 Eh   |
          | GRADIENT NORM               0.000049718799 Eh/α |
          | HOMO-LUMO GAP               0.361392911714 eV   |
           -------------------------------------------------

 * finished run on 2025/09/09 at 08:27:17.778
