   * xtb version 6.7.1 (edcfbbe) compiled by 'albert@albert-system' on 2024-07-22

   ID    Z sym.   atoms
    1    6 C      1-16, 18-30, 32-38, 40-43
    2    7 N      17, 31, 39
    3    1 H      44-70

          program call               : xtb data2507/toluene/3CzPhpPM/3CzPhpPM_toluene_S0_crest.xyz --gfn 2 --gbsa toluene --ohess vtight --parallel 40 --molden --ceasefiles --namespace data2507/toluene/3CzPhpPM/3CzPhpPM_toluene_S0_finalOpt
      * Solvation model:               GBSA
        Solvent                        toluene
        Solvent mass                       9.2140E+01 g/mol
          :  Hamiltonian                  GFN2-xTB          :
 * total energy  :  -108.2657451 Eh     change       -0.2724661E-08 Eh
 * total energy  :  -108.2657730 Eh     change       -0.2796493E-04 Eh
 * total energy  :  -108.2657853 Eh     change       -0.1223283E-04 Eh
 * total energy  :  -108.2657913 Eh     change       -0.6000229E-05 Eh
 * total energy  :  -108.2658022 Eh     change       -0.1096582E-04 Eh
 * total energy  :  -108.2658091 Eh     change       -0.6823612E-05 Eh
 * total energy  :  -108.2658171 Eh     change       -0.8008596E-05 Eh
 * total energy  :  -108.2658235 Eh     change       -0.6448194E-05 Eh
 * total energy  :  -108.2658276 Eh     change       -0.4117484E-05 Eh
 * total energy  :  -108.2658321 Eh     change       -0.4447139E-05 Eh
 * total energy  :  -108.2658742 Eh     change       -0.1786440E-05 Eh
 * total energy  :  -108.2658760 Eh     change       -0.1792105E-05 Eh
 * total energy  :  -108.2658776 Eh     change       -0.1541769E-05 Eh
 * total energy  :  -108.2658788 Eh     change       -0.1271258E-05 Eh
 * total energy  :  -108.2658800 Eh     change       -0.1188267E-05 Eh
 * total energy  :  -108.2658811 Eh     change       -0.1068909E-05 Eh
 * total energy  :  -108.2658820 Eh     change       -0.9253956E-06 Eh
 * total energy  :  -108.2658828 Eh     change       -0.7546675E-06 Eh
 * total energy  :  -108.2658828 Eh     change       -0.3640139E-08 Eh
   *** GEOMETRY OPTIMIZATION CONVERGED AFTER 44 ITERATIONS ***

 final structure:
================
70
 xtb: 6.7.1 (edcfbbe)
C            9.56287771143939       -3.00932232437683        0.96463836651295
C            9.44645374131027       -2.13675755568940       -0.10486370357500
C            8.26984671415776       -1.43958479543608       -0.30870461406439
C            7.18634857486130       -1.60540655211947        0.55169464101657
C            5.93652548615061       -0.85946700648502        0.33240303848526
C            4.69894589095261       -1.50104843703926        0.47879421566295
C            3.50267357644911       -0.84375705626838        0.27457297100419
C            3.54781025972821        0.49518271469934       -0.08779027434723
C            4.78454313422079        1.16844044445634       -0.21251794347514
C            5.97473547883028        0.48625480527997       -0.01069842992816
C            4.47498123665070        2.53468285172474       -0.53487507701456
C            5.25397080578621        3.65475653130681       -0.79464566927919
C            4.62229705668944        4.84330758524928       -1.10396515815001
C            3.23273089379536        4.91884924206929       -1.17225539137282
C            2.43676303738994        3.81768623008181       -0.91817583181173
C            3.06491617681366        2.62697802368784       -0.58141804749099
N            2.51592487428193        1.38682587512100       -0.31222169211033
C            1.15054726824288        1.08874961215502       -0.25063867248184
C            0.63639983110110       -0.01020815026408       -0.93759645552438
C           -0.70743586337256       -0.30703134373157       -0.85915210727680
C           -1.57427015539287        0.48793116610294       -0.10817662058851
C           -2.99696859922240        0.13513921678364       -0.04508119020942
C           -3.99589230074575        1.06531416269206        0.24198775544869
C           -5.30995293852094        0.60046770248946        0.28682249653975
C           -6.44821425760769        1.47670462892092        0.59543194421647
C           -6.42641245214450        2.83839234002432        0.30041579743997
C           -7.51418912982672        3.63532741933147        0.60707625543683
C           -8.63232081902626        3.08731562642438        1.21471789577157
C           -8.66511642780147        1.73235313234756        1.50471624229150
C           -7.58319079352282        0.93122964268118        1.19385539547316
N           -5.58808929136786       -0.68379487018358        0.06793480584685
C           -4.57962276846129       -1.49982353395721       -0.22034984330809
C           -4.90016871861336       -2.90681037883176       -0.48240532342010
C           -3.87949714962067       -3.84329943973473       -0.63750568354576
C           -4.18394836870345       -5.16811148477667       -0.88610427839297
C           -5.50679066471303       -5.57224353312177       -0.98054766918277
C           -6.52664908379987       -4.64569461187124       -0.82712240214313
C           -6.22800472489646       -3.31938468120562       -0.57899828289146
N           -3.30298391293965       -1.13935033443523       -0.28816738781320
C           -1.05390345864963        1.58685790339808        0.57440098406593
C            0.29245627401821        1.88181811041598        0.50905333646451
C            7.31440910295697       -2.48773597648662        1.62249213373277
C            8.49326694302558       -3.18083969074716        1.82794134044379
H           10.48280622467602       -3.55278077673853        1.12484783560583
H           10.27534877475874       -2.00158254556722       -0.78520485988792
H            8.17958076316584       -0.77180086467110       -1.15367103605716
H            4.68326073537167       -2.54803556815831        0.74383029143073
H            2.56302479214902       -1.35884460479241        0.40489980110747
H            6.91924063910753        1.00314122926115       -0.09234712147165
H            6.33130718277054        3.59231033205611       -0.75838411206711
H            5.20985657829584        5.72674618649280       -1.30653196625986
H            2.76678781736712        5.85806749169403       -1.43296924021289
H            1.36178628681515        3.88286616126553       -0.99242598866155
H            1.29417339394261       -0.61697761820240       -1.54139850280520
H           -1.11489825476322       -1.15378236553303       -1.38926853361040
H           -3.76435354237502        2.10029022855340        0.42657705041614
H           -5.56948486835997        3.27341042844621       -0.19278054300903
H           -7.48972830534172        4.68883128105048        0.36913987395475
H           -9.47800448926600        3.71406841089173        1.45665065597327
H           -9.53682762962507        1.30029428729538        1.97395376237608
H           -7.59321824473028       -0.12548194468712        1.41357228438707
H           -2.85540191614187       -3.51353907008738       -0.55560002819266
H           -3.38870024025745       -5.88962660542367       -1.00507111397860
H           -5.74279608148035       -6.60841667155934       -1.17458479083989
H           -7.55755341902785       -4.95986970421086       -0.90207272047027
H           -7.00999806656588       -2.58505991701946       -0.46192777162100
H           -1.69498052297901        2.19798158706526        1.19165106239211
H            0.69261555141249        2.71659923086904        1.06470924047048
H            6.49037463071631       -2.61444194367149        2.30998529593548
H            8.57920592166756       -3.85720229520273        2.66668312974303

          :  Hamiltonian                  GFN2-xTB          :
         :: gradient norm              0.000045647525 Eh/a0 ::
         :: HOMO-LUMO gap              2.144788496377 eV    ::
         :: SCC energy              -110.306628091797 Eh    ::
         :: -> dispersion             -0.090898237288 Eh    ::
         :: -> Gsolv                  -0.048275778371 Eh    ::
         :: repulsion energy           2.040745308758 Eh    ::

    * Orbital Energies and Occupations

         #    Occupation            Energy/Eh            Energy/eV
      -------------------------------------------------------------
         1        2.0000           -0.6790519             -18.4779
       ...           ...                  ...                  ...
        89        2.0000           -0.4153477             -11.3022
        90        2.0000           -0.4123575             -11.2208
        91        2.0000           -0.4109768             -11.1832
        92        2.0000           -0.4087265             -11.1220
        93        2.0000           -0.4081031             -11.1051
        94        2.0000           -0.4073600             -11.0848
        95        2.0000           -0.4018587             -10.9351
        96        2.0000           -0.4001999             -10.8900
        97        2.0000           -0.3977214             -10.8226
        98        2.0000           -0.3934804             -10.7071
        99        2.0000           -0.3795166             -10.3272
       100        2.0000           -0.3649199              -9.9300
       101        2.0000           -0.3622759              -9.8580 (HOMO)
       102                         -0.2834564              -7.7132 (LUMO)
       103                         -0.2745322              -7.4704
       104                         -0.2479255              -6.7464
       105                         -0.2429643              -6.6114
       106                         -0.2384173              -6.4877
       107                         -0.2368805              -6.4458
       108                         -0.2299769              -6.2580
       109                         -0.2253921              -6.1332
       110                         -0.2200111              -5.9868
       111                         -0.2152579              -5.8575
       112                         -0.2059182              -5.6033
       ...                                ...                  ...
       199                          0.7443318              20.2543
      -------------------------------------------------------------
                  HL-Gap            0.0788195 Eh            2.1448 eV

     #   Z          covCN         q      C6AA      α(0)
     1   6 C        2.920    -0.033    28.834     8.806
     2   6 C        2.918    -0.031    28.781     8.797
     3   6 C        2.925    -0.036    28.889     8.814
     4   6 C        2.977     0.010    27.797     8.648
     5   6 C        2.976    -0.002    28.060     8.689
     6   6 C        2.928    -0.038    28.950     8.824
     7   6 C        2.908    -0.052    29.288     8.874
     8   6 C        3.074     0.045    26.911     8.506
     9   6 C        3.064    -0.018    28.384     8.736
    10   6 C        2.918    -0.039    28.960     8.825
    11   6 C        3.067    -0.017    28.365     8.733
    12   6 C        2.912    -0.034    28.846     8.807
    13   6 C        2.920    -0.042    29.035     8.836
    14   6 C        2.924    -0.034    28.858     8.809
    15   6 C        2.910    -0.051    29.276     8.872
    16   6 C        3.073     0.046    26.883     8.501
    17   7 N        2.801    -0.041    22.033     6.972
    18   6 C        2.912     0.068    26.479     8.438
    19   6 C        2.920    -0.041    29.030     8.836
    20   6 C        2.925    -0.024    28.595     8.769
    21   6 C        2.979    -0.003    28.098     8.695
    22   6 C        2.966     0.112    25.529     8.288
    23   6 C        2.912    -0.072    29.799     8.951
    24   6 C        2.967     0.113    25.513     8.285
    25   6 C        2.980    -0.000    28.026     8.684
    26   6 C        2.923    -0.032    28.803     8.801
    27   6 C        2.918    -0.029    28.717     8.788
    28   6 C        2.920    -0.026    28.652     8.778
    29   6 C        2.918    -0.028    28.689     8.783
    30   6 C        2.926    -0.025    28.617     8.773
    31   7 N        1.849    -0.294    28.459     7.907
    32   6 C        2.942     0.190    23.956     8.027
    33   6 C        2.984    -0.004    28.120     8.699
    34   6 C        2.924    -0.029    28.719     8.788
    35   6 C        2.918    -0.029    28.722     8.788
    36   6 C        2.920    -0.026    28.648     8.777
    37   6 C        2.918    -0.029    28.720     8.788
    38   6 C        2.923    -0.029    28.715     8.788
    39   7 N        1.850    -0.293    28.452     7.906
    40   6 C        2.922    -0.031    28.774     8.797
    41   6 C        2.920    -0.043    29.057     8.840
    42   6 C        2.925    -0.036    28.892     8.815
    43   6 C        2.918    -0.031    28.782     8.798
    44   1 H        0.926     0.029     2.603     2.523
    45   1 H        0.926     0.029     2.596     2.520
    46   1 H        0.926     0.031     2.576     2.510
    47   1 H        0.926     0.034     2.525     2.485
    48   1 H        0.926     0.033     2.547     2.496
    49   1 H        0.926     0.034     2.532     2.488
    50   1 H        0.926     0.032     2.555     2.500
    51   1 H        0.926     0.029     2.593     2.518
    52   1 H        0.926     0.031     2.568     2.506
    53   1 H        0.926     0.030     2.580     2.512
    54   1 H        0.926     0.050     2.317     2.380
    55   1 H        0.926     0.056     2.242     2.342
    56   1 H        0.926     0.038     2.480     2.462
    57   1 H        0.926     0.035     2.518     2.482
    58   1 H        0.926     0.040     2.451     2.448
    59   1 H        0.926     0.041     2.430     2.438
    60   1 H        0.926     0.041     2.434     2.440
    61   1 H        0.926     0.048     2.351     2.398
    62   1 H        0.926     0.050     2.323     2.383
    63   1 H        0.926     0.041     2.438     2.442
    64   1 H        0.926     0.042     2.425     2.435
    65   1 H        0.926     0.041     2.440     2.443
    66   1 H        0.926     0.050     2.322     2.383
    67   1 H        0.926     0.043     2.411     2.428
    68   1 H        0.926     0.049     2.336     2.390
    69   1 H        0.926     0.031     2.578     2.511
    70   1 H        0.926     0.029     2.598     2.520

molecular dipole:
                 x           y           z       tot (Debye)
 q only:       -0.457       0.214       0.066
   full:       -0.428       0.600       0.142       1.907

 projected vibrational frequencies (cm⁻¹)
eigval :       -0.00    -0.00    -0.00     0.00     0.00     0.00
eigval :        9.73    13.77    22.39    35.07    39.59    43.10
eigval :       46.60    51.09    53.43    63.37    71.73    77.94
eigval :       92.17   101.92   114.79   125.31   143.42   150.01
eigval :      182.98   199.02   200.96   218.07   233.95   250.12
eigval :      263.73   269.96   280.65   306.95   322.53   349.08
eigval :      366.28   367.12   368.22   373.66   379.69   397.80
eigval :      399.78   416.47   418.76   433.41   441.26   457.82
eigval :      462.36   477.91   497.98   537.37   543.75   547.94
eigval :      579.37   584.48   586.55   586.96   600.02   602.00
eigval :      604.85   608.68   613.69   619.59   629.74   647.07
eigval :      664.59   669.66   672.90   682.79   686.18   700.98
eigval :      709.77   728.20   736.90   755.80   763.08   773.64
eigval :      778.64   814.59   817.89   824.19   830.65   839.10
eigval :      845.24   865.84   871.02   873.78   874.99   877.55
eigval :      881.71   900.97   901.49   903.60   903.81   909.15
eigval :      909.72   918.20   923.79   927.22   928.50   930.56
eigval :      930.89   931.42   932.04   933.09   935.79   970.75
eigval :      974.83   988.16  1013.39  1020.77  1025.71  1069.94
eigval :     1072.11  1074.95  1078.39  1086.15  1087.24  1103.17
eigval :     1110.57  1120.93  1121.82  1123.87  1134.55  1155.29
eigval :     1170.11  1177.53  1177.57  1178.45  1180.40  1181.53
eigval :     1194.33  1197.94  1200.85  1204.43  1219.27  1223.18
eigval :     1244.36  1248.11  1260.20  1263.80  1269.26  1277.86
eigval :     1281.30  1287.36  1311.52  1317.46  1319.55  1320.90
eigval :     1325.99  1347.06  1354.45  1358.86  1362.00  1374.80
eigval :     1395.68  1408.84  1417.32  1428.43  1429.03  1430.91
eigval :     1435.99  1461.86  1468.37  1475.58  1480.40  1491.55
eigval :     1494.53  1511.35  1528.18  1558.62  1567.51  1579.90
eigval :     1580.99  1583.33  1584.05  1590.12  1593.87  1594.14
eigval :     1595.03  1599.94  1612.62  3064.55  3065.73  3071.69
eigval :     3072.11  3072.65  3074.53  3076.56  3076.89  3077.64
eigval :     3077.89  3079.43  3082.65  3083.45  3084.72  3086.40
eigval :     3087.00  3087.18  3090.45  3090.51  3091.56  3093.22
eigval :     3095.55  3098.98  3100.59  3102.61  3104.61  3112.75

   temp. (K)  partition function   enthalpy   heat capacity  entropy
                                   cal/mol     cal/K/mol   cal/K/mol   J/K/mol
 298.15  VIB  0.178E+16            19503.715    123.933    121.889
         ROT  0.935E+08              888.752      2.981     39.455
         INT  0.166E+24            20392.467    126.914    161.344
         TR   0.125E+29             1481.254      4.968     44.777
         TOT                       21873.7212   131.8817   206.1212   862.4112

       T/K    H(0)-H(T)+PV         H(T)/Eh          T*S/Eh         G(T)/Eh
   ------------------------------------------------------------------------
    298.15    0.348580E-01    0.572749E+00    0.979348E-01    0.474815E+00
   ------------------------------------------------------------------------

         :::::::::::::::::::::::::::::::::::::::::::::::::::::
         ::                  THERMODYNAMIC                  ::
         :::::::::::::::::::::::::::::::::::::::::::::::::::::
         :: total free energy        -107.791068257798 Eh   ::
         ::.................................................::
         :: total energy             -108.265882785620 Eh   ::
         :: zero point energy           0.537891377881 Eh   ::
         :: G(RRHO) w/o ZPVE           -0.063076850060 Eh   ::
         :: G(RRHO) contrib.            0.474814527821 Eh   ::
         :::::::::::::::::::::::::::::::::::::::::::::::::::::

           -------------------------------------------------
          | TOTAL ENERGY             -108.265882785620 Eh   |
          | TOTAL ENTHALPY           -107.693133414253 Eh   |
          | TOTAL FREE ENERGY        -107.791068257798 Eh   |
          | GRADIENT NORM               0.000045635689 Eh/α |
          | HOMO-LUMO GAP               2.144788571467 eV   |
           -------------------------------------------------

 * finished run on 2025/09/09 at 08:27:08.508
