   * xtb version 6.7.1 (edcfbbe) compiled by 'albert@albert-system' on 2024-07-22

   ID    Z sym.   atoms
    1    6 C      1, 2, 4-7, 9-13, 15-33
    2    7 N      3, 8, 14, 34
    3    1 H      35-58

          program call               : xtb data2507/gas/Me-DMAC/Me-DMAC_gas_S0_finalOpt.xtbopt.xyz --gfn 2 --spinpol --tblite --uhf 2 --ohess vtight --parallel 40 --molden --ceasefiles --namespace data2507/gas/Me-DMAC/Me-DMAC_gas_T1_preOpt
 * total energy  :   -88.0531265 Eh     change       -0.1670107E-07 Eh
 * total energy  :   -88.0568934 Eh     change       -0.3766926E-02 Eh
 * total energy  :   -88.0577700 Eh     change       -0.8765475E-03 Eh
 * total energy  :   -88.0590515 Eh     change       -0.1281551E-02 Eh
 * total energy  :   -88.0595945 Eh     change       -0.5429522E-03 Eh
 * total energy  :   -88.0601380 Eh     change       -0.5434716E-03 Eh
 * total energy  :   -88.0604913 Eh     change       -0.3533490E-03 Eh
 * total energy  :   -88.0606948 Eh     change       -0.2035253E-03 Eh
 * total energy  :   -88.0608841 Eh     change       -0.1892956E-03 Eh
 * total energy  :   -88.0610786 Eh     change       -0.1944410E-03 Eh
 * total energy  :   -88.0615315 Eh     change       -0.1057981E-05 Eh
 * total energy  :   -88.0615326 Eh     change       -0.1064222E-05 Eh
 * total energy  :   -88.0615336 Eh     change       -0.9750669E-06 Eh
 * total energy  :   -88.0615346 Eh     change       -0.1000829E-05 Eh
 * total energy  :   -88.0615355 Eh     change       -0.9450443E-06 Eh
 * total energy  :   -88.0615364 Eh     change       -0.8822179E-06 Eh
 * total energy  :   -88.0615372 Eh     change       -0.8504063E-06 Eh
 * total energy  :   -88.0615381 Eh     change       -0.8987046E-06 Eh
 * total energy  :   -88.0615381 Eh     change       -0.6878821E-08 Eh
   *** GEOMETRY OPTIMIZATION CONVERGED AFTER 68 ITERATIONS ***

 final structure:
================
58
 xtb: 6.7.1 (edcfbbe)
C            6.52130081304286        2.25990043018888       -0.80516182133225
C            5.68295635184164        1.08823604159927       -0.40277075109414
N            6.33175489312142       -0.00026024724047       -0.00088335555733
C            5.68293726051118       -1.08874286489889        0.40105281701857
C            6.52128241778010       -2.26042961423252        0.80338041855938
C            4.29379718578790       -1.13777227305165        0.42849739313537
C            3.71710053055110       -2.37178880769375        0.75549078767321
N            3.31103001636286       -3.42235435207089        0.99985867921912
C            3.51643726103919       -0.00022429748337       -0.00080984566839
C            2.09851550929060       -0.00021693798826       -0.00085919856383
C            1.35054965914950       -0.76170141727147        0.94089303073637
C           -0.01426460165337       -0.76285107161989        0.93864897731408
C           -0.73003980344016       -0.00013309498843       -0.00094973610031
N           -2.14084540162369       -0.00008222624063       -0.00099387523481
C           -2.81542314415640        1.18470946669875        0.22664224711120
C           -2.09231073420944        2.34869710548960        0.53389939148288
C           -2.73336251252369        3.55119249639353        0.72215170947611
C           -4.11518900678788        3.61946000098889        0.62874938166432
C           -4.83721046272466        2.46554631308194        0.38597234200263
C           -4.21847125685935        1.23800384704112        0.19340646667843
C           -5.06502151722924        0.00001948348396       -0.00109263707390
C           -5.94621867365211        0.18503244875561       -1.25161233482190
C           -5.94622833186005       -0.18494205866906        1.24942825018076
C           -4.21854404956256       -1.23801648086020       -0.19557815464724
C           -4.83735469206331       -2.46551104523728       -0.38821973184356
C           -4.11539624872259       -3.61946631099289       -0.63098572987067
C           -2.73355816976353       -3.55129276112487       -0.72428478751383
C           -2.09243583808255       -2.34884921022487       -0.53594351986151
C           -2.81549038263790       -1.18482041180086       -0.22870658456087
C           -0.01416287275274        0.76252737616046       -0.94051507395764
C            1.35065092632638        0.76129235777600       -0.94267344749447
C            4.29381368746895        1.13732540424898       -0.43011725078420
C            3.71713550204674        2.37135736472430       -0.75701627906856
N            3.31103091660557        3.42196242012339       -1.00125816739909
H            6.32282668619443        3.10959774310825       -0.15267214032249
H            6.28799049054280        2.56580528130455       -1.82406810431012
H            7.57240178883606        1.99315365776925       -0.73831810645363
H            7.57238258706631       -1.99368727877826        0.73650547036462
H            6.28800755366001       -2.56636957540186        1.82228300849456
H            6.32278117455884       -3.11010221633533        0.15086765000991
H            1.87208025812394       -1.30647576941481        1.71109138143326
H           -0.56075982298072       -1.31640853402525        1.68884036279190
H           -1.02030527647075        2.29884539390966        0.63283924235695
H           -2.15583552084226        4.43382922990084        0.94842327671658
H           -4.62762976122437        4.55887541915687        0.76623064652950
H           -5.91385245471479        2.52856360647181        0.35124501181980
H           -6.58123543482856       -0.68182789044758       -1.40905084377160
H           -5.31906421379663        0.31591708908988       -2.13130390423369
H           -6.58268533002728        1.05913306341842       -1.15015240274622
H           -5.31907900795336       -0.31585909255008        2.12911878081383
H           -6.58274054962768       -1.05900994874492        1.14796941346491
H           -6.58119484880726        0.68195583550616        1.40686419563120
H           -5.91400306840042       -2.52845563290607       -0.35355831206062
H           -4.62789298649770       -4.55884094627918       -0.76853775003999
H           -2.15607659609913       -4.43396232457735       -0.95054454651764
H           -1.02041991834135       -2.29906661626282       -0.63480418436814
H           -0.56057595537125        1.31611237597028       -1.69074578174269
H            1.87226208046088        1.30602599824904       -1.71284510632200

 projected vibrational frequencies (cm⁻¹)
eigval :       -0.00    -0.00    -0.00     0.00     0.00     0.00
eigval :       17.29    19.07    19.92    29.70    44.46    45.58
eigval :       59.26    69.30    69.85    73.48   100.36   101.29
eigval :      115.32   127.73   143.87   156.57   164.24   176.81
eigval :      191.49   212.36   213.84   216.37   238.13   241.80
eigval :      261.38   290.61   299.79   303.13   327.91   332.38
eigval :      343.08   374.81   385.63   389.93   393.77   395.20
eigval :      401.11   411.94   444.68   453.18   453.50   459.15
eigval :      462.35   488.40   503.26   510.36   527.56   543.66
eigval :      554.54   575.93   577.67   583.99   602.17   619.62
eigval :      624.40   637.52   637.62   661.73   667.08   688.79
eigval :      703.01   731.90   775.47   777.31   794.91   826.25
eigval :      829.10   858.17   873.07   874.27   880.81   898.02
eigval :      904.66   910.68   911.05   917.29   917.90   925.45
eigval :      925.46   937.00   958.49   973.32   991.79  1001.64
eigval :     1013.43  1014.43  1021.93  1074.49  1082.06  1089.57
eigval :     1107.68  1110.91  1112.56  1138.32  1142.03  1149.52
eigval :     1167.34  1183.64  1183.80  1185.08  1210.35  1213.80
eigval :     1239.91  1240.71  1254.81  1259.73  1263.28  1294.43
eigval :     1294.76  1299.89  1322.00  1328.25  1331.57  1335.13
eigval :     1340.63  1379.14  1393.74  1394.83  1401.51  1402.15
eigval :     1411.04  1419.35  1420.81  1426.66  1453.28  1453.57
eigval :     1461.43  1462.73  1463.77  1465.86  1466.51  1472.73
eigval :     1486.17  1486.88  1497.10  1497.61  1500.46  1545.72
eigval :     1548.48  1562.88  1574.41  1586.27  2285.73  2308.73
eigval :     3006.01  3006.49  3021.28  3021.35  3031.09  3032.63
eigval :     3046.71  3049.02  3054.56  3055.40  3056.08  3058.17
eigval :     3073.57  3075.09  3088.85  3089.02  3096.16  3096.27
eigval :     3104.64  3104.94  3111.15  3112.43  3117.66  3117.95

   temp. (K)  partition function   enthalpy   heat capacity  entropy
                                   cal/mol     cal/K/mol   cal/K/mol   J/K/mol
 298.15  VIB  0.459E+14            17870.370    108.577    111.571
         ROT  0.144E+08              888.752      2.981     35.737
         INT  0.661E+21            18759.122    111.558    147.308
         TR   0.895E+28             1481.254      4.968     44.118
         TOT                       20240.3764   116.5265   191.4262   800.9273

       T/K    H(0)-H(T)+PV         H(T)/Eh          T*S/Eh         G(T)/Eh
   ------------------------------------------------------------------------
    298.15    0.322551E-01    0.478765E+00    0.909528E-01    0.387812E+00
   ------------------------------------------------------------------------

         :::::::::::::::::::::::::::::::::::::::::::::::::::::
         ::                  THERMODYNAMIC                  ::
         :::::::::::::::::::::::::::::::::::::::::::::::::::::
         :: total free energy         -87.673726196312 Eh   ::
         ::.................................................::
         :: total energy              -88.061538157022 Eh   ::
         :: zero point energy           0.446509637831 Eh   ::
         :: G(RRHO) w/o ZPVE           -0.058697677122 Eh   ::
         :: G(RRHO) contrib.            0.387811960709 Eh   ::
         :::::::::::::::::::::::::::::::::::::::::::::::::::::

           -------------------------------------------------
          | TOTAL ENERGY              -88.061538157022 Eh   |
          | TOTAL ENTHALPY            -87.582773426282 Eh   |
          | TOTAL FREE ENERGY         -87.673726196312 Eh   |
          | GRADIENT NORM               0.000106315546 Eh/α |
           -------------------------------------------------

 * finished run on 2025/09/09 at 05:29:02.417
