   * xtb version 6.7.1 (edcfbbe) compiled by 'albert@albert-system' on 2024-07-22

   ID    Z sym.   atoms
    1    6 C      1, 2, 4-7, 9-13, 15-33
    2    7 N      3, 8, 14, 34
    3    1 H      35-58

          program call               : xtb data2507/gas/Me-DMAC/Me-DMAC_gas_S0_crest.xyz --gfn 2 --ohess vtight --parallel 40 --molden --ceasefiles --namespace data2507/gas/Me-DMAC/Me-DMAC_gas_S0_finalOpt
          :  Hamiltonian                  GFN2-xTB          :
 * total energy  :   -88.1437759 Eh     change       -0.1366658E-08 Eh
 * total energy  :   -88.1437797 Eh     change       -0.3812093E-05 Eh
 * total energy  :   -88.1437665 Eh     change        0.1324363E-04 Eh
 * total energy  :   -88.1437835 Eh     change       -0.1699164E-04 Eh
 * total energy  :   -88.1437815 Eh     change        0.1935051E-05 Eh
 * total energy  :   -88.1437826 Eh     change       -0.1023545E-05 Eh
 * total energy  :   -88.1437846 Eh     change       -0.2045991E-05 Eh
 * total energy  :   -88.1437860 Eh     change       -0.1413353E-05 Eh
 * total energy  :   -88.1437861 Eh     change       -0.1042650E-06 Eh
 * total energy  :   -88.1437861 Eh     change       -0.5407145E-08 Eh
 * total energy  :   -88.1437863 Eh     change       -0.1338562E-06 Eh
 * total energy  :   -88.1437867 Eh     change       -0.4668753E-06 Eh
 * total energy  :   -88.1437871 Eh     change       -0.3294148E-06 Eh
 * total energy  :   -88.1437872 Eh     change       -0.1663123E-06 Eh
 * total energy  :   -88.1437873 Eh     change       -0.2636958E-07 Eh
   *** GEOMETRY OPTIMIZATION CONVERGED AFTER 15 ITERATIONS ***

 final structure:
================
58
 xtb: 6.7.1 (edcfbbe)
C            6.49561501421479        2.35068001454655       -0.46879071219564
C            5.68122587770916        1.12523416920121       -0.22770069207470
N            6.33528144920948       -0.00060719053931       -0.00229145180996
C            5.68092610871870       -1.12624809969229        0.22331866505155
C            6.49501974373200       -2.35188111118844        0.46448579032081
C            4.27489252076201       -1.17358090135857        0.23304289525101
C            3.62634195425342       -2.41165619650815        0.42887144322559
N            3.14113077110040       -3.44106908159161        0.57223825444610
C            3.54525093244909       -0.00008401098715       -0.00160569402482
C            2.07887036715209        0.00026040845451       -0.00078332057507
C            1.37532453663664       -0.59192668884750        1.04635737499796
C           -0.00413225398859       -0.58423127973867        1.05137563465196
C           -0.70532495533218        0.00046461346839        0.00086172053806
N           -2.11959585885186        0.00007181759556        0.00135641667429
C           -2.79573087756390        1.19988010457957        0.18722637276925
C           -2.07541926783778        2.37437265579816        0.42494380279244
C           -2.71988842568585        3.58022039070713        0.60316810969608
C           -4.10098359835913        3.63640776891507        0.55926810260763
C           -4.81662818496835        2.47150638634071        0.35721561728594
C           -4.19338683650845        1.24397245267844        0.17589782389152
C           -5.04192750510439       -0.00002230137356       -0.00262142004586
C           -5.91812424355211        0.17291940759573       -1.25682779037420
C           -5.92547914063208       -0.17259903154753        1.24642694865106
C           -4.19280177944468       -1.24426590725275       -0.17669105103179
C           -4.81552270867020       -2.47201736480856       -0.35835573279435
C           -4.09934725607106       -3.63712621660444       -0.55728065850249
C           -2.71816255335568       -3.58088584132415       -0.59793731738396
C           -2.07420762101312       -2.37478231319997       -0.41961841498512
C           -2.79511597433514       -1.20007064301787       -0.18480248916033
C           -0.00528586254910        0.58533003644268       -1.05032394486702
C            1.37418088443345        0.59277016396829       -1.04697480956292
C            4.27520830477913        1.17308299572777       -0.23682691497129
C            3.62711259912021        2.41135821195491       -0.43294839569628
N            3.14227378626348        3.44084997902825       -0.57722288405887
H            6.27025037144794        3.10793767261190        0.28139031104613
H            6.26157908839547        2.77653086372296       -1.44381291036252
H            7.55097209535333        2.09828563236602       -0.42536921726083
H            7.55043683880839       -2.10120868009637        0.41342655403844
H            6.26675022309341       -2.77259811677180        1.44312694183956
H            6.26361552426486       -3.11243460872390       -0.28044553130192
H            1.91092939661561       -1.03383729658799        1.87356703486076
H           -0.54878020350816       -1.03359286014690        1.86791216634023
H           -0.99812694377697        2.34306740201985        0.47714752301556
H           -2.13889606576276        4.47284580852389        0.77964401077607
H           -4.61769164372129        4.57453317002429        0.69248416799087
H           -5.89471915384922        2.52531445377050        0.34377382743829
H           -6.55968239096975       -0.69120931992505       -1.40515857921137
H           -5.28656165483437        0.28627634773074       -2.13607470538570
H           -6.54834911829998        1.05379805247101       -1.17166470079114
H           -5.29912300202554       -0.28513547783273        2.12948617999576
H           -6.55488593997968       -1.05372943305889        1.15811871789675
H           -6.56838134697324        0.69124523370409        1.39042228715901
H           -5.89364863549825       -2.52581507553674       -0.34792099951741
H           -4.61567643955969       -4.57542230871042       -0.69074768307360
H           -2.13665106044773       -4.47364065821778       -0.77202252125853
H           -0.99681765099459       -2.34356596013891       -0.46954652695416
H           -0.55086220670089        1.03490208013117       -1.86612140007178
H            1.90887730831260        1.03457075074867       -1.87482335054495

          :  Hamiltonian                  GFN2-xTB          :
         :: gradient norm              0.000099721764 Eh/a0 ::
         :: HOMO-LUMO gap              1.368755962075 eV    ::
         :: SCC energy               -89.782289740926 Eh    ::
         :: -> dispersion             -0.077862930202 Eh    ::
         :: repulsion energy           1.638502489722 Eh    ::

    * Orbital Energies and Occupations

         #    Occupation            Energy/Eh            Energy/eV
      -------------------------------------------------------------
         1        2.0000           -0.7000123             -19.0483
       ...           ...                  ...                  ...
        70        2.0000           -0.4373542             -11.9010
        71        2.0000           -0.4309237             -11.7260
        72        2.0000           -0.4275301             -11.6337
        73        2.0000           -0.4263918             -11.6027
        74        2.0000           -0.4253562             -11.5745
        75        2.0000           -0.4169251             -11.3451
        76        2.0000           -0.4065591             -11.0630
        77        2.0000           -0.4055355             -11.0352
        78        2.0000           -0.4015548             -10.9269
        79        2.0000           -0.3961135             -10.7788
        80        2.0000           -0.3956771             -10.7669
        81        2.0000           -0.3904837             -10.6256
        82        2.0000           -0.3459696              -9.4143 (HOMO)
        83                         -0.2956688              -8.0456 (LUMO)
        84                         -0.2952803              -8.0350
        85                         -0.2465636              -6.7093
        86                         -0.2390089              -6.5038
        87                         -0.2222680              -6.0482
        88                         -0.2220368              -6.0419
        89                         -0.2199268              -5.9845
        90                         -0.2170061              -5.9050
        91                         -0.2159379              -5.8760
        92                         -0.2158266              -5.8729
        93                         -0.1879222              -5.1136
       ...                                ...                  ...
       160                          1.1570547              31.4851
      -------------------------------------------------------------
                  HL-Gap            0.0503008 Eh            1.3688 eV

     #   Z          covCN         q      C6AA      α(0)
     1   6 C        3.760    -0.118    22.806     6.808
     2   6 C        2.947     0.116    25.442     8.273
     3   7 N        1.848    -0.240    27.118     7.718
     4   6 C        2.947     0.116    25.442     8.273
     5   6 C        3.760    -0.118    22.806     6.808
     6   6 C        2.973    -0.014    28.362     8.736
     7   6 C        1.909     0.113    28.319     8.594
     8   7 N        0.911    -0.236    26.171     7.399
     9   6 C        2.990     0.036    27.184     8.553
    10   6 C        2.978     0.004    27.928     8.669
    11   6 C        2.923    -0.027    28.667     8.780
    12   6 C        2.921    -0.035    28.877     8.812
    13   6 C        2.928     0.076    26.304     8.411
    14   7 N        2.754    -0.070    22.588     7.059
    15   6 C        2.927     0.057    26.716     8.476
    16   6 C        2.924    -0.058    29.450     8.899
    17   6 C        2.920    -0.032    28.805     8.801
    18   6 C        2.917    -0.044    29.088     8.844
    19   6 C        2.928    -0.036    28.899     8.816
    20   6 C        2.980    -0.013    28.342     8.733
    21   6 C        3.909     0.021    20.157     6.381
    22   6 C        3.761    -0.103    22.513     6.764
    23   6 C        3.761    -0.103    22.514     6.764
    24   6 C        2.980    -0.013    28.342     8.733
    25   6 C        2.928    -0.036    28.899     8.816
    26   6 C        2.917    -0.044    29.088     8.844
    27   6 C        2.920    -0.032    28.805     8.801
    28   6 C        2.924    -0.058    29.450     8.900
    29   6 C        2.927     0.057    26.716     8.476
    30   6 C        2.921    -0.035    28.877     8.812
    31   6 C        2.923    -0.027    28.666     8.780
    32   6 C        2.973    -0.014    28.362     8.736
    33   6 C        1.909     0.113    28.319     8.594
    34   7 N        0.911    -0.236    26.171     7.399
    35   1 H        0.925     0.065     2.136     2.286
    36   1 H        0.925     0.064     2.147     2.292
    37   1 H        0.925     0.072     2.063     2.246
    38   1 H        0.925     0.072     2.063     2.246
    39   1 H        0.925     0.065     2.146     2.291
    40   1 H        0.925     0.065     2.137     2.286
    41   1 H        0.926     0.041     2.436     2.440
    42   1 H        0.926     0.051     2.311     2.377
    43   1 H        0.926     0.025     2.657     2.549
    44   1 H        0.926     0.030     2.581     2.512
    45   1 H        0.926     0.027     2.629     2.536
    46   1 H        0.926     0.030     2.582     2.513
    47   1 H        0.925     0.039     2.458     2.452
    48   1 H        0.925     0.031     2.569     2.507
    49   1 H        0.925     0.039     2.457     2.451
    50   1 H        0.925     0.031     2.569     2.506
    51   1 H        0.925     0.039     2.457     2.451
    52   1 H        0.925     0.039     2.458     2.452
    53   1 H        0.926     0.030     2.582     2.513
    54   1 H        0.926     0.027     2.629     2.536
    55   1 H        0.926     0.030     2.580     2.512
    56   1 H        0.926     0.025     2.656     2.549
    57   1 H        0.926     0.051     2.312     2.378
    58   1 H        0.926     0.041     2.435     2.440

molecular dipole:
                 x           y           z       tot (Debye)
 q only:        0.638       0.000       0.000
   full:        0.717       0.000       0.001       1.822

 projected vibrational frequencies (cm⁻¹)
eigval :       -0.00    -0.00    -0.00     0.00     0.00     0.00
eigval :       15.08    18.25    18.75    38.54    57.59    58.63
eigval :       64.90    65.34    66.54    70.60    97.93    98.32
eigval :      109.19   117.24   127.84   148.41   150.07   184.47
eigval :      189.20   206.89   218.48   222.88   230.29   234.93
eigval :      259.60   278.48   297.44   305.40   332.17   342.39
eigval :      346.61   375.13   382.58   389.93   395.50   399.78
eigval :      407.60   423.35   453.05   472.75   474.27   484.20
eigval :      493.68   508.60   512.30   515.07   547.42   557.24
eigval :      575.05   587.33   591.31   612.87   620.81   620.89
eigval :      632.03   662.31   675.65   683.02   693.83   694.73
eigval :      719.31   738.96   777.75   779.01   812.68   827.25
eigval :      864.49   868.12   869.01   871.74   880.11   913.61
eigval :      914.33   914.74   919.61   922.00   923.04   928.21
eigval :      928.75   939.18   957.24   988.91  1009.37  1014.54
eigval :     1021.63  1022.77  1035.98  1077.13  1086.14  1109.93
eigval :     1115.36  1120.18  1137.01  1141.83  1155.56  1160.39
eigval :     1174.27  1186.99  1188.27  1188.93  1210.92  1245.72
eigval :     1250.96  1266.48  1268.70  1271.47  1271.76  1295.34
eigval :     1309.05  1319.43  1325.36  1334.25  1339.72  1353.76
eigval :     1390.42  1393.72  1396.47  1402.89  1413.94  1417.33
eigval :     1421.11  1436.03  1442.39  1451.50  1455.71  1456.61
eigval :     1460.58  1479.38  1486.78  1490.04  1490.93  1497.39
eigval :     1500.68  1505.31  1513.55  1536.02  1557.37  1576.12
eigval :     1588.17  1592.44  1593.21  1602.69  2362.40  2366.32
eigval :     3007.91  3008.44  3022.42  3022.47  3026.59  3028.69
eigval :     3039.78  3042.48  3048.70  3052.61  3065.83  3066.49
eigval :     3079.90  3080.08  3084.39  3084.98  3085.00  3086.08
eigval :     3094.85  3095.23  3099.54  3100.13  3102.49  3103.26

   temp. (K)  partition function   enthalpy   heat capacity  entropy
                                   cal/mol     cal/K/mol   cal/K/mol   J/K/mol
 298.15  VIB  0.353E+14            17691.457    107.674    111.454
         ROT  0.142E+08              888.752      2.981     35.702
         INT  0.500E+21            18580.210    110.655    147.156
         TR   0.895E+28             1481.254      4.968     44.118
         TOT                       20061.4636   115.6230   191.2741   800.2910

       T/K    H(0)-H(T)+PV         H(T)/Eh          T*S/Eh         G(T)/Eh
   ------------------------------------------------------------------------
    298.15    0.319700E-01    0.481880E+00    0.908805E-01    0.391000E+00
   ------------------------------------------------------------------------

         :::::::::::::::::::::::::::::::::::::::::::::::::::::
         ::                  THERMODYNAMIC                  ::
         :::::::::::::::::::::::::::::::::::::::::::::::::::::
         :: total free energy         -87.752787364534 Eh   ::
         ::.................................................::
         :: total energy              -88.143787251246 Eh   ::
         :: zero point energy           0.449910426340 Eh   ::
         :: G(RRHO) w/o ZPVE           -0.058910539628 Eh   ::
         :: G(RRHO) contrib.            0.390999886712 Eh   ::
         :::::::::::::::::::::::::::::::::::::::::::::::::::::

           -------------------------------------------------
          | TOTAL ENERGY              -88.143787251246 Eh   |
          | TOTAL ENTHALPY            -87.661906847627 Eh   |
          | TOTAL FREE ENERGY         -87.752787364534 Eh   |
          | GRADIENT NORM               0.000099874533 Eh/α |
          | HOMO-LUMO GAP               1.368754338941 eV   |
           -------------------------------------------------

 * finished run on 2025/09/09 at 05:28:55.068
