   * xtb version 6.7.1 (edcfbbe) compiled by 'albert@albert-system' on 2024-07-22

   ID    Z sym.   atoms
    1    6 C      1, 2, 4-7, 9-13, 15-33
    2    7 N      3, 8, 14, 34
    3    1 H      35-58

          program call               : xtb data2507/gas/Me-DMAC/Me-DMAC.xyz --gfn 2 --ohess vtight --parallel 40 --molden --ceasefiles --namespace data2507/gas/Me-DMAC/Me-DMAC_gas_S0_preOpt
          :  Hamiltonian                  GFN2-xTB          :
 * total energy  :   -88.1224694 Eh     change       -0.1077623E-08 Eh
 * total energy  :   -88.1366844 Eh     change       -0.1421506E-01 Eh
 * total energy  :   -88.1401873 Eh     change       -0.3502848E-02 Eh
 * total energy  :   -88.1406818 Eh     change       -0.4945555E-03 Eh
 * total energy  :   -88.1409953 Eh     change       -0.3135062E-03 Eh
 * total energy  :   -88.1410810 Eh     change       -0.8569954E-04 Eh
 * total energy  :   -88.1411025 Eh     change       -0.2144700E-04 Eh
 * total energy  :   -88.1411465 Eh     change       -0.4398406E-04 Eh
 * total energy  :   -88.1411383 Eh     change        0.8117558E-05 Eh
 * total energy  :   -88.1411584 Eh     change       -0.2001150E-04 Eh
 * total energy  :   -88.1411640 Eh     change       -0.3541099E-05 Eh
 * total energy  :   -88.1411647 Eh     change       -0.6903380E-06 Eh
 * total energy  :   -88.1411650 Eh     change       -0.2566319E-06 Eh
 * total energy  :   -88.1411650 Eh     change       -0.4366839E-08 Eh
 * total energy  :   -88.1411649 Eh     change        0.5986493E-07 Eh
 * total energy  :   -88.1411648 Eh     change        0.7463613E-07 Eh
 * total energy  :   -88.1411651 Eh     change       -0.2641027E-06 Eh
 * total energy  :   -88.1411651 Eh     change        0.2134570E-08 Eh
 * total energy  :   -88.1411651 Eh     change       -0.2427355E-07 Eh
   *** GEOMETRY OPTIMIZATION CONVERGED AFTER 21 ITERATIONS ***

 final structure:
================
58
 xtb: 6.7.1 (edcfbbe)
C            6.85498572414567        2.39935705087328       -0.00028876681142
C            6.04277732190256        1.14964254430984       -0.00013636026751
N            6.69465615257046        0.00000429931812       -0.00015926720569
C            6.04278408125305       -1.14964074979528       -0.00001761360019
C            6.85500189547426       -2.39934901307951       -0.00005682916955
C            4.63660763989342       -1.19657018046368        0.00014352767096
C            3.95077777610172       -2.43031947584635        0.00028913894769
N            3.39987846768124       -3.43563926148759        0.00048188641413
C            3.91520667198109       -0.00000748389896        0.00014356696403
C            2.43801196038562       -0.00001039235301        0.00016597294667
C            1.74249833555896        0.00019035662000        1.20289367567047
C            0.36114596369149        0.00018391089561        1.20294056518863
C           -0.33374614344722       -0.00000848382557        0.00006824753188
N           -1.75398035400101       -0.00000338365660        0.00002048424520
C           -2.42425166431519        1.21294509931197        0.00010893446810
C           -1.69440777923805        2.40499197122145        0.00022171300050
C           -2.33431420568626        3.62651136496628        0.00027636288909
C           -3.71635968837356        3.67970191840004        0.00019519447758
C           -4.43926520734731        2.50101793740250        0.00008174489804
C           -3.82198474697075        1.25776509178070        0.00005259202850
C           -4.67071531063177        0.00000819342544       -0.00008703655778
C           -5.55097941450471        0.00007512276109       -1.26319837430348
C           -5.55121961004955       -0.00005196903264        1.26285508373352
C           -3.82199471628369       -1.25775541075034       -0.00006612483613
C           -4.43928481310375       -2.50100349001689       -0.00009758229555
C           -3.71638851349713       -3.67969318559849       -0.00009352757220
C           -2.33434262365844       -3.62651347735821       -0.00007065179361
C           -1.69442669949303       -2.40499898510684       -0.00004324100172
C           -2.42426124186409       -1.21294631727567       -0.00003297675648
C            0.36122365770073       -0.00020480816080       -1.20275868329734
C            1.74257407908462       -0.00021442232659       -1.20260887241687
C            4.63659779185914        1.19656644852057        0.00001629253803
C            3.95077666293616        2.43030069430744       -0.00003213677642
N            3.39990575601753        3.43559950110102        0.00000393506463
H            6.62391814192139        3.00059452990289        0.87838046049729
H            6.62294519871316        3.00103756670447       -0.87839521311669
H            7.91100472658028        2.14616929215321       -0.00090369820288
H            7.91102040239427       -2.14615503135201       -0.00022731782916
H            6.62358180410558       -3.00075025214305        0.87840794068625
H            6.62332641849770       -3.00087345600844       -0.87836804433159
H            2.28501283609884        0.00032605575091        2.13728519819008
H           -0.18661066133316        0.00032039902461        2.13306141166318
H           -0.61537950472619        2.37196666204767        0.00026500044321
H           -1.74953355264773        4.53402803941569        0.00038054988027
H           -4.22919211587566        4.62946393716470        0.00022703239344
H           -5.51741634689128        2.55815922144756        0.00001844751235
H           -6.18685144275124       -0.88040130855902       -1.29345570624315
H           -4.92233749794729        0.00021032336339       -2.15179249831551
H           -6.18697394607168        0.88046913402988       -1.29327531617647
H           -4.92275353375541       -0.00018963505222        2.15157405510966
H           -6.18722892986276       -0.88043858486487        1.29280999841102
H           -6.18709551398861        0.88042497159810        1.29298781271379
H           -5.51743637598482       -2.55813640140974       -0.00012493336488
H           -4.22922832951754       -4.62945121510935       -0.00010157749743
H           -1.74956916190584       -4.53403489852380       -0.00006392259958
H           -0.61539807446535       -2.37198176235212       -0.00001927733431
H           -0.18645891661057       -0.00033829226322       -2.13292260166662
H            2.28516217025143       -0.00035031014754       -2.13695767483802

          :  Hamiltonian                  GFN2-xTB          :
         :: gradient norm              0.000089109218 Eh/a0 ::
         :: HOMO-LUMO gap              1.163734833610 eV    ::
         :: SCC energy               -89.782827112887 Eh    ::
         :: -> dispersion             -0.077719737964 Eh    ::
         :: repulsion energy           1.641661983696 Eh    ::

    * Orbital Energies and Occupations

         #    Occupation            Energy/Eh            Energy/eV
      -------------------------------------------------------------
         1        2.0000           -0.7038143             -19.1518
       ...           ...                  ...                  ...
        70        2.0000           -0.4345049             -11.8235
        71        2.0000           -0.4341440             -11.8137
        72        2.0000           -0.4297827             -11.6950
        73        2.0000           -0.4285947             -11.6627
        74        2.0000           -0.4238113             -11.5325
        75        2.0000           -0.4173178             -11.3558
        76        2.0000           -0.4038570             -10.9895
        77        2.0000           -0.4027792             -10.9602
        78        2.0000           -0.3987845             -10.8515
        79        2.0000           -0.3982040             -10.8357
        80        2.0000           -0.3926983             -10.6859
        81        2.0000           -0.3874965             -10.5443
        82        2.0000           -0.3419853              -9.3059 (HOMO)
        83                         -0.2992188              -8.1422 (LUMO)
        84                         -0.2905532              -7.9064
        85                         -0.2485733              -6.7640
        86                         -0.2465581              -6.7092
        87                         -0.2253657              -6.1325
        88                         -0.2251924              -6.1278
        89                         -0.2187895              -5.9536
        90                         -0.2176155              -5.9216
        91                         -0.2137742              -5.8171
        92                         -0.2127481              -5.7892
        93                         -0.1847249              -5.0266
       ...                                ...                  ...
       160                          1.1582051              31.5164
      -------------------------------------------------------------
                  HL-Gap            0.0427665 Eh            1.1637 eV

     #   Z          covCN         q      C6AA      α(0)
     1   6 C        3.760    -0.118    22.810     6.809
     2   6 C        2.944     0.117    25.426     8.270
     3   7 N        1.848    -0.238    27.071     7.711
     4   6 C        2.944     0.117    25.426     8.270
     5   6 C        3.760    -0.118    22.810     6.809
     6   6 C        2.973    -0.012    28.314     8.728
     7   6 C        1.909     0.113    28.325     8.595
     8   7 N        0.911    -0.230    26.025     7.378
     9   6 C        2.997     0.038    27.132     8.544
    10   6 C        2.979     0.007    27.863     8.659
    11   6 C        2.923    -0.027    28.682     8.783
    12   6 C        2.922    -0.033    28.823     8.804
    13   6 C        2.929     0.077    26.291     8.409
    14   7 N        2.755    -0.074    22.671     7.072
    15   6 C        2.929     0.058    26.708     8.475
    16   6 C        2.924    -0.059    29.468     8.902
    17   6 C        2.920    -0.032    28.809     8.802
    18   6 C        2.917    -0.045    29.117     8.849
    19   6 C        2.928    -0.036    28.904     8.817
    20   6 C        2.979    -0.015    28.370     8.737
    21   6 C        3.909     0.021    20.158     6.382
    22   6 C        3.761    -0.103    22.507     6.763
    23   6 C        3.761    -0.103    22.507     6.763
    24   6 C        2.979    -0.015    28.370     8.737
    25   6 C        2.928    -0.036    28.904     8.817
    26   6 C        2.917    -0.045    29.117     8.849
    27   6 C        2.920    -0.032    28.809     8.802
    28   6 C        2.924    -0.059    29.468     8.902
    29   6 C        2.929     0.058    26.708     8.475
    30   6 C        2.922    -0.033    28.823     8.804
    31   6 C        2.923    -0.027    28.682     8.783
    32   6 C        2.973    -0.012    28.314     8.728
    33   6 C        1.909     0.113    28.325     8.595
    34   7 N        0.911    -0.230    26.025     7.378
    35   1 H        0.925     0.066     2.131     2.283
    36   1 H        0.925     0.066     2.132     2.283
    37   1 H        0.925     0.073     2.054     2.241
    38   1 H        0.925     0.073     2.054     2.241
    39   1 H        0.925     0.066     2.132     2.283
    40   1 H        0.925     0.066     2.132     2.283
    41   1 H        0.926     0.037     2.495     2.470
    42   1 H        0.926     0.051     2.311     2.377
    43   1 H        0.926     0.023     2.688     2.564
    44   1 H        0.926     0.030     2.589     2.516
    45   1 H        0.926     0.026     2.649     2.545
    46   1 H        0.926     0.029     2.601     2.522
    47   1 H        0.925     0.039     2.466     2.456
    48   1 H        0.925     0.031     2.576     2.510
    49   1 H        0.925     0.039     2.466     2.456
    50   1 H        0.925     0.031     2.576     2.510
    51   1 H        0.925     0.039     2.466     2.456
    52   1 H        0.925     0.039     2.466     2.456
    53   1 H        0.926     0.029     2.601     2.522
    54   1 H        0.926     0.026     2.649     2.545
    55   1 H        0.926     0.030     2.589     2.516
    56   1 H        0.926     0.023     2.688     2.564
    57   1 H        0.926     0.051     2.311     2.377
    58   1 H        0.926     0.037     2.495     2.470

molecular dipole:
                 x           y           z       tot (Debye)
 q only:        1.069       0.000      -0.000
   full:        1.201       0.000      -0.000       3.052

 projected vibrational frequencies (cm⁻¹)
eigval :       -0.00    -0.00     0.00     0.00     0.00     0.00
eigval :      -46.20     0.12    15.31    20.62    38.71    52.90
eigval :       52.93    54.31    55.81    67.05    90.00    91.22
eigval :       98.22   103.85   129.34   135.00   141.46   188.30
eigval :      189.97   195.10   213.57   219.91   222.17   231.25
eigval :      255.71   267.92   294.38   303.52   330.65   344.01
eigval :      344.37   365.94   376.09   390.96   394.00   398.69
eigval :      403.36   420.64   450.30   474.81   479.59   487.25
eigval :      493.70   506.37   512.13   515.50   547.54   556.40
eigval :      578.96   580.16   591.33   611.95   620.54   622.11
eigval :      632.46   660.60   675.14   681.92   692.80   699.32
eigval :      718.71   738.53   777.32   778.73   803.97   826.08
eigval :      863.05   866.71   866.74   868.72   876.25   909.18
eigval :      913.24   914.07   918.96   921.73   921.80   923.29
eigval :      928.84   939.23   957.00   988.85  1008.99  1014.29
eigval :     1022.53  1023.41  1036.01  1077.46  1086.52  1113.02
eigval :     1114.26  1118.62  1130.06  1141.40  1156.93  1160.70
eigval :     1173.64  1184.55  1187.17  1187.58  1209.01  1244.57
eigval :     1249.90  1264.06  1266.11  1268.79  1269.64  1294.72
eigval :     1302.02  1322.09  1325.46  1335.36  1346.33  1355.31
eigval :     1390.55  1394.06  1399.54  1402.48  1410.44  1420.30
eigval :     1421.35  1436.79  1444.73  1450.75  1454.67  1455.56
eigval :     1461.33  1482.02  1489.98  1490.33  1491.05  1499.76
eigval :     1500.77  1505.69  1520.79  1540.05  1564.18  1576.08
eigval :     1590.88  1593.23  1598.97  1603.86  2369.09  2373.54
eigval :     3007.87  3008.38  3022.42  3022.43  3026.24  3028.42
eigval :     3038.84  3041.53  3047.70  3051.57  3066.53  3067.16
eigval :     3078.33  3078.53  3079.33  3080.88  3083.20  3083.29
eigval :     3091.82  3092.15  3098.90  3099.14  3099.26  3100.30

   temp. (K)  partition function   enthalpy   heat capacity  entropy
                                   cal/mol     cal/K/mol   cal/K/mol   J/K/mol
 298.15  VIB  0.203E+13            16795.296    104.598    104.550
         ROT  0.140E+08              888.752      2.981     35.682
         INT  0.285E+20            17684.048    107.579    140.232
         TR   0.895E+28             1481.254      4.968     44.118
         TOT                       19165.3020   112.5471   184.3503   771.3217

       T/K    H(0)-H(T)+PV         H(T)/Eh          T*S/Eh         G(T)/Eh
   ------------------------------------------------------------------------
    298.15    0.305419E-01    0.479812E+00    0.875908E-01    0.392221E+00
   ------------------------------------------------------------------------

         :::::::::::::::::::::::::::::::::::::::::::::::::::::
         ::                  THERMODYNAMIC                  ::
         :::::::::::::::::::::::::::::::::::::::::::::::::::::
         :: total free energy         -87.748944188033 Eh   ::
         ::.................................................::
         :: total energy              -88.141165129187 Eh   ::
         :: zero point energy           0.449269869732 Eh   ::
         :: G(RRHO) w/o ZPVE           -0.057048928579 Eh   ::
         :: G(RRHO) contrib.            0.392220941154 Eh   ::
         :::::::::::::::::::::::::::::::::::::::::::::::::::::

           -------------------------------------------------
          | TOTAL ENERGY              -88.141165129187 Eh   |
          | TOTAL ENTHALPY            -87.661353406704 Eh   |
          | TOTAL FREE ENERGY         -87.748944188033 Eh   |
          | GRADIENT NORM               0.000087778899 Eh/α |
          | HOMO-LUMO GAP               1.163734789245 eV   |
           -------------------------------------------------

 * finished run on 2025/09/09 at 05:27:02.777
