   * xtb version 6.7.1 (edcfbbe) compiled by 'albert@albert-system' on 2024-07-22

   ID    Z sym.   atoms
    1    6 C      1, 2, 4-7, 9-13, 15-33
    2    7 N      3, 8, 14, 34
    3    1 H      35-58

          program call               : xtb data2507/gas/Me-DMAC/Me-DMAC_gas_T1_crest.xyz --gfn 2 --spinpol --tblite --uhf 2 --ohess vtight --parallel 40 --molden --ceasefiles --namespace data2507/gas/Me-DMAC/Me-DMAC_gas_T1_finalOpt
 * total energy  :   -88.0615283 Eh     change        0.6554785E-08 Eh
 * total energy  :   -88.0615440 Eh     change       -0.1574652E-04 Eh
 * total energy  :   -88.0615471 Eh     change       -0.3092618E-05 Eh
 * total energy  :   -88.0615477 Eh     change       -0.5317417E-06 Eh
 * total energy  :   -88.0615521 Eh     change       -0.4470581E-05 Eh
 * total energy  :   -88.0615525 Eh     change       -0.3826814E-06 Eh
 * total energy  :   -88.0615530 Eh     change       -0.5288731E-06 Eh
 * total energy  :   -88.0615539 Eh     change       -0.8344629E-06 Eh
 * total energy  :   -88.0615543 Eh     change       -0.4425678E-06 Eh
 * total energy  :   -88.0615549 Eh     change       -0.5593954E-06 Eh
 * total energy  :   -88.0615557 Eh     change       -0.1246511E-06 Eh
 * total energy  :   -88.0615559 Eh     change       -0.2124554E-06 Eh
 * total energy  :   -88.0615561 Eh     change       -0.2053118E-06 Eh
 * total energy  :   -88.0615563 Eh     change       -0.1233173E-06 Eh
 * total energy  :   -88.0615564 Eh     change       -0.1872449E-06 Eh
 * total energy  :   -88.0615566 Eh     change       -0.1909075E-06 Eh
 * total energy  :   -88.0615569 Eh     change       -0.2458941E-06 Eh
 * total energy  :   -88.0615571 Eh     change       -0.1777277E-06 Eh
 * total energy  :   -88.0615571 Eh     change       -0.6558952E-07 Eh
   *** GEOMETRY OPTIMIZATION CONVERGED AFTER 21 ITERATIONS ***

 final structure:
================
58
 xtb: 6.7.1 (edcfbbe)
C            6.51259439250270        2.27646841157792       -0.76606503486469
C            5.67509660160959        1.09772431772758       -0.38300687536576
N            6.32490293595110        0.00306153432104       -0.00037780037658
C            5.67755923287214       -1.09399608554379        0.37952280365891
C            6.51777461071034       -2.26969471949398        0.76594751790540
C            4.28838027700558       -1.14681107410560        0.40101124264560
C            3.71684422629885       -2.38987647963712        0.70177322079038
N            3.31859640382568       -3.44843166883580        0.92381094323488
C            3.50904577771987       -0.00186675944983       -0.00557096995178
C            2.09116380742912       -0.00347593628400       -0.00635464724189
C            1.34302040883091       -0.79691576505995        0.90857843543432
C           -0.02194609334532       -0.79928793034883        0.90577881817763
C           -0.73766537068879       -0.00215608854251       -0.00419694720272
N           -2.14904484552509        0.00042528389095       -0.00128849880958
C           -2.82023973373099        1.17214561992344        0.29253232965396
C           -2.09288207951678        2.31689439676103        0.65652306593727
C           -2.73100758144600        3.50708734285401        0.91838242646815
C           -4.11366513018156        3.58081263098674        0.84274432810847
C           -4.83905331702032        2.44346884958212        0.53937454554693
C           -4.22336117207536        1.22861474756350        0.27133461747512
C           -5.07271354571910        0.00547893272550        0.00718322429106
C           -5.95695570945492        0.26626744380013       -1.22758405826836
C           -5.95093433686619       -0.25218920553139        1.24688825573601
C           -4.22914104584572       -1.22060078698275       -0.26177249717667
C           -4.85047428577913       -2.43341544860159       -0.52596651086969
C           -4.13068318135293       -3.57323451539699       -0.83337795050446
C           -2.74825088240213       -3.50416128888405       -0.91727080045464
C           -2.10459614137905       -2.31608216716959       -0.65937320727183
C           -2.82598357553626       -1.16889532549235       -0.29120602068121
C           -0.02263464446088        0.79302047355102       -0.91638374470274
C            1.34231673375588        0.78911347623996       -0.92147374842741
C            4.28582695376834        1.14555706808497       -0.41002458084384
C            3.71130718827973        2.38653173221680       -0.71376669761119
N            3.31066442946478        3.44373056537340       -0.93796286905539
H            6.29285583401798        3.12509649115649       -0.11926544745179
H            6.29950785849351        2.57949638197292       -1.79039204441733
H            7.56407194476838        2.01779463001384       -0.67707965041201
H            6.30382567250806       -3.11909137525788        0.11822719766452
H            7.56865629510150       -2.00715691155753        0.68133917035739
H            6.30156335569168       -2.57352987595957        1.78938417272659
H            1.86399145742746       -1.36812647850277        1.65962505322375
H           -0.56828351050322       -1.38106441264297        1.63441752585950
H           -1.01992372103917        2.26089749472561        0.74099897812390
H           -2.15063337303723        4.37548197444145        1.18829826518217
H           -4.62394467271134        4.51086591840133        1.03928246079959
H           -5.91584704914608        2.50934658244236        0.51666264010001
H           -6.59481436732687       -0.58807801969382       -1.43420088092909
H           -5.33194759484871        0.44751785603466       -2.09983271481849
H           -6.59068545076932        1.13449521495760       -1.07256868320617
H           -6.58506484676309        0.60415214153829        1.45668832220846
H           -5.32169327065913       -0.43500662686978        2.11576069228113
H           -6.58814941888267       -1.11853736172589        1.09570759830164
H           -5.92733211163544       -2.49569073765239       -0.49688461279533
H           -4.64523049778346       -4.50162295603654       -1.02663951959895
H           -2.17245470958123       -4.37456297352533       -1.19051419711356
H           -1.03197085509687       -2.26351223966676       -0.75022036232563
H           -0.56958256369642        1.37494222474206       -1.64444926453303
H            1.86272798887367        1.35886778484349       -1.67401606481099

 projected vibrational frequencies (cm⁻¹)
eigval :       -0.00    -0.00     0.00     0.00     0.00     0.00
eigval :       17.34    19.08    19.40    29.28    46.27    47.52
eigval :       58.78    69.54    69.81    72.69   100.23   100.93
eigval :      115.55   127.38   143.14   157.36   164.09   176.76
eigval :      191.51   212.02   214.15   216.32   237.76   242.06
eigval :      261.83   290.81   300.19   303.12   327.81   332.30
eigval :      342.67   374.79   386.01   389.86   393.19   395.14
eigval :      401.72   411.97   444.13   452.90   453.15   458.53
eigval :      461.86   488.26   503.22   510.29   527.25   543.53
eigval :      554.57   575.93   577.61   584.24   602.11   619.80
eigval :      624.18   637.42   639.12   661.85   667.23   688.77
eigval :      703.06   732.02   775.39   777.20   794.31   826.27
eigval :      828.57   857.50   872.95   874.04   880.67   897.12
eigval :      905.05   910.77   910.93   917.24   917.83   925.32
eigval :      925.35   937.11   958.50   974.18   991.43  1002.46
eigval :     1013.44  1013.87  1021.96  1074.54  1082.38  1088.99
eigval :     1107.82  1109.51  1112.47  1138.27  1142.05  1149.52
eigval :     1167.07  1183.67  1183.75  1185.11  1210.59  1214.55
eigval :     1240.01  1240.58  1254.88  1260.08  1262.93  1294.61
eigval :     1295.49  1300.08  1322.06  1328.37  1331.63  1335.25
eigval :     1340.86  1378.98  1393.90  1394.82  1402.00  1402.42
eigval :     1411.30  1419.49  1420.64  1426.94  1453.40  1453.77
eigval :     1461.03  1462.74  1463.77  1465.98  1466.58  1472.92
eigval :     1486.20  1486.94  1497.01  1497.25  1500.51  1545.88
eigval :     1548.76  1563.21  1574.80  1586.48  2285.12  2308.18
eigval :     3006.52  3007.03  3021.41  3021.50  3031.35  3032.91
eigval :     3046.80  3049.14  3055.15  3055.69  3056.38  3058.71
eigval :     3073.97  3075.60  3089.13  3089.32  3096.44  3096.52
eigval :     3104.99  3105.12  3112.66  3113.84  3117.90  3118.10

   temp. (K)  partition function   enthalpy   heat capacity  entropy
                                   cal/mol     cal/K/mol   cal/K/mol   J/K/mol
 298.15  VIB  0.451E+14            17869.709    108.641    111.621
         ROT  0.144E+08              888.752      2.981     35.739
         INT  0.650E+21            18758.461    111.622    147.359
         TR   0.895E+28             1481.254      4.968     44.118
         TOT                       20239.7152   116.5899   191.4774   801.1414

       T/K    H(0)-H(T)+PV         H(T)/Eh          T*S/Eh         G(T)/Eh
   ------------------------------------------------------------------------
    298.15    0.322540E-01    0.478787E+00    0.909771E-01    0.387810E+00
   ------------------------------------------------------------------------

         :::::::::::::::::::::::::::::::::::::::::::::::::::::
         ::                  THERMODYNAMIC                  ::
         :::::::::::::::::::::::::::::::::::::::::::::::::::::
         :: total free energy         -87.673747459024 Eh   ::
         ::.................................................::
         :: total energy              -88.061557173167 Eh   ::
         :: zero point energy           0.446532756718 Eh   ::
         :: G(RRHO) w/o ZPVE           -0.058723042575 Eh   ::
         :: G(RRHO) contrib.            0.387809714143 Eh   ::
         :::::::::::::::::::::::::::::::::::::::::::::::::::::

           -------------------------------------------------
          | TOTAL ENERGY              -88.061557173167 Eh   |
          | TOTAL ENTHALPY            -87.582770377232 Eh   |
          | TOTAL FREE ENERGY         -87.673747459024 Eh   |
          | GRADIENT NORM               0.000086127177 Eh/α |
           -------------------------------------------------

 * finished run on 2025/09/09 at 05:31:24.270
