   * xtb version 6.7.1 (edcfbbe) compiled by 'albert@albert-system' on 2024-07-22

   ID    Z sym.   atoms
    1    6 C      1, 3-19, 21-26, 28-32, 34-37, 39-47, 49, 50
    2    8 O      2, 20, 33
    3    7 N      27, 48
    4   16 S      38
    5    1 H      51-80

          program call               : xtb data2507/toluene/MCZ-P2-DTM/MCZ-P2-DTM_toluene_T1_crest.xyz --gfn 2 --uhf 2 --gbsa toluene --ohess vtight --parallel 40 --molden --ceasefiles --namespace data2507/toluene/MCZ-P2-DTM/MCZ-P2-DTM_toluene_T1_finalOpt
      * Solvation model:               GBSA
        Solvent                        toluene
        Solvent mass                       9.2140E+01 g/mol
          :  Hamiltonian                  GFN2-xTB          :
 * total energy  :  -130.8400950 Eh     change       -0.7068763E-08 Eh
 * total energy  :  -130.8402545 Eh     change       -0.1594770E-03 Eh
 * total energy  :  -130.8402989 Eh     change       -0.4441038E-04 Eh
 * total energy  :  -130.8403084 Eh     change       -0.9492710E-05 Eh
 * total energy  :  -130.8403165 Eh     change       -0.8078051E-05 Eh
 * total energy  :  -130.8403273 Eh     change       -0.1079658E-04 Eh
 * total energy  :  -130.8403403 Eh     change       -0.1309224E-04 Eh
 * total energy  :  -130.8403523 Eh     change       -0.1196527E-04 Eh
 * total energy  :  -130.8403612 Eh     change       -0.8908083E-05 Eh
 * total energy  :  -130.8403677 Eh     change       -0.6486056E-05 Eh
 * total energy  :  -130.8404384 Eh     change       -0.2783576E-05 Eh
 * total energy  :  -130.8404412 Eh     change       -0.2744605E-05 Eh
 * total energy  :  -130.8404438 Eh     change       -0.2605487E-05 Eh
 * total energy  :  -130.8404461 Eh     change       -0.2367120E-05 Eh
 * total energy  :  -130.8404480 Eh     change       -0.1859316E-05 Eh
 * total energy  :  -130.8404493 Eh     change       -0.1327996E-05 Eh
 * total energy  :  -130.8404503 Eh     change       -0.9409249E-06 Eh
 * total energy  :  -130.8404510 Eh     change       -0.7338337E-06 Eh
 * total energy  :  -130.8404510 Eh     change       -0.4884924E-08 Eh
   *** GEOMETRY OPTIMIZATION CONVERGED AFTER 44 ITERATIONS ***

 final structure:
================
80
 xtb: 6.7.1 (edcfbbe)
C           -9.28549454472698        6.05867512377832       -2.18221705910344
O           -9.18094978516633        4.90395786969120       -1.37557726920879
C           -7.95245880684248        4.39519541333779       -1.11005602544917
C           -6.74775940852605        4.91673590610906       -1.57904420255458
C           -5.55342979191626        4.31474748882486       -1.23529382365642
C           -5.51457015074155        3.17460751681370       -0.43116064348773
C           -4.24764089807261        2.53569690356256       -0.07840770685556
C           -3.09567643702702        3.30746446043512        0.14910424981364
C           -1.88662900130272        2.74162258855702        0.49498921490012
C           -1.81872992348821        1.35727512408821        0.62112382944862
C           -2.95974890862308        0.55780990808398        0.34909366034569
C           -4.16456910801838        1.14254915295925        0.01749065902394
C           -2.53534899401667       -0.81359996808355        0.48377361475090
C           -3.18122860662093       -2.02386965405537        0.33632186753260
C           -2.46463483734875       -3.21025659526087        0.53099691663958
C           -3.12416663459152       -4.50438437974779        0.37224794905294
C           -2.44402710421428       -5.59887544869584       -0.16612798481234
C           -3.06029590050855       -6.82297591644025       -0.33098132746700
C           -4.38835140730389       -6.99392218065091        0.05868414112616
O           -5.09137451627711       -8.14710985253186       -0.04803419550110
C           -4.45907329457950       -9.29005975970428       -0.58616718865092
C           -5.07799832154743       -5.90523324785747        0.60703078365195
C           -4.45981083685597       -4.68680792272012        0.75296394707247
C           -1.10521583790702       -3.14417058407525        0.88546686396711
C           -0.44772788826727       -1.94490641555444        1.05283472616682
C           -1.16255280889793       -0.77162929648675        0.83652771121093
N           -0.75085593591562        0.54016331659990        0.92850560812047
C            0.52199035179810        0.94813302762453        1.31301396064738
C            0.72311176469251        2.04465160829411        2.17227591085803
C            2.00365873811948        2.38494928403293        2.51092214353018
C            3.11060504093488        1.65690031007718        1.99211636288088
C            4.45439984174739        2.01525055472068        2.36011580116811
O            4.65479005340406        2.78255026104724        3.34836206688454
C            5.59200167790194        1.46466275448701        1.61570770531615
C            6.80229174598232        1.25666006472771        2.30400844691330
C            7.92093415515490        0.77408780650243        1.66557539601328
C            7.84431522017517        0.50483287722654        0.30565970422403
S            9.14114671725639       -0.10659518476208       -0.69803054991068
C            8.10563651750612       -0.05418524310842       -2.11236243038461
C            8.46980623634205       -0.42281101672805       -3.39706296087415
C            7.52681654273684       -0.32169231086456       -4.40294405527751
C            6.24265085028152        0.13847834652841       -4.12891377768142
C            5.88212142283410        0.50549576660907       -2.84720431829913
C            6.81460745400242        0.41588641926363       -1.81813776955484
C            6.66086163818389        0.73729627932201       -0.41971050563158
C            5.54284144357872        1.22319242153068        0.24099492723336
C            2.77477975087150        0.51362991278741        1.22374156129174
N            1.55453636250588        0.19906183075924        0.89548332107092
C           -6.73199715532151        2.65554187049717        0.02674524710306
C           -7.92514185422167        3.25551955925831       -0.29745554699448
H           -8.88810639780641        5.88064508825851       -3.18565860249893
H           -8.77052513955671        6.90994958064077       -1.72755028530746
H          -10.35090273622791        6.27291848716997       -2.24755862873937
H           -6.73186838452915        5.78791187555255       -2.21449796053422
H           -4.63429661933758        4.72305092544318       -1.62750184903401
H           -3.16223385448298        4.38158783776564        0.07153456745193
H           -1.01773631017523        3.36212129284899        0.64821864870373
H           -5.02325723013076        0.52879272795376       -0.20406594477818
H           -4.21799914899247       -2.05533884925107        0.04092022487988
H           -1.42191542132417       -5.48231884098768       -0.49317481414920
H           -2.50183667166482       -7.63684402984611       -0.76524128231366
H           -4.13895674397240       -9.11903265544458       -1.61803297477344
H           -5.21199868105092      -10.07614066559581       -0.56630762504406
H           -3.60086595638927       -9.59307976206026        0.02046065594590
H           -6.10212742667179       -6.05231141945915        0.91317079108356
H           -5.00503436214048       -3.86910308606446        1.19859789670723
H           -0.56806037408216       -4.06191783289882        1.06757216442832
H            0.59098500746569       -1.90815024737016        1.33950486024399
H           -0.12265261979674        2.56253393557402        2.59714158341690
H            2.20460016538600        3.20727192576170        3.18126761642535
H            6.82746280890812        1.48326644563842        3.36004055943139
H            8.84038690006654        0.60783485895948        2.20622004895930
H            9.46776668200861       -0.77994468993007       -3.59899560274425
H            7.79149988224848       -0.60375438981962       -5.41096043328279
H            5.52018875405152        0.20876425898648       -4.92835851948238
H            4.88489303321094        0.86146149505712       -2.63637772103044
H            4.64789607298103        1.44853430918282       -0.31878551357902
H            3.54111987182993       -0.16858379002797        0.88143531666816
H           -6.73511437331916        1.79030691940953        0.67175496407630
H           -8.86328931687855        2.86630536928293        0.06672971856046

          :  Hamiltonian                  GFN2-xTB          :
         :: gradient norm              0.000052962905 Eh/a0 ::
         :: HOMO-LUMO gap              0.693773868283 eV    ::
         :: SCC energy              -133.027002557237 Eh    ::
         :: -> dispersion             -0.105370369775 Eh    ::
         :: -> Gsolv                  -0.072037906984 Eh    ::
         :: repulsion energy           2.186551546009 Eh    ::

    * Orbital Energies and Occupations

         #    Occupation            Energy/Eh            Energy/eV
      -------------------------------------------------------------
         1        2.0000           -0.7278392             -19.8055
       ...           ...                  ...                  ...
       109        2.0000           -0.4164427             -11.3320
       110        2.0000           -0.4160541             -11.3214
       111        2.0000           -0.4149278             -11.2908
       112        2.0000           -0.4116420             -11.2014
       113        2.0000           -0.3986599             -10.8481
       114        2.0000           -0.3944654             -10.7339
       115        2.0000           -0.3888022             -10.5798
       116        2.0000           -0.3846095             -10.4658
       117        2.0000           -0.3808455             -10.3633
       118        1.9803           -0.3734127             -10.1611
       119        1.8840           -0.3716300             -10.1126
       120        1.1358           -0.3679424             -10.0122
       121        1.0000           -0.2852276              -7.7614 (HOMO)
       122        0.0000           -0.2597322              -7.0677 (LUMO)
       123        0.0000           -0.2578108              -7.0154
       124                         -0.2560217              -6.9667
       125                         -0.2485709              -6.7640
       126                         -0.2431127              -6.6154
       127                         -0.2349553              -6.3935
       128                         -0.2324916              -6.3264
       129                         -0.2323104              -6.3215
       130                         -0.2295045              -6.2451
       131                         -0.2155924              -5.8666
       132                         -0.2070888              -5.6352
       ...                                ...                  ...
       235                          0.7345696              19.9887
      -------------------------------------------------------------
                  HL-Gap            0.0254954 Eh            0.6938 eV

     #   Z          covCN         q      C6AA      α(0)
     1   6 C        3.642     0.031    20.403     6.494
     2   8 O        1.705    -0.271    18.486     5.805
     3   6 C        2.864     0.148    24.782     8.160
     4   6 C        2.914    -0.064    29.603     8.922
     5   6 C        2.924    -0.032    28.798     8.800
     6   6 C        2.975     0.006    27.875     8.660
     7   6 C        2.975     0.015    27.670     8.628
     8   6 C        2.926    -0.037    28.911     8.818
     9   6 C        2.907    -0.040    28.997     8.830
    10   6 C        3.070     0.043    26.963     8.514
    11   6 C        3.060    -0.008    28.169     8.704
    12   6 C        2.916    -0.031    28.781     8.797
    13   6 C        3.058    -0.009    28.178     8.705
    14   6 C        2.916    -0.031    28.777     8.797
    15   6 C        2.975     0.017    27.633     8.623
    16   6 C        2.975     0.008    27.840     8.655
    17   6 C        2.924    -0.031    28.777     8.797
    18   6 C        2.914    -0.064    29.588     8.920
    19   6 C        2.864     0.149    24.758     8.156
    20   8 O        1.705    -0.268    18.439     5.798
    21   6 C        3.642     0.030    20.417     6.496
    22   6 C        2.917    -0.052    29.296     8.876
    23   6 C        2.923    -0.031    28.764     8.795
    24   6 C        2.927    -0.036    28.886     8.814
    25   6 C        2.907    -0.035    28.880     8.812
    26   6 C        3.076     0.049    26.812     8.490
    27   7 N        2.801    -0.002    21.302     6.855
    28   6 C        2.890     0.113    25.498     8.279
    29   6 C        2.908    -0.055    29.357     8.884
    30   6 C        2.928    -0.022    28.563     8.765
    31   6 C        2.962    -0.036    28.883     8.815
    32   6 C        2.831     0.169    24.363     8.088
    33   8 O        0.858    -0.521    24.254     6.603
    34   6 C        2.968    -0.020    28.495     8.756
    35   6 C        2.928    -0.029    28.720     8.789
    36   6 C        2.931    -0.041    29.023     8.835
    37   6 C        3.002     0.031    27.298     8.571
    38  16 S        2.205    -0.101   145.283    20.287
    39   6 C        3.002     0.040    27.096     8.539
    40   6 C        2.935    -0.039    28.959     8.826
    41   6 C        2.923    -0.031    28.762     8.795
    42   6 C        2.918    -0.034    28.846     8.807
    43   6 C        2.917    -0.032    28.802     8.801
    44   6 C        3.102    -0.003    27.972     8.667
    45   6 C        3.098    -0.005    28.021     8.675
    46   6 C        2.919    -0.044    29.085     8.844
    47   6 C        2.892     0.051    26.857     8.497
    48   7 N        1.841    -0.231    26.897     7.686
    49   6 C        2.923    -0.031    28.780     8.798
    50   6 C        2.917    -0.053    29.307     8.877
    51   1 H        0.924     0.053     2.284     2.363
    52   1 H        0.924     0.052     2.290     2.367
    53   1 H        0.925     0.071     2.078     2.254
    54   1 H        0.926     0.048     2.342     2.393
    55   1 H        0.926     0.047     2.351     2.398
    56   1 H        0.926     0.049     2.328     2.386
    57   1 H        0.926     0.043     2.410     2.428
    58   1 H        0.926     0.057     2.235     2.338
    59   1 H        0.926     0.058     2.227     2.334
    60   1 H        0.926     0.050     2.323     2.383
    61   1 H        0.926     0.050     2.323     2.383
    62   1 H        0.924     0.054     2.272     2.357
    63   1 H        0.925     0.071     2.070     2.250
    64   1 H        0.924     0.053     2.277     2.360
    65   1 H        0.926     0.053     2.278     2.360
    66   1 H        0.926     0.053     2.287     2.365
    67   1 H        0.926     0.051     2.309     2.376
    68   1 H        0.926     0.054     2.270     2.356
    69   1 H        0.926     0.043     2.403     2.424
    70   1 H        0.926     0.038     2.470     2.458
    71   1 H        0.926     0.035     2.516     2.481
    72   1 H        0.926     0.038     2.473     2.459
    73   1 H        0.926     0.044     2.396     2.421
    74   1 H        0.926     0.044     2.396     2.421
    75   1 H        0.926     0.042     2.426     2.436
    76   1 H        0.926     0.039     2.463     2.454
    77   1 H        0.926     0.034     2.526     2.485
    78   1 H        0.925     0.038     2.471     2.458
    79   1 H        0.926     0.052     2.299     2.371
    80   1 H        0.926     0.052     2.291     2.367

molecular dipole:
                 x           y           z       tot (Debye)
 q only:       -7.043      -2.693      -3.338
   full:       -6.812      -2.292      -3.184      19.980

 projected vibrational frequencies (cm⁻¹)
eigval :       -0.00    -0.00    -0.00    -0.00     0.00     0.00
eigval :        5.55    10.27    17.82    21.50    27.61    29.70
eigval :       33.74    44.41    48.02    60.29    64.67    72.55
eigval :       82.09    97.17   101.75   111.02   115.12   118.54
eigval :      121.50   135.26   143.01   152.97   172.16   180.68
eigval :      192.05   206.27   213.65   227.67   231.45   231.75
eigval :      251.26   259.36   261.52   264.09   270.91   279.20
eigval :      294.24   313.72   345.28   366.50   374.20   376.91
eigval :      380.40   382.27   387.23   391.66   397.05   401.85
eigval :      407.43   411.80   423.00   423.52   435.66   439.74
eigval :      463.51   467.47   472.45   482.10   493.89   496.55
eigval :      507.19   515.30   525.67   532.54   566.81   573.31
eigval :      577.43   585.57   594.31   600.32   602.34   608.07
eigval :      615.16   620.18   629.96   656.52   659.40   669.51
eigval :      675.26   687.65   689.82   696.10   696.68   697.98
eigval :      706.48   709.84   729.68   769.26   787.17   801.66
eigval :      805.66   808.03   808.82   813.07   819.71   831.94
eigval :      832.49   851.12   853.62   855.71   860.48   870.69
eigval :      874.09   878.79   894.30   900.53   902.88   905.29
eigval :      907.45   907.89   909.78   913.73   915.61   919.85
eigval :      921.25   924.23   926.36   939.71   983.98   987.55
eigval :      994.33   996.22  1023.43  1040.70  1049.99  1050.82
eigval :     1061.04  1064.67  1075.14  1091.87  1113.26  1115.62
eigval :     1120.98  1125.27  1126.72  1132.90  1137.54  1151.99
eigval :     1152.77  1153.08  1154.12  1168.99  1172.84  1178.78
eigval :     1181.12  1189.50  1213.82  1215.47  1216.73  1225.09
eigval :     1234.17  1237.41  1239.29  1245.13  1249.31  1265.11
eigval :     1267.67  1269.27  1280.80  1282.61  1295.56  1300.59
eigval :     1320.95  1326.85  1333.10  1334.05  1337.71  1346.80
eigval :     1350.50  1361.83  1392.61  1394.22  1394.67  1396.51
eigval :     1405.15  1409.67  1413.74  1414.71  1423.23  1428.16
eigval :     1431.83  1442.41  1449.78  1460.72  1462.34  1463.04
eigval :     1463.84  1471.10  1471.57  1483.79  1485.80  1514.51
eigval :     1531.93  1536.83  1538.70  1542.13  1546.79  1549.59
eigval :     1560.82  1568.31  1574.27  1580.46  1587.36  1595.42
eigval :     2942.90  2944.74  2953.56  2955.05  3028.54  3028.62
eigval :     3054.25  3078.81  3080.76  3082.47  3084.12  3086.60
eigval :     3086.84  3088.30  3090.45  3090.90  3091.38  3091.83
eigval :     3093.26  3094.09  3096.73  3099.27  3100.59  3102.52
eigval :     3103.20  3103.65  3104.52  3106.61  3107.06  3109.66

   temp. (K)  partition function   enthalpy   heat capacity  entropy
                                   cal/mol     cal/K/mol   cal/K/mol   J/K/mol
 298.15  VIB  0.246E+20            24490.753    152.043    153.026
         ROT  0.191E+09              888.752      2.981     40.875
         INT  0.470E+28            25379.506    155.024    193.902
         TR   0.167E+29             1481.254      4.968     45.353
         TOT                       26860.7595   159.9923   239.2544  1001.0403

       T/K    H(0)-H(T)+PV         H(T)/Eh          T*S/Eh         G(T)/Eh
   ------------------------------------------------------------------------
    298.15    0.428053E-01    0.640910E+00    0.113677E+00    0.527233E+00
   ------------------------------------------------------------------------

         :::::::::::::::::::::::::::::::::::::::::::::::::::::
         ::                  THERMODYNAMIC                  ::
         :::::::::::::::::::::::::::::::::::::::::::::::::::::
         :: total free energy        -130.313218435834 Eh   ::
         ::.................................................::
         :: total energy             -130.840451009689 Eh   ::
         :: zero point energy           0.598104703559 Eh   ::
         :: G(RRHO) w/o ZPVE           -0.070872129703 Eh   ::
         :: G(RRHO) contrib.            0.527232573855 Eh   ::
         :::::::::::::::::::::::::::::::::::::::::::::::::::::

           -------------------------------------------------
          | TOTAL ENERGY             -130.840451009689 Eh   |
          | TOTAL ENTHALPY           -130.199540961125 Eh   |
          | TOTAL FREE ENERGY        -130.313218435834 Eh   |
          | GRADIENT NORM               0.000053022764 Eh/α |
          | HOMO-LUMO GAP               0.693765502236 eV   |
           -------------------------------------------------

 * finished run on 2025/08/24 at 07:11:21.576
