   * xtb version 6.7.1 (edcfbbe) compiled by 'albert@albert-system' on 2024-07-22

   ID    Z sym.   atoms
    1    6 C      1, 3-19, 21-26, 28-32, 34-37, 39-47, 49, 50
    2    8 O      2, 20, 33
    3    7 N      27, 48
    4   16 S      38
    5    1 H      51-80

          program call               : xtb data2507/toluene/MCZ-P2-DTM/MCZ-P2-DTM_toluene_S0_crest.xyz --gfn 2 --gbsa toluene --ohess vtight --parallel 40 --molden --ceasefiles --namespace data2507/toluene/MCZ-P2-DTM/MCZ-P2-DTM_toluene_S0_finalOpt
      * Solvation model:               GBSA
        Solvent                        toluene
        Solvent mass                       9.2140E+01 g/mol
          :  Hamiltonian                  GFN2-xTB          :
 * total energy  :  -130.9177188 Eh     change       -0.1636181E-08 Eh
 * total energy  :  -130.9177976 Eh     change       -0.7877088E-04 Eh
 * total energy  :  -130.9178206 Eh     change       -0.2304292E-04 Eh
 * total energy  :  -130.9178237 Eh     change       -0.3027998E-05 Eh
 * total energy  :  -130.9178264 Eh     change       -0.2692830E-05 Eh
 * total energy  :  -130.9178294 Eh     change       -0.3085825E-05 Eh
 * total energy  :  -130.9178327 Eh     change       -0.3284858E-05 Eh
 * total energy  :  -130.9178359 Eh     change       -0.3120755E-05 Eh
 * total energy  :  -130.9178387 Eh     change       -0.2826762E-05 Eh
 * total energy  :  -130.9178410 Eh     change       -0.2293844E-05 Eh
 * total energy  :  -130.9178465 Eh     change       -0.9507840E-06 Eh
 * total energy  :  -130.9178473 Eh     change       -0.8154563E-06 Eh
 * total energy  :  -130.9178480 Eh     change       -0.7224851E-06 Eh
 * total energy  :  -130.9178488 Eh     change       -0.7659255E-06 Eh
 * total energy  :  -130.9178496 Eh     change       -0.8419503E-06 Eh
 * total energy  :  -130.9178504 Eh     change       -0.8044159E-06 Eh
 * total energy  :  -130.9178510 Eh     change       -0.6106371E-06 Eh
 * total energy  :  -130.9178514 Eh     change       -0.3944704E-06 Eh
 * total energy  :  -130.9178514 Eh     change       -0.7954640E-08 Eh
   *** GEOMETRY OPTIMIZATION CONVERGED AFTER 22 ITERATIONS ***

 final structure:
================
80
 xtb: 6.7.1 (edcfbbe)
C           -4.00777987310512        8.95962838954731       -0.62249373188626
O           -2.87711810493445        8.42679757415451        0.03204238498657
C           -2.63899797835895        7.08583258521902       -0.06138611193196
C           -3.42383064184209        6.18082999402233       -0.76707790341658
C           -3.08246535818050        4.83998366536803       -0.78773715265064
C           -1.95945894913711        4.36431524890165       -0.11900520283148
C           -1.60979088671084        2.93620052752899       -0.14890089907895
C           -0.27130083799470        2.53967599297648       -0.26562268977477
C            0.10343892626878        1.21029964227794       -0.29715682454375
C           -0.89225544286263        0.25089064375579       -0.21047877323521
C           -2.24525058418828        0.62796885547354       -0.08709121091824
C           -2.60225486306312        1.96625062557238       -0.05830286225462
C           -3.01019235508706       -0.59015599068720       -0.01291162243435
C           -4.37055842670404       -0.83880947807723        0.06265237702008
C           -4.82342700448521       -2.15347606913611        0.06176812430200
C           -6.26076246816882       -2.45041413376080        0.15123752666305
C           -7.19443062842805       -1.68839020786853       -0.54287133543783
C           -8.54892602564362       -1.96205665647450       -0.47059119578200
C           -9.00309585098983       -3.01512552862553        0.31552742610886
O          -10.31054684222434       -3.37678686399165        0.46511948269238
C          -11.29920018016854       -2.64130384800398       -0.22243088951138
C           -8.07420996250477       -3.78333745103623        1.02037966453210
C           -6.72789750943167       -3.50658302934944        0.93474833722961
C           -3.89558707308550       -3.19590458133000       -0.05060033058126
C           -2.53500483364214       -2.96659305794255       -0.13038817207828
C           -2.08522782903856       -1.65534964276313       -0.07602272737800
N           -0.79597886199239       -1.13886861621924       -0.16822600105072
C            0.38573789560333       -1.84928502241622       -0.14560313840496
C            0.52586059840954       -3.02345358553379        0.61140288785686
C            1.74659044920861       -3.65688687282499        0.61627842013716
C            2.81605744626532       -3.11765091103713       -0.10952934780079
C            4.12284685708042       -3.80785522639716       -0.12094845701092
O            4.18925785157821       -5.02778763390140       -0.04234142921819
C            5.33328278358570       -2.96689645348550       -0.23554556456428
C            6.48568183524172       -3.53322316481537       -0.80094615713408
C            7.64966860116393       -2.80782738767558       -0.92414873392670
C            7.66716718444146       -1.49919287898857       -0.46060585599868
S            9.02983763322026       -0.41317013513045       -0.51535495197037
C            8.08767971093800        0.85202859989000        0.25397144371579
C            8.53715220367979        2.12642577775091        0.55799568136738
C            7.65782326752015        3.00582028841774        1.16133214582676
C            6.35354065434479        2.61872817119840        1.45602206843282
C            5.90802364336870        1.34811944347553        1.15288780274665
C            6.77591743044106        0.44384708586167        0.54607391895426
C            6.53092005659799       -0.91537551950666        0.13309593926632
C            5.36570535370991       -1.66161192511363        0.24393359525016
C            2.56136493499611       -1.95699181636538       -0.84065123004698
N            1.39703820355440       -1.34576360260747       -0.85410738031469
C           -1.17788220510850        5.28276147324657        0.58364548180129
C           -1.51097370666141        6.61859151016536        0.61592392232163
H           -4.93459391258420        8.52455321308973       -0.23604046908351
H           -3.95258352515372        8.80563338895588       -1.70457853681478
H           -3.99256324680538       10.02706872879719       -0.40813503189250
H           -4.29927837427099        6.50658591552944       -1.30661072398250
H           -3.69431405398772        4.15488880152692       -1.35613262413186
H            0.49081354773956        3.29916251530329       -0.35574166746862
H            1.13766053746307        0.92637812867821       -0.40201953458277
H           -3.63686896799375        2.25013208810096        0.05763267716939
H           -5.06887490883646       -0.01918095646736        0.13194418359809
H           -6.85848919007263       -0.87739439443870       -1.17231233971213
H           -9.23729288940642       -1.35121377807525       -1.03319550185354
H          -11.30545513458788       -1.59224508458647        0.08886852715850
H          -12.24697092208018       -3.10435013516557        0.04769945227468
H          -11.16087753278811       -2.70246711000724       -1.30630155093061
H           -8.43938820245772       -4.59455203724124        1.63155720204588
H           -6.02733576377188       -4.10357639644396        1.49964040849378
H           -4.25702640721159       -4.21193004754497       -0.10502067130759
H           -1.85776680211961       -3.79582389674966       -0.26342198909604
H           -0.28961605501847       -3.38917274896784        1.21272437608187
H            1.90872483807568       -4.55379064588137        1.19673917996544
H            6.43449678122412       -4.55490634106195       -1.14689528080095
H            8.53150514825679       -3.24271284463550       -1.36797932845096
H            9.54912485456225        2.41886327557100        0.32475606564374
H            7.98789899559947        4.00420471247859        1.40553601438536
H            5.68339624149399        3.32252277788742        1.92633110633406
H            4.89567033481179        1.05110609415960        1.38113302104666
H            4.50076570934361       -1.23272855327498        0.72589968257996
H            3.32262894548240       -1.50942023369835       -1.46685978212013
H           -0.31111298400366        4.94054559250031        1.12923308305672
H           -0.91241892987636        7.32979751652239        1.16443331925139

          :  Hamiltonian                  GFN2-xTB          :
         :: gradient norm              0.000068381205 Eh/a0 ::
         :: HOMO-LUMO gap              1.727906302756 eV    ::
         :: SCC energy              -133.119562822342 Eh    ::
         :: -> dispersion             -0.106004821086 Eh    ::
         :: -> Gsolv                  -0.059926783170 Eh    ::
         :: repulsion energy           2.201711396793 Eh    ::

    * Orbital Energies and Occupations

         #    Occupation            Energy/Eh            Energy/eV
      -------------------------------------------------------------
         1        2.0000           -0.7354207             -20.0118
       ...           ...                  ...                  ...
       108        2.0000           -0.4190273             -11.4023
       109        2.0000           -0.4148469             -11.2886
       110        2.0000           -0.4100732             -11.1587
       111        2.0000           -0.4066130             -11.0645
       112        2.0000           -0.4056875             -11.0393
       113        2.0000           -0.4052510             -11.0274
       114        2.0000           -0.4001816             -10.8895
       115        2.0000           -0.3899315             -10.6106
       116        2.0000           -0.3871541             -10.5350
       117        2.0000           -0.3848410             -10.4721
       118        2.0000           -0.3832289             -10.4282
       119        2.0000           -0.3726943             -10.1415
       120        2.0000           -0.3632916              -9.8857 (HOMO)
       121                         -0.2997922              -8.1578 (LUMO)
       122                         -0.2678506              -7.2886
       123                         -0.2631055              -7.1595
       124                         -0.2567618              -6.9868
       125                         -0.2478422              -6.7441
       126                         -0.2435034              -6.6261
       127                         -0.2372229              -6.4552
       128                         -0.2297564              -6.2520
       129                         -0.2241976              -6.1007
       130                         -0.2230215              -6.0687
       131                         -0.2148483              -5.8463
       ...                                ...                  ...
       235                          0.7419072              20.1883
      -------------------------------------------------------------
                  HL-Gap            0.0634994 Eh            1.7279 eV

     #   Z          covCN         q      C6AA      α(0)
     1   6 C        3.642     0.036    20.310     6.479
     2   8 O        1.705    -0.291    18.833     5.859
     3   6 C        2.864     0.139    24.964     8.190
     4   6 C        2.915    -0.068    29.696     8.936
     5   6 C        2.926    -0.037    28.916     8.819
     6   6 C        2.975    -0.001    28.040     8.686
     7   6 C        2.975     0.005    27.912     8.666
     8   6 C        2.929    -0.038    28.934     8.821
     9   6 C        2.909    -0.047    29.160     8.855
    10   6 C        3.063     0.049    26.832     8.494
    11   6 C        3.060    -0.014    28.291     8.723
    12   6 C        2.918    -0.039    28.970     8.826
    13   6 C        3.062    -0.012    28.249     8.716
    14   6 C        2.918    -0.038    28.952     8.824
    15   6 C        2.976     0.005    27.907     8.665
    16   6 C        2.975    -0.001    28.049     8.687
    17   6 C        2.926    -0.037    28.914     8.818
    18   6 C        2.916    -0.068    29.694     8.936
    19   6 C        2.864     0.139    24.957     8.189
    20   8 O        1.705    -0.290    18.827     5.858
    21   6 C        3.642     0.036    20.314     6.480
    22   6 C        2.918    -0.057    29.404     8.892
    23   6 C        2.925    -0.035    28.875     8.812
    24   6 C        2.928    -0.038    28.949     8.824
    25   6 C        2.909    -0.051    29.257     8.869
    26   6 C        3.058     0.043    26.984     8.519
    27   7 N        2.802    -0.037    21.953     6.959
    28   6 C        2.895     0.156    24.632     8.137
    29   6 C        2.913    -0.058    29.453     8.899
    30   6 C        2.931    -0.003    28.107     8.695
    31   6 C        2.966    -0.033    28.812     8.804
    32   6 C        2.828     0.224    23.298     7.909
    33   8 O        0.858    -0.425    22.191     6.316
    34   6 C        2.970    -0.022    28.545     8.764
    35   6 C        2.927    -0.020    28.502     8.755
    36   6 C        2.933    -0.036    28.905     8.817
    37   6 C        3.002     0.043    27.026     8.528
    38  16 S        2.211    -0.072   144.043    20.200
    39   6 C        3.003     0.039    27.118     8.542
    40   6 C        2.934    -0.037    28.915     8.819
    41   6 C        2.923    -0.027    28.686     8.783
    42   6 C        2.918    -0.032    28.794     8.799
    43   6 C        2.917    -0.030    28.752     8.793
    44   6 C        3.102    -0.002    27.954     8.664
    45   6 C        3.105     0.001    27.879     8.652
    46   6 C        2.919    -0.030    28.753     8.793
    47   6 C        2.902     0.064    26.573     8.452
    48   7 N        1.845    -0.246    27.269     7.739
    49   6 C        2.925    -0.035    28.878     8.813
    50   6 C        2.918    -0.057    29.406     8.893
    51   1 H        0.924     0.046     2.370     2.408
    52   1 H        0.924     0.046     2.369     2.407
    53   1 H        0.925     0.065     2.138     2.287
    54   1 H        0.926     0.040     2.453     2.449
    55   1 H        0.926     0.039     2.461     2.453
    56   1 H        0.926     0.041     2.431     2.438
    57   1 H        0.926     0.048     2.343     2.394
    58   1 H        0.926     0.041     2.436     2.441
    59   1 H        0.926     0.042     2.417     2.431
    60   1 H        0.926     0.040     2.455     2.450
    61   1 H        0.926     0.040     2.444     2.445
    62   1 H        0.924     0.047     2.364     2.405
    63   1 H        0.925     0.066     2.135     2.285
    64   1 H        0.924     0.046     2.367     2.406
    65   1 H        0.926     0.043     2.414     2.430
    66   1 H        0.926     0.040     2.448     2.447
    67   1 H        0.926     0.040     2.452     2.449
    68   1 H        0.926     0.034     2.527     2.486
    69   1 H        0.926     0.058     2.219     2.329
    70   1 H        0.926     0.054     2.264     2.353
    71   1 H        0.926     0.053     2.278     2.360
    72   1 H        0.926     0.054     2.276     2.359
    73   1 H        0.926     0.047     2.354     2.399
    74   1 H        0.926     0.047     2.356     2.400
    75   1 H        0.926     0.045     2.381     2.413
    76   1 H        0.926     0.043     2.406     2.426
    77   1 H        0.926     0.047     2.357     2.401
    78   1 H        0.925     0.049     2.339     2.391
    79   1 H        0.926     0.041     2.438     2.442
    80   1 H        0.926     0.043     2.414     2.430

molecular dipole:
                 x           y           z       tot (Debye)
 q only:       -1.228       2.395      -0.150
   full:       -1.418       2.110      -0.095       6.467

 projected vibrational frequencies (cm⁻¹)
eigval :       -0.00    -0.00     0.00     0.00     0.00     0.00
eigval :        7.80     8.86    13.60    22.98    23.94    26.36
eigval :       32.84    37.67    49.99    53.09    61.93    65.69
eigval :       88.46    89.63    95.67   103.26   110.05   117.79
eigval :      119.91   135.72   140.70   158.79   170.30   189.80
eigval :      193.47   199.72   219.34   229.15   233.31   236.65
eigval :      241.07   243.04   263.74   267.43   279.69   286.83
eigval :      295.59   309.10   347.85   378.73   381.61   383.20
eigval :      385.88   390.32   394.63   396.00   399.67   406.82
eigval :      414.36   419.93   429.63   432.90   440.39   450.12
eigval :      456.47   473.12   474.90   483.74   490.57   505.53
eigval :      517.72   524.01   540.69   547.22   570.45   576.09
eigval :      582.91   589.08   600.18   603.06   611.62   618.01
eigval :      625.49   634.26   651.69   675.46   676.04   687.20
eigval :      691.34   694.44   696.05   698.40   707.06   712.19
eigval :      714.72   732.30   743.32   773.84   785.36   802.41
eigval :      802.80   813.16   817.20   824.00   829.69   831.09
eigval :      839.92   860.77   862.01   871.58   872.84   874.59
eigval :      876.02   878.05   904.56   906.41   907.68   907.83
eigval :      909.77   910.39   912.38   917.28   922.82   923.98
eigval :      924.81   926.10   934.58   957.53   988.37   999.05
eigval :     1001.87  1027.86  1030.83  1044.91  1054.14  1054.54
eigval :     1073.26  1074.43  1075.44  1094.38  1117.62  1118.25
eigval :     1127.21  1128.09  1131.82  1141.94  1152.43  1153.34
eigval :     1155.35  1158.32  1162.74  1171.14  1179.45  1187.13
eigval :     1187.28  1194.40  1214.46  1217.24  1224.03  1228.77
eigval :     1233.67  1238.68  1242.75  1243.06  1253.68  1270.73
eigval :     1271.02  1274.84  1292.47  1293.33  1304.17  1305.52
eigval :     1326.42  1328.60  1335.28  1342.02  1344.15  1350.01
eigval :     1368.57  1393.25  1395.20  1395.74  1399.81  1400.60
eigval :     1409.25  1411.10  1415.88  1426.50  1432.86  1449.14
eigval :     1459.26  1463.81  1465.05  1465.33  1466.41  1477.37
eigval :     1478.29  1497.87  1499.59  1525.21  1540.24  1560.40
eigval :     1561.21  1563.40  1566.32  1571.43  1572.55  1577.70
eigval :     1583.43  1592.25  1598.36  1604.03  1611.03  1638.77
eigval :     2934.25  2934.40  2946.79  2946.88  3023.85  3024.42
eigval :     3051.29  3078.71  3078.86  3080.61  3081.25  3082.06
eigval :     3082.71  3084.40  3087.20  3087.34  3090.42  3091.06
eigval :     3093.93  3094.32  3095.85  3096.28  3096.65  3096.95
eigval :     3101.22  3101.79  3102.18  3102.65  3113.63  3115.38

   temp. (K)  partition function   enthalpy   heat capacity  entropy
                                   cal/mol     cal/K/mol   cal/K/mol   J/K/mol
 298.15  VIB  0.428E+20            24339.030    150.126    152.595
         ROT  0.175E+09              888.752      2.981     40.705
         INT  0.752E+28            25227.783    153.107    193.301
         TR   0.167E+29             1481.254      4.968     45.353
         TOT                       26709.0368   158.0752   238.6534   998.5259

       T/K    H(0)-H(T)+PV         H(T)/Eh          T*S/Eh         G(T)/Eh
   ------------------------------------------------------------------------
    298.15    0.425636E-01    0.644038E+00    0.113392E+00    0.530646E+00
   ------------------------------------------------------------------------

         :::::::::::::::::::::::::::::::::::::::::::::::::::::
         ::                  THERMODYNAMIC                  ::
         :::::::::::::::::::::::::::::::::::::::::::::::::::::
         :: total free energy        -130.387205358467 Eh   ::
         ::.................................................::
         :: total energy             -130.917851425266 Eh   ::
         :: zero point energy           0.601474442961 Eh   ::
         :: G(RRHO) w/o ZPVE           -0.070828376162 Eh   ::
         :: G(RRHO) contrib.            0.530646066799 Eh   ::
         :::::::::::::::::::::::::::::::::::::::::::::::::::::

           -------------------------------------------------
          | TOTAL ENERGY             -130.917851425266 Eh   |
          | TOTAL ENTHALPY           -130.273813422924 Eh   |
          | TOTAL FREE ENERGY        -130.387205358467 Eh   |
          | GRADIENT NORM               0.000068346899 Eh/α |
          | HOMO-LUMO GAP               1.727906179748 eV   |
           -------------------------------------------------

 * finished run on 2025/08/24 at 07:01:54.613
