   * xtb version 6.7.1 (edcfbbe) compiled by 'albert@albert-system' on 2024-07-22

   ID    Z sym.   atoms
    1    6 C      1, 3-19, 21-26, 28-32, 34-37, 39-47, 49, 50
    2    8 O      2, 20, 33
    3    7 N      27, 48
    4   16 S      38
    5    1 H      51-80

          program call               : xtb data2507/toluene/MCZ-P2-DTM/MCZ-P2-DTM_toluene_S0_finalOpt.xtbopt.xyz --gfn 2 --uhf 2 --gbsa toluene --ohess vtight --parallel 40 --molden --ceasefiles --namespace data2507/toluene/MCZ-P2-DTM/MCZ-P2-DTM_toluene_T1_preOpt
      * Solvation model:               GBSA
        Solvent                        toluene
        Solvent mass                       9.2140E+01 g/mol
          :  Hamiltonian                  GFN2-xTB          :
 * total energy  :  -130.8342948 Eh     change       -0.4527152E-08 Eh
 * total energy  :  -130.8376009 Eh     change       -0.3306087E-02 Eh
 * total energy  :  -130.8385563 Eh     change       -0.9553454E-03 Eh
 * total energy  :  -130.8386999 Eh     change       -0.1436522E-03 Eh
 * total energy  :  -130.8388132 Eh     change       -0.1132393E-03 Eh
 * total energy  :  -130.8388954 Eh     change       -0.8224994E-04 Eh
 * total energy  :  -130.8389745 Eh     change       -0.7909652E-04 Eh
 * total energy  :  -130.8390262 Eh     change       -0.5172501E-04 Eh
 * total energy  :  -130.8390642 Eh     change       -0.3799043E-04 Eh
 * total energy  :  -130.8391041 Eh     change       -0.3982851E-04 Eh
 * total energy  :  -130.8396308 Eh     change       -0.1666951E-05 Eh
 * total energy  :  -130.8396329 Eh     change       -0.2059009E-05 Eh
 * total energy  :  -130.8396350 Eh     change       -0.2080229E-05 Eh
 * total energy  :  -130.8396368 Eh     change       -0.1822073E-05 Eh
 * total energy  :  -130.8396383 Eh     change       -0.1522478E-05 Eh
 * total energy  :  -130.8396397 Eh     change       -0.1358717E-05 Eh
 * total energy  :  -130.8396410 Eh     change       -0.1273914E-05 Eh
 * total energy  :  -130.8396423 Eh     change       -0.1354116E-05 Eh
 * total energy  :  -130.8396423 Eh     change       -0.8235588E-08 Eh
   *** GEOMETRY OPTIMIZATION CONVERGED AFTER 68 ITERATIONS ***

 final structure:
================
80
 xtb: 6.7.1 (edcfbbe)
C           -4.07013345324836        8.98378732986551       -0.72453795996862
O           -2.94223993350785        8.46018929073034       -0.05402069623475
C           -2.70775732446052        7.12669199808334       -0.10245664465612
C           -3.49560095292347        6.19547626943912       -0.77818054665373
C           -3.15833979894450        4.85715039547834       -0.75231487189150
C           -2.02737608262666        4.39965428073719       -0.07223817525388
C           -1.67590814677303        2.98136194490473       -0.06392598688926
C           -0.32745441130415        2.58186149899885       -0.06871853581002
C            0.04599583540441        1.25549231922242       -0.06046482874208
C           -0.95734059431689        0.29219611143275       -0.04830496760955
C           -2.32368951883844        0.67175768899392       -0.02819461520093
C           -2.67863905885915        2.00500386263745       -0.04407625790041
C           -3.08344112226553       -0.55306545455023       -0.01147626938763
C           -4.43647832170910       -0.82233713664598        0.00529004455280
C           -4.87254861378404       -2.15142174729337       -0.01416350183452
C           -6.29879189152961       -2.46401700306283        0.04159224833052
C           -7.24488881455994       -1.64193351926579       -0.57409850662797
C           -8.59461516162494       -1.92697194572557       -0.52178583222791
C           -9.04396701497248       -3.05182041678718        0.16883148641074
O          -10.34076241475094       -3.42390024137103        0.29711110066091
C          -11.34597251351786       -2.62160453467325       -0.28738320356553
C           -8.10459806041435       -3.88241918830502        0.79219330785400
C           -6.76225504681983       -3.59671295796309        0.72305341725939
C           -3.92005427153725       -3.18252549018440       -0.09712682572005
C           -2.56483123410300       -2.93223735775560       -0.12114534845545
C           -2.13586464995664       -1.61026474505611       -0.03787937909581
N           -0.86200398285066       -1.08309391926664       -0.03185201352938
C            0.33004453347128       -1.79591967878106        0.05555629777715
C            0.44510688002982       -2.95443284391295        0.84682878852525
C            1.65959228428715       -3.58099325107318        0.91842699423160
C            2.79002303941008       -3.04661505978146        0.24376848967255
C            4.05934094028677       -3.72554011655866        0.29716697194770
O            4.11964549072989       -4.94997495734273        0.61581266943042
C            5.28922305771867       -2.98230272758081        0.00633452478670
C            6.39809793472239       -3.68372712447028       -0.50494820970975
C            7.59672550880259       -3.05543720575557       -0.75131261803615
C            7.70883265908339       -1.70153314835171       -0.46432269603604
S            9.13947618370678       -0.71595205480405       -0.67839309330834
C            8.30592071869394        0.68223064215153       -0.02463494486005
C            8.84901354449348        1.94572782368793        0.14167233961792
C            8.05056719863212        2.94048256456137        0.67518340433408
C            6.73245555407754        2.67735613035694        1.03430518597350
C            6.19352218317347        1.41666757364797        0.86764363447469
C            6.97832438260868        0.39771620374205        0.33659232875927
C            6.63101762854174       -0.97955012666020        0.08196572525639
C            5.42943411219396       -1.62785334823526        0.31920905460333
C            2.54590998903242       -1.88605564354665       -0.53057620318117
N            1.38176098629559       -1.30671371427714       -0.61822713181157
C           -1.24164318260263        5.34588146776141        0.59837812837824
C           -1.57624962437953        6.67854013072486        0.59054878484992
H           -4.99917040141404        8.56705576904519       -0.32514764821818
H           -4.01473545874673        8.79777740104384       -1.80101954123223
H           -4.04614449437008       10.05662839305071       -0.54111764556559
H           -4.36831366366025        6.50616458689604       -1.33022003770565
H           -3.76866840994848        4.15753070848009       -1.30284492533881
H            0.44083241503325        3.33824665818372       -0.10705103316245
H            1.08371293864328        0.96477986453347       -0.08192396699609
H           -3.71806255918281        2.29053915157526       -0.01031111677765
H           -5.14875994611411       -0.01469421907539        0.06261924623557
H           -6.91796384926126       -0.77858747339033       -1.13344328820416
H           -9.28919090302550       -1.27230467495627       -1.02358846149957
H          -11.33925747818629       -1.61013346593447        0.12880227268319
H          -12.28772178115626       -3.10874662142166       -0.04029153669566
H          -11.23547399028793       -2.57444489546496       -1.37456852036263
H           -8.46445304640670       -4.74644356946494        1.32915424841825
H           -6.05988402509348       -4.23994202678237        1.23064053202947
H           -4.26135450592558       -4.20277898661263       -0.17905650310105
H           -1.86217116549356       -3.74367147923227       -0.22919148166996
H           -0.39588992504908       -3.30339172881986        1.42529537942785
H            1.79472417193411       -4.47366795374841        1.51118071006998
H            6.27968495925272       -4.73855542970017       -0.70595178032411
H            8.43598827243771       -3.60100469698514       -1.15557085763420
H            9.87229711381360        2.14012453207975       -0.14007185405818
H            8.45651635573205        3.93121567977714        0.81415615125570
H            6.12515633799873        3.46833209657721        1.44845175497885
H            5.17085750283493        1.21325220760961        1.14765719900714
H            4.61600267077485       -1.09065086363838        0.78258095657510
H            3.32675714230414       -1.45629022376763       -1.14379896812090
H           -0.37662742850873        5.02342590858425        1.15716048542147
H           -0.97910753462149        7.40707823159653        1.11676665089972

          :  Hamiltonian                  GFN2-xTB          :
         :: gradient norm              0.000078620526 Eh/a0 ::
         :: HOMO-LUMO gap              0.670299253907 eV    ::
         :: SCC energy              -133.025766266473 Eh    ::
         :: -> dispersion             -0.105810186471 Eh    ::
         :: -> Gsolv                  -0.072718015079 Eh    ::
         :: repulsion energy           2.186123941095 Eh    ::

    * Orbital Energies and Occupations

         #    Occupation            Energy/Eh            Energy/eV
      -------------------------------------------------------------
         1        2.0000           -0.7281669             -19.8144
       ...           ...                  ...                  ...
       109        2.0000           -0.4169807             -11.3466
       110        2.0000           -0.4166183             -11.3368
       111        2.0000           -0.4153452             -11.3021
       112        2.0000           -0.4113742             -11.1941
       113        2.0000           -0.3988292             -10.8527
       114        2.0000           -0.3957935             -10.7701
       115        2.0000           -0.3886375             -10.5754
       116        2.0000           -0.3838467             -10.4450
       117        2.0000           -0.3811122             -10.3706
       118        1.9642           -0.3730092             -10.1501
       119        1.7995           -0.3711952             -10.1007
       120        1.2363           -0.3687667             -10.0347
       121        1.0000           -0.2844707              -7.7408 (HOMO)
       122        0.0000           -0.2598377              -7.0705 (LUMO)
       123        0.0000           -0.2585498              -7.0355
       124                         -0.2558428              -6.9618
       125                         -0.2493133              -6.7842
       126                         -0.2435944              -6.6285
       127                         -0.2349499              -6.3933
       128                         -0.2330283              -6.3410
       129                         -0.2327171              -6.3326
       130                         -0.2295436              -6.2462
       131                         -0.2157366              -5.8705
       132                         -0.2067953              -5.6272
       ...                                ...                  ...
       235                          0.7338309              19.9686
      -------------------------------------------------------------
                  HL-Gap            0.0246330 Eh            0.6703 eV

     #   Z          covCN         q      C6AA      α(0)
     1   6 C        3.643     0.030    20.417     6.496
     2   8 O        1.705    -0.269    18.454     5.800
     3   6 C        2.864     0.149    24.761     8.156
     4   6 C        2.914    -0.064    29.597     8.921
     5   6 C        2.925    -0.032    28.790     8.799
     6   6 C        2.974     0.008    27.840     8.655
     7   6 C        2.975     0.016    27.639     8.624
     8   6 C        2.926    -0.036    28.896     8.815
     9   6 C        2.907    -0.036    28.885     8.813
    10   6 C        3.075     0.049    26.818     8.491
    11   6 C        3.058    -0.009    28.186     8.706
    12   6 C        2.916    -0.031    28.784     8.798
    13   6 C        3.059    -0.009    28.176     8.705
    14   6 C        2.916    -0.031    28.781     8.797
    15   6 C        2.975     0.015    27.667     8.628
    16   6 C        2.974     0.007    27.862     8.658
    17   6 C        2.924    -0.032    28.799     8.801
    18   6 C        2.914    -0.064    29.601     8.922
    19   6 C        2.864     0.149    24.769     8.158
    20   8 O        1.705    -0.270    18.474     5.803
    21   6 C        3.642     0.030    20.412     6.495
    22   6 C        2.917    -0.052    29.299     8.876
    23   6 C        2.923    -0.031    28.769     8.796
    24   6 C        2.926    -0.037    28.916     8.818
    25   6 C        2.907    -0.040    28.987     8.828
    26   6 C        3.071     0.043    26.961     8.514
    27   7 N        2.801    -0.002    21.305     6.855
    28   6 C        2.891     0.115    25.476     8.275
    29   6 C        2.908    -0.054    29.349     8.883
    30   6 C        2.927    -0.021    28.539     8.761
    31   6 C        2.962    -0.035    28.876     8.814
    32   6 C        2.831     0.169    24.363     8.088
    33   8 O        0.858    -0.518    24.196     6.595
    34   6 C        2.968    -0.020    28.499     8.757
    35   6 C        2.928    -0.029    28.725     8.789
    36   6 C        2.930    -0.041    29.026     8.835
    37   6 C        3.001     0.030    27.308     8.572
    38  16 S        2.205    -0.102   145.316    20.289
    39   6 C        3.002     0.040    27.093     8.538
    40   6 C        2.934    -0.038    28.956     8.825
    41   6 C        2.923    -0.031    28.762     8.795
    42   6 C        2.918    -0.034    28.849     8.808
    43   6 C        2.917    -0.032    28.802     8.801
    44   6 C        3.102    -0.003    27.974     8.667
    45   6 C        3.099    -0.005    28.018     8.674
    46   6 C        2.919    -0.044    29.088     8.844
    47   6 C        2.894     0.052    26.834     8.493
    48   7 N        1.840    -0.235    27.009     7.702
    49   6 C        2.923    -0.030    28.760     8.795
    50   6 C        2.917    -0.052    29.292     8.875
    51   1 H        0.924     0.054     2.268     2.355
    52   1 H        0.924     0.054     2.271     2.357
    53   1 H        0.925     0.071     2.073     2.252
    54   1 H        0.926     0.051     2.310     2.377
    55   1 H        0.926     0.051     2.302     2.372
    56   1 H        0.926     0.051     2.305     2.374
    57   1 H        0.926     0.053     2.277     2.360
    58   1 H        0.926     0.057     2.232     2.336
    59   1 H        0.926     0.057     2.230     2.335
    60   1 H        0.926     0.051     2.306     2.375
    61   1 H        0.926     0.051     2.313     2.378
    62   1 H        0.924     0.054     2.270     2.356
    63   1 H        0.925     0.071     2.075     2.253
    64   1 H        0.924     0.054     2.275     2.358
    65   1 H        0.926     0.051     2.305     2.374
    66   1 H        0.926     0.049     2.332     2.388
    67   1 H        0.926     0.049     2.328     2.386
    68   1 H        0.926     0.043     2.410     2.428
    69   1 H        0.926     0.045     2.387     2.416
    70   1 H        0.926     0.037     2.493     2.469
    71   1 H        0.926     0.035     2.522     2.483
    72   1 H        0.926     0.038     2.478     2.462
    73   1 H        0.926     0.044     2.398     2.421
    74   1 H        0.926     0.044     2.393     2.419
    75   1 H        0.926     0.042     2.416     2.431
    76   1 H        0.926     0.039     2.467     2.456
    77   1 H        0.926     0.033     2.542     2.493
    78   1 H        0.925     0.037     2.489     2.467
    79   1 H        0.926     0.050     2.315     2.379
    80   1 H        0.926     0.052     2.296     2.369

molecular dipole:
                 x           y           z       tot (Debye)
 q only:       -7.696       5.473      -0.691
   full:       -7.773       5.118      -0.589      23.702

 projected vibrational frequencies (cm⁻¹)
eigval :       -0.00    -0.00    -0.00    -0.00     0.00     0.00
eigval :        5.61     9.79    15.89    24.67    26.75    29.35
eigval :       33.59    42.95    55.02    56.59    60.97    66.25
eigval :       90.82    97.95   100.31   105.88   111.41   117.47
eigval :      121.58   136.88   143.90   160.01   170.91   190.26
eigval :      194.04   203.11   216.22   227.26   232.29   232.71
eigval :      239.39   243.62   260.86   263.22   277.71   284.12
eigval :      296.12   310.70   343.32   364.19   371.15   379.11
eigval :      380.55   386.48   389.13   394.00   398.75   400.00
eigval :      409.20   412.80   416.81   424.91   434.21   443.21
eigval :      455.06   462.46   471.00   481.88   491.24   501.81
eigval :      506.67   511.49   524.42   537.54   562.33   571.82
eigval :      577.33   587.35   592.62   599.91   606.25   607.23
eigval :      612.30   619.99   628.47   653.36   657.99   673.61
eigval :      676.64   686.97   690.95   695.55   696.24   697.99
eigval :      704.52   708.66   730.60   773.60   786.66   799.95
eigval :      803.47   805.67   806.72   812.99   818.65   828.38
eigval :      832.25   849.69   851.82   852.89   864.60   868.00
eigval :      872.50   873.14   891.20   900.63   903.48   904.31
eigval :      905.19   906.22   907.10   911.11   913.28   919.66
eigval :      920.88   922.57   925.83   941.50   983.75   987.04
eigval :      994.44   998.60  1024.47  1040.56  1049.99  1050.31
eigval :     1061.66  1063.63  1074.83  1091.34  1113.12  1113.77
eigval :     1122.48  1126.83  1128.27  1134.88  1137.99  1152.12
eigval :     1152.28  1153.04  1154.11  1168.47  1174.14  1179.46
eigval :     1181.33  1191.89  1213.46  1217.64  1217.94  1225.24
eigval :     1234.95  1238.30  1240.16  1244.99  1248.35  1258.01
eigval :     1268.99  1271.96  1281.69  1282.91  1294.00  1302.98
eigval :     1324.95  1327.60  1330.23  1333.08  1338.13  1347.11
eigval :     1353.77  1362.66  1393.43  1393.81  1394.09  1397.58
eigval :     1406.88  1409.34  1414.10  1415.61  1422.66  1426.77
eigval :     1430.43  1439.20  1446.21  1461.10  1461.49  1461.76
eigval :     1462.54  1470.96  1471.63  1484.57  1487.33  1512.00
eigval :     1531.73  1534.78  1536.18  1539.84  1545.53  1548.08
eigval :     1561.48  1568.67  1573.94  1579.86  1587.08  1594.02
eigval :     2944.41  2944.45  2954.54  2954.65  3028.57  3028.85
eigval :     3052.50  3078.44  3080.24  3080.77  3083.65  3085.44
eigval :     3088.46  3089.01  3090.29  3090.84  3091.28  3091.65
eigval :     3092.41  3094.19  3098.09  3099.35  3099.86  3101.85
eigval :     3102.85  3103.57  3104.15  3107.14  3107.65  3113.21

   temp. (K)  partition function   enthalpy   heat capacity  entropy
                                   cal/mol     cal/K/mol   cal/K/mol   J/K/mol
 298.15  VIB  0.277E+20            24512.113    152.107    153.238
         ROT  0.180E+09              888.752      2.981     40.750
         INT  0.497E+28            25400.866    155.088    193.989
         TR   0.167E+29             1481.254      4.968     45.353
         TOT                       26882.1196   160.0562   239.3416  1001.4054

       T/K    H(0)-H(T)+PV         H(T)/Eh          T*S/Eh         G(T)/Eh
   ------------------------------------------------------------------------
    298.15    0.428394E-01    0.640793E+00    0.113719E+00    0.527074E+00
   ------------------------------------------------------------------------

         :::::::::::::::::::::::::::::::::::::::::::::::::::::
         ::                  THERMODYNAMIC                  ::
         :::::::::::::::::::::::::::::::::::::::::::::::::::::
         :: total free energy        -130.312568657722 Eh   ::
         ::.................................................::
         :: total energy             -130.839642323017 Eh   ::
         :: zero point energy           0.597953210947 Eh   ::
         :: G(RRHO) w/o ZPVE           -0.070879545652 Eh   ::
         :: G(RRHO) contrib.            0.527073665295 Eh   ::
         :::::::::::::::::::::::::::::::::::::::::::::::::::::

           -------------------------------------------------
          | TOTAL ENERGY             -130.839642323017 Eh   |
          | TOTAL ENTHALPY           -130.198849727606 Eh   |
          | TOTAL FREE ENERGY        -130.312568657722 Eh   |
          | GRADIENT NORM               0.000078607970 Eh/α |
          | HOMO-LUMO GAP               0.670298011015 eV   |
           -------------------------------------------------

 * finished run on 2025/08/24 at 07:02:05.426
