   * xtb version 6.7.1 (edcfbbe) compiled by 'albert@albert-system' on 2024-07-22

   ID    Z sym.   atoms
    1    6 C      1, 3-19, 21-26, 28-32, 34-37, 39-47, 49, 50
    2    8 O      2, 20, 33
    3    7 N      27, 48
    4   16 S      38
    5    1 H      51-80

          program call               : xtb data2507/toluene/MCZ-P2-DTM/MCZ-P2-DTM.xyz --gfn 2 --gbsa toluene --ohess vtight --parallel 40 --molden --ceasefiles --namespace data2507/toluene/MCZ-P2-DTM/MCZ-P2-DTM_toluene_S0_preOpt
      * Solvation model:               GBSA
        Solvent                        toluene
        Solvent mass                       9.2140E+01 g/mol
          :  Hamiltonian                  GFN2-xTB          :
 * total energy  :  -130.8923130 Eh     change       -0.1553957E-08 Eh
 * total energy  :  -130.9087572 Eh     change       -0.1644418E-01 Eh
 * total energy  :  -130.9131635 Eh     change       -0.4406333E-02 Eh
 * total energy  :  -130.9143370 Eh     change       -0.1173531E-02 Eh
 * total energy  :  -130.9151585 Eh     change       -0.8214637E-03 Eh
 * total energy  :  -130.9154074 Eh     change       -0.2488830E-03 Eh
 * total energy  :  -130.9155718 Eh     change       -0.1644531E-03 Eh
 * total energy  :  -130.9157228 Eh     change       -0.1509605E-03 Eh
 * total energy  :  -130.9158650 Eh     change       -0.1421744E-03 Eh
 * total energy  :  -130.9160078 Eh     change       -0.1428492E-03 Eh
 * total energy  :  -130.9171079 Eh     change       -0.3220147E-06 Eh
 * total energy  :  -130.9171082 Eh     change       -0.2960196E-06 Eh
 * total energy  :  -130.9171085 Eh     change       -0.2915322E-06 Eh
 * total energy  :  -130.9171088 Eh     change       -0.2973716E-06 Eh
 * total energy  :  -130.9171091 Eh     change       -0.2783829E-06 Eh
 * total energy  :  -130.9171093 Eh     change       -0.2433426E-06 Eh
 * total energy  :  -130.9171095 Eh     change       -0.2054448E-06 Eh
 * total energy  :  -130.9171097 Eh     change       -0.1726393E-06 Eh
 * total energy  :  -130.9171097 Eh     change       -0.1442999E-08 Eh
   *** GEOMETRY OPTIMIZATION CONVERGED AFTER 68 ITERATIONS ***

 final structure:
================
80
 xtb: 6.7.1 (edcfbbe)
C           -7.76556899621883        7.15618230076050        0.82397458311178
O           -7.42218752347514        5.96292458815081        1.49395560929998
C           -6.34824282464810        5.24753388101032        1.04792151959824
C           -5.54832930127214        5.59567608574370       -0.03463750826809
C           -4.48094387607385        4.79068700342671       -0.39233188665390
C           -4.18541529196046        3.62370178923345        0.30398808317256
C           -3.05294871055543        2.77126026655870       -0.08894857085627
C           -1.83385678861856        3.34727398088181       -0.46886491201181
C           -0.74543222944476        2.58578461212561       -0.84863268087565
C           -0.88630735443257        1.20763674326096       -0.85568687266292
C           -2.10181167581307        0.60706268520261       -0.46846207380550
C           -3.18111036223989        1.38682045159932       -0.08541724025332
C           -1.91446642684813       -0.81682891919775       -0.57749322282628
C           -2.76539223362457       -1.89081051458899       -0.37612411228184
C           -2.30823267369878       -3.17942101150294       -0.63062446436903
C           -3.18580519479886       -4.33957101905470       -0.41645725962945
C           -4.02665189196110       -4.40253023481126        0.68980009355009
C           -4.85419758691320       -5.48965692599995        0.90916137485377
C           -4.86117574017192       -6.54929147025736        0.00890686060227
O           -5.63112117283067       -7.67055788799647        0.12066845008370
C           -6.49674211623264       -7.78914479495397        1.22872666012561
C           -4.02544928942221       -6.49317551602247       -1.10830501649863
C           -3.20157673206603       -5.40892043283658       -1.31319381669948
C           -1.00626472169666       -3.35793872390229       -1.11287868839454
C           -0.14126844827760       -2.29881073696090       -1.31312439904363
C           -0.58595370718631       -1.01985180566962       -1.01147679119432
N            0.04502645565687        0.21382556522053       -1.15144354949016
C            1.36466833053793        0.43402309897413       -1.48625319745346
C            2.38107413789117       -0.44649515708681       -1.08384545155365
C            3.67574936290977       -0.18661628522518       -1.47419504717547
C            3.94810677895399        0.95264675969192       -2.23999041446142
C            5.29309580874428        1.29364147941231       -2.74933484118222
O            5.43199537633988        1.88479907244124       -3.81174272029699
C            6.45711034585600        0.89098561654856       -1.92913386310761
C            7.66483512322274        0.60998972573036       -2.58471988239114
C            8.78960570009006        0.24291222984944       -1.87978961252311
C            8.71039972854109        0.17260345227089       -0.49560557842251
S           10.01049861146157       -0.26402855444915        0.58146827448285
C            8.96511768114229       -0.04777549115417        1.97434034084947
C            9.32867572318663       -0.23691591894988        3.29746867645541
C            8.37600806873270       -0.02607229817019        4.27648493280324
C            7.08324912892653        0.36501156588378        3.93949213882380
C            6.72324476807726        0.55327616712843        2.62051516926115
C            7.66601392642523        0.34851874716705        1.61626815876402
C            7.51659765839217        0.47552745824759        0.18795055561115
C            6.39094137601378        0.83501123216284       -0.54124348164234
C            2.86678651779620        1.77835478188988       -2.55331594992931
N            1.62789064856024        1.53777305765725       -2.18770494657033
C           -4.99767654498689        3.28244223612693        1.38636825615888
C           -6.05781755603663        4.07984860248701        1.75614386702172
H           -8.63842319985240        7.54326685065173        1.34740718350878
H           -8.02410799889737        6.96667175345306       -0.22237860374610
H           -6.95565179825992        7.89045688128914        0.87529134342740
H           -5.74638862946654        6.48749454005704       -0.60826686191917
H           -3.88062359665109        5.06849909942579       -1.24630229807508
H           -1.73658900548106        4.42246145868057       -0.44723428158046
H            0.18285515423413        3.04857220472561       -1.14112306358499
H           -4.11564657294870        0.92416937868129        0.19239297391309
H           -3.78297342705584       -1.72400408035336       -0.05815964342428
H           -4.02237468156066       -3.59648795384561        1.40889236001890
H           -5.48397494030829       -5.49998683043362        1.78483115473423
H           -7.24361013867602       -6.98948732536577        1.23970220901285
H           -5.94084290009328       -7.78600184240237        2.17134499331605
H           -6.99631206186645       -8.74889887083914        1.10672532988492
H           -4.04473158729914       -7.31786099599824       -1.80431864714839
H           -2.57715480308027       -5.37883895839862       -2.19371348738976
H           -0.66047633029363       -4.35845691870882       -1.32486441805011
H            0.84148482848643       -2.48068500682393       -1.71888557050705
H            2.15450783468026       -1.29308709397009       -0.45732836645131
H            4.47146205802461       -0.86377529296390       -1.20080983659544
H            7.68964238636256        0.68086679563874       -3.66193008416168
H            9.71442656719804        0.01717676759303       -2.38721575214356
H           10.33252516092452       -0.54106713853990        3.55010426873874
H            8.63886911470002       -0.16801170304916        5.31383102166586
H            6.35496126197382        0.52308184061112        4.72068737993145
H            5.71996145053272        0.85648105662225        2.36239384876724
H            5.48050396161752        1.09892143112971       -0.02532157260891
H            3.02733907225660        2.68487077181054       -3.12314861374252
H           -4.78075050253059        2.39158963084350        1.95695946872595
H           -6.68265096263117        3.82274901246116        2.59781301337793

          :  Hamiltonian                  GFN2-xTB          :
         :: gradient norm              0.000027706264 Eh/a0 ::
         :: HOMO-LUMO gap              1.704587346617 eV    ::
         :: SCC energy              -133.118471355062 Eh    ::
         :: -> dispersion             -0.105494825905 Eh    ::
         :: -> Gsolv                  -0.060457708449 Eh    ::
         :: repulsion energy           2.201361661496 Eh    ::

    * Orbital Energies and Occupations

         #    Occupation            Energy/Eh            Energy/eV
      -------------------------------------------------------------
         1        2.0000           -0.7360806             -20.0298
       ...           ...                  ...                  ...
       108        2.0000           -0.4190356             -11.4025
       109        2.0000           -0.4155143             -11.3067
       110        2.0000           -0.4097333             -11.1494
       111        2.0000           -0.4076142             -11.0917
       112        2.0000           -0.4063127             -11.0563
       113        2.0000           -0.4050521             -11.0220
       114        2.0000           -0.4008930             -10.9089
       115        2.0000           -0.3883368             -10.5672
       116        2.0000           -0.3868142             -10.5258
       117        2.0000           -0.3839815             -10.4487
       118        2.0000           -0.3835460             -10.4368
       119        2.0000           -0.3724427             -10.1347
       120        2.0000           -0.3627723              -9.8715 (HOMO)
       121                         -0.3001299              -8.1669 (LUMO)
       122                         -0.2682760              -7.3002
       123                         -0.2646549              -7.2016
       124                         -0.2555730              -6.9545
       125                         -0.2474570              -6.7336
       126                         -0.2431748              -6.6171
       127                         -0.2380886              -6.4787
       128                         -0.2297825              -6.2527
       129                         -0.2239187              -6.0931
       130                         -0.2226741              -6.0593
       131                         -0.2155366              -5.8651
       ...                                ...                  ...
       235                          0.7423466              20.2003
      -------------------------------------------------------------
                  HL-Gap            0.0626424 Eh            1.7046 eV

     #   Z          covCN         q      C6AA      α(0)
     1   6 C        3.642     0.036    20.310     6.479
     2   8 O        1.705    -0.291    18.834     5.859
     3   6 C        2.864     0.139    24.966     8.190
     4   6 C        2.916    -0.068    29.693     8.936
     5   6 C        2.926    -0.037    28.916     8.819
     6   6 C        2.975    -0.001    28.040     8.686
     7   6 C        2.976     0.005    27.912     8.666
     8   6 C        2.929    -0.037    28.932     8.821
     9   6 C        2.909    -0.047    29.154     8.854
    10   6 C        3.062     0.050    26.825     8.493
    11   6 C        3.060    -0.014    28.294     8.723
    12   6 C        2.918    -0.039    28.970     8.826
    13   6 C        3.061    -0.012    28.246     8.715
    14   6 C        2.918    -0.038    28.950     8.823
    15   6 C        2.975     0.005    27.906     8.665
    16   6 C        2.975    -0.001    28.048     8.687
    17   6 C        2.926    -0.037    28.914     8.818
    18   6 C        2.915    -0.068    29.693     8.936
    19   6 C        2.864     0.140    24.955     8.188
    20   8 O        1.705    -0.290    18.825     5.858
    21   6 C        3.642     0.036    20.314     6.480
    22   6 C        2.918    -0.057    29.404     8.892
    23   6 C        2.924    -0.035    28.876     8.812
    24   6 C        2.928    -0.038    28.956     8.825
    25   6 C        2.909    -0.051    29.269     8.871
    26   6 C        3.058     0.043    26.987     8.519
    27   7 N        2.801    -0.037    21.956     6.959
    28   6 C        2.897     0.156    24.621     8.136
    29   6 C        2.914    -0.060    29.487     8.904
    30   6 C        2.927    -0.013    28.328     8.728
    31   6 C        2.966    -0.033    28.830     8.807
    32   6 C        2.828     0.225    23.282     7.907
    33   8 O        0.858    -0.425    22.178     6.314
    34   6 C        2.970    -0.019    28.490     8.755
    35   6 C        2.927    -0.020    28.507     8.756
    36   6 C        2.934    -0.036    28.902     8.817
    37   6 C        3.002     0.043    27.030     8.528
    38  16 S        2.210    -0.074   144.121    20.205
    39   6 C        3.003     0.039    27.117     8.542
    40   6 C        2.934    -0.037    28.916     8.819
    41   6 C        2.923    -0.028    28.689     8.784
    42   6 C        2.918    -0.032    28.802     8.801
    43   6 C        2.917    -0.031    28.765     8.795
    44   6 C        3.102    -0.002    27.958     8.664
    45   6 C        3.104     0.000    27.890     8.654
    46   6 C        2.918    -0.030    28.752     8.793
    47   6 C        2.909     0.074    26.353     8.418
    48   7 N        1.844    -0.248    27.307     7.745
    49   6 C        2.925    -0.035    28.878     8.813
    50   6 C        2.918    -0.057    29.409     8.893
    51   1 H        0.925     0.065     2.138     2.286
    52   1 H        0.924     0.046     2.371     2.408
    53   1 H        0.924     0.046     2.372     2.408
    54   1 H        0.926     0.039     2.456     2.451
    55   1 H        0.926     0.039     2.464     2.455
    56   1 H        0.926     0.040     2.451     2.448
    57   1 H        0.926     0.048     2.345     2.395
    58   1 H        0.926     0.041     2.431     2.438
    59   1 H        0.926     0.042     2.421     2.433
    60   1 H        0.926     0.040     2.451     2.448
    61   1 H        0.926     0.040     2.444     2.445
    62   1 H        0.924     0.046     2.365     2.405
    63   1 H        0.924     0.046     2.365     2.405
    64   1 H        0.925     0.066     2.135     2.285
    65   1 H        0.926     0.043     2.415     2.430
    66   1 H        0.926     0.040     2.448     2.447
    67   1 H        0.926     0.041     2.442     2.444
    68   1 H        0.926     0.035     2.518     2.481
    69   1 H        0.926     0.060     2.196     2.317
    70   1 H        0.926     0.055     2.258     2.350
    71   1 H        0.926     0.052     2.291     2.367
    72   1 H        0.926     0.053     2.282     2.362
    73   1 H        0.926     0.047     2.359     2.402
    74   1 H        0.926     0.047     2.363     2.404
    75   1 H        0.926     0.044     2.391     2.418
    76   1 H        0.926     0.043     2.405     2.425
    77   1 H        0.926     0.049     2.335     2.390
    78   1 H        0.925     0.050     2.318     2.381
    79   1 H        0.926     0.041     2.436     2.441
    80   1 H        0.926     0.043     2.412     2.428

molecular dipole:
                 x           y           z       tot (Debye)
 q only:       -0.777      -0.681       2.299
   full:       -0.614      -0.700       2.341       6.404

 projected vibrational frequencies (cm⁻¹)
eigval :       -0.00    -0.00    -0.00     0.00     0.00     0.00
eigval :        7.87    10.81    20.62    23.50    25.20    30.46
eigval :       35.37    37.54    48.07    58.45    62.89    71.31
eigval :       84.98    89.33    99.49   106.30   113.84   117.78
eigval :      121.48   130.94   139.40   152.68   172.31   186.04
eigval :      193.10   202.13   215.75   226.39   232.89   234.81
eigval :      243.73   254.87   264.40   269.28   276.41   280.80
eigval :      300.22   309.14   347.29   377.57   378.39   381.53
eigval :      382.04   387.52   392.91   395.19   396.72   406.50
eigval :      415.93   422.06   430.00   432.90   440.52   446.44
eigval :      457.57   472.69   482.56   487.86   490.41   506.83
eigval :      516.28   525.49   538.91   546.80   571.02   574.51
eigval :      583.44   588.52   600.96   607.56   610.83   614.81
eigval :      624.11   634.00   653.28   672.99   676.23   687.66
eigval :      693.84   694.56   696.52   698.49   701.31   709.97
eigval :      713.08   735.50   741.73   780.21   785.83   800.33
eigval :      803.53   813.26   818.53   825.79   828.98   833.18
eigval :      843.91   857.11   863.95   874.46   877.02   877.81
eigval :      883.40   886.61   900.88   901.20   906.74   908.59
eigval :      913.19   914.87   915.40   916.07   920.45   925.20
eigval :      926.61   928.60   940.92   957.11   988.34   999.17
eigval :     1001.03  1029.59  1030.64  1044.79  1054.26  1054.63
eigval :     1074.17  1075.04  1076.64  1093.34  1117.97  1118.30
eigval :     1127.91  1128.99  1131.64  1149.23  1152.25  1154.72
eigval :     1155.52  1159.75  1162.81  1170.92  1179.72  1188.10
eigval :     1188.82  1196.56  1216.07  1218.89  1223.41  1225.07
eigval :     1233.77  1235.19  1242.48  1243.73  1253.10  1270.97
eigval :     1272.35  1275.25  1290.34  1294.04  1303.63  1307.86
eigval :     1326.45  1328.17  1335.32  1340.87  1342.61  1349.79
eigval :     1367.90  1395.07  1395.51  1395.91  1399.75  1402.22
eigval :     1409.44  1410.46  1415.65  1427.52  1433.21  1447.92
eigval :     1459.95  1465.14  1465.24  1465.42  1468.08  1476.88
eigval :     1477.66  1497.19  1499.40  1527.85  1540.94  1560.63
eigval :     1561.44  1563.77  1566.57  1571.07  1572.51  1577.18
eigval :     1583.56  1592.35  1598.43  1603.92  1610.88  1642.61
eigval :     2933.90  2935.35  2946.38  2947.82  3024.34  3024.95
eigval :     3057.02  3078.52  3079.26  3081.49  3081.67  3081.88
eigval :     3082.18  3085.74  3086.07  3087.35  3090.82  3091.78
eigval :     3092.07  3094.43  3094.98  3096.15  3097.61  3098.49
eigval :     3101.44  3102.26  3102.30  3103.00  3111.78  3115.22

   temp. (K)  partition function   enthalpy   heat capacity  entropy
                                   cal/mol     cal/K/mol   cal/K/mol   J/K/mol
 298.15  VIB  0.158E+20            24302.143    150.310    151.764
         ROT  0.194E+09              888.752      2.981     40.907
         INT  0.307E+28            25190.896    153.291    192.671
         TR   0.167E+29             1481.254      4.968     45.353
         TOT                       26672.1495   158.2587   238.0240   995.8925

       T/K    H(0)-H(T)+PV         H(T)/Eh          T*S/Eh         G(T)/Eh
   ------------------------------------------------------------------------
    298.15    0.425048E-01    0.644200E+00    0.113093E+00    0.531108E+00
   ------------------------------------------------------------------------

         :::::::::::::::::::::::::::::::::::::::::::::::::::::
         ::                  THERMODYNAMIC                  ::
         :::::::::::::::::::::::::::::::::::::::::::::::::::::
         :: total free energy        -130.386002187916 Eh   ::
         ::.................................................::
         :: total energy             -130.917109693675 Eh   ::
         :: zero point energy           0.601695618225 Eh   ::
         :: G(RRHO) w/o ZPVE           -0.070588112466 Eh   ::
         :: G(RRHO) contrib.            0.531107505759 Eh   ::
         :::::::::::::::::::::::::::::::::::::::::::::::::::::

           -------------------------------------------------
          | TOTAL ENERGY             -130.917109693675 Eh   |
          | TOTAL ENTHALPY           -130.272909299681 Eh   |
          | TOTAL FREE ENERGY        -130.386002187916 Eh   |
          | GRADIENT NORM               0.000027737207 Eh/α |
          | HOMO-LUMO GAP               1.704587506140 eV   |
           -------------------------------------------------

 * finished run on 2025/08/24 at 06:54:15.501
