   * xtb version 6.7.1 (edcfbbe) compiled by 'albert@albert-system' on 2024-07-22

   ID    Z sym.   atoms
    1    6 C      1-6, 8-27
    2   16 S      7, 28
    3    1 H      29-44

          program call               : xtb data2507/gas/2-TA-AN/2-TA-AN_gas_S0_crest.xyz --gfn 2 --ohess vtight --parallel 40 --molden --ceasefiles --namespace data2507/gas/2-TA-AN/2-TA-AN_gas_S0_finalOpt
          :  Hamiltonian                  GFN2-xTB          :
 * total energy  :   -70.3190300 Eh     change       -0.3394405E-09 Eh
 * total energy  :   -70.3190304 Eh     change       -0.4455784E-06 Eh
 * total energy  :   -70.3190308 Eh     change       -0.3857417E-06 Eh
 * total energy  :   -70.3190313 Eh     change       -0.5401451E-06 Eh
 * total energy  :   -70.3190315 Eh     change       -0.1357655E-06 Eh
 * total energy  :   -70.3190314 Eh     change        0.1814796E-07 Eh
 * total energy  :   -70.3190315 Eh     change       -0.9138584E-07 Eh
   *** GEOMETRY OPTIMIZATION CONVERGED AFTER 7 ITERATIONS ***

 final structure:
================
44
 xtb: 6.7.1 (edcfbbe)
C            6.36496362903439       -1.13175645488860       -0.67693655520962
C            5.94842419888420       -0.68299291461364       -1.92054688623157
C            4.78412281940653        0.05259726409745       -2.03457456033999
C            4.03877589099318        0.36365025241779       -0.90473316246987
C            4.45583642482315       -0.08626723482076        0.34090809222778
C            5.61526276802058       -0.84330535126639        0.44754548942792
S            3.58252725652557        0.30086229622911        1.83486682800065
C            1.90134221588214        0.17010454992743        1.28770393140290
C            0.97342580566820       -0.37854364859818        2.16373794328182
C           -0.35886350233013       -0.45757861330766        1.81155270539407
C           -0.78753692727091       -0.00396299850215        0.56585068047991
C           -2.21279019089878       -0.07902283367517        0.18463541788730
C           -2.81129513547398       -1.33088279606812       -0.02392715559812
C           -2.08643983217045       -2.54697690437857        0.08027959984400
C           -2.69387484549376       -3.74787605707479       -0.12498480272307
C           -4.06390986612627       -3.81320570750808       -0.45293650119089
C           -4.79023995309598       -2.67029591511205       -0.58122632377046
C           -4.19456837446392       -1.39862361030704       -0.38001670326564
C           -4.92178992420156       -0.22200688100844       -0.52700108418277
C           -4.33523960478483        1.02392470540028       -0.33029526678163
C           -5.07542589768623        2.22481323264879       -0.48014796841648
C           -4.49584508584968        3.43687088191934       -0.26746764098049
C           -3.14160735925909        3.51581738571299        0.11801192078909
C           -2.39638223907283        2.38664806248167        0.26913435068810
C           -2.95580978913951        1.10242880778697        0.03867373114205
C            0.14735705861624        0.52359462698349       -0.31559508899965
C            1.48363159618604        0.62124264411562        0.04284010451148
S            2.59446879007829        1.36954310860861       -1.12026317941360
H            7.27224984427385       -1.70821145227612       -0.58163549060267
H            6.52840300651721       -0.90676039406476       -2.80266180237470
H            4.44555812825494        0.41001709128323       -2.99502944592814
H            5.92505965993544       -1.18471431662043        1.42341934422538
H            1.31039147869377       -0.72427472534921        3.12903103171022
H           -1.07745968250239       -0.86673921087339        2.50573598664849
H           -1.03439057665159       -2.50486035304139        0.32115977512816
H           -2.12827109206077       -4.66446219503155       -0.04198788679781
H           -4.52447231168354       -4.77791743855171       -0.60757957571250
H           -5.83823748835120       -2.70688459657842       -0.84282744456532
H           -5.96648330565828       -0.27708244264219       -0.80050425425301
H           -6.11512493998388        2.15065623034011       -0.76586529537394
H           -5.06576078333163        4.34699016756770       -0.38390027541416
H           -2.70071031290369        4.48556254011999        0.29650551619981
H           -1.36277684149427        2.45611953115576        0.57413617001511
H           -0.16211416875455        0.87463449966241       -1.28868565840810

          :  Hamiltonian                  GFN2-xTB          :
         :: gradient norm              0.000036145083 Eh/a0 ::
         :: HOMO-LUMO gap              2.017280325279 eV    ::
         :: SCC energy               -71.592202711271 Eh    ::
         :: -> dispersion             -0.062764035063 Eh    ::
         :: repulsion energy           1.273171175176 Eh    ::

    * Orbital Energies and Occupations

         #    Occupation            Energy/Eh            Energy/eV
      -------------------------------------------------------------
         1        2.0000           -0.7238797             -19.6978
       ...           ...                  ...                  ...
        54        2.0000           -0.4340350             -11.8107
        55        2.0000           -0.4310629             -11.7298
        56        2.0000           -0.4283950             -11.6572
        57        2.0000           -0.4245930             -11.5538
        58        2.0000           -0.4217641             -11.4768
        59        2.0000           -0.4192809             -11.4092
        60        2.0000           -0.4113331             -11.1929
        61        2.0000           -0.4107278             -11.1765
        62        2.0000           -0.4080202             -11.1028
        63        2.0000           -0.4010248             -10.9124
        64        2.0000           -0.3826464             -10.4123
        65        2.0000           -0.3645916              -9.9210
        66        2.0000           -0.3571134              -9.7176 (HOMO)
        67                         -0.2829798              -7.7003 (LUMO)
        68                         -0.2531721              -6.8892
        69                         -0.2422749              -6.5926
        70                         -0.2406466              -6.5483
        71                         -0.2401265              -6.5342
        72                         -0.2330241              -6.3409
        73                         -0.2224270              -6.0525
        74                         -0.1988974              -5.4123
        75                         -0.1976035              -5.3771
        76                         -0.1780814              -4.8458
        77                         -0.1742819              -4.7425
       ...                                ...                  ...
       138                          0.7145381              19.4436
      -------------------------------------------------------------
                  HL-Gap            0.0741336 Eh            2.0173 eV

     #   Z          covCN         q      C6AA      α(0)
     1   6 C        2.920    -0.031    28.775     8.797
     2   6 C        2.920    -0.031    28.774     8.796
     3   6 C        2.974    -0.036    28.897     8.818
     4   6 C        2.995     0.045    26.980     8.521
     5   6 C        2.995     0.045    26.981     8.521
     6   6 C        2.974    -0.036    28.900     8.818
     7  16 S        2.124    -0.143   147.076    20.411
     8   6 C        2.994     0.042    27.055     8.532
     9   6 C        2.972    -0.038    28.938     8.824
    10   6 C        2.924    -0.035    28.874     8.812
    11   6 C        2.977     0.016    27.648     8.625
    12   6 C        2.977    -0.004    28.115     8.698
    13   6 C        2.984     0.008    27.844     8.656
    14   6 C        2.916    -0.034    28.854     8.808
    15   6 C        2.915    -0.029    28.736     8.790
    16   6 C        2.914    -0.029    28.727     8.789
    17   6 C        2.918    -0.035    28.861     8.810
    18   6 C        2.982     0.012    27.742     8.640
    19   6 C        2.922    -0.045    29.116     8.849
    20   6 C        2.982     0.012    27.737     8.639
    21   6 C        2.918    -0.035    28.863     8.810
    22   6 C        2.914    -0.029    28.716     8.787
    23   6 C        2.915    -0.029    28.719     8.788
    24   6 C        2.916    -0.034    28.843     8.807
    25   6 C        2.984     0.008    27.837     8.655
    26   6 C        2.980    -0.041    29.004     8.834
    27   6 C        2.993     0.043    27.017     8.526
    28  16 S        2.126    -0.143   147.070    20.411
    29   1 H        0.926     0.043     2.411     2.428
    30   1 H        0.926     0.043     2.411     2.428
    31   1 H        0.926     0.050     2.324     2.384
    32   1 H        0.926     0.050     2.323     2.384
    33   1 H        0.926     0.050     2.325     2.384
    34   1 H        0.926     0.043     2.411     2.428
    35   1 H        0.926     0.029     2.602     2.523
    36   1 H        0.926     0.030     2.591     2.517
    37   1 H        0.926     0.031     2.579     2.511
    38   1 H        0.926     0.032     2.560     2.502
    39   1 H        0.925     0.033     2.540     2.492
    40   1 H        0.926     0.032     2.561     2.503
    41   1 H        0.926     0.031     2.572     2.508
    42   1 H        0.926     0.031     2.569     2.506
    43   1 H        0.926     0.031     2.576     2.510
    44   1 H        0.926     0.049     2.326     2.385

molecular dipole:
                 x           y           z       tot (Debye)
 q only:       -0.268      -0.498      -0.179
   full:       -0.250      -0.677      -0.233       1.927

 projected vibrational frequencies (cm⁻¹)
eigval :       -0.00     0.00     0.00     0.00     0.00     0.00
eigval :       15.45    22.92    41.13    46.06    74.22    98.20
eigval :      109.35   123.82   146.78   170.00   182.79   206.60
eigval :      212.54   245.52   258.59   285.85   301.25   323.95
eigval :      337.93   383.02   391.63   395.47   397.90   405.50
eigval :      415.61   448.93   455.62   459.86   464.42   487.71
eigval :      507.92   519.15   526.55   568.11   596.56   600.92
eigval :      612.93   642.76   647.58   650.42   665.69   669.82
eigval :      696.15   720.48   730.28   751.30   760.31   772.20
eigval :      775.71   823.45   842.66   855.76   873.43   873.65
eigval :      874.64   876.90   882.22   908.01   912.78   914.75
eigval :      918.08   918.78   921.11   927.81   928.18   942.19
eigval :      986.99  1015.49  1075.74  1077.43  1088.20  1119.37
eigval :     1133.74  1140.55  1149.28  1158.28  1160.81  1173.18
eigval :     1175.92  1183.13  1185.52  1210.97  1232.12  1234.79
eigval :     1239.06  1255.13  1296.35  1301.66  1310.34  1318.60
eigval :     1346.92  1352.46  1369.37  1397.65  1404.37  1416.86
eigval :     1428.95  1431.47  1441.01  1456.92  1483.27  1526.08
eigval :     1541.42  1542.37  1564.05  1567.10  1567.98  1571.87
eigval :     1608.26  1624.09  3066.58  3070.31  3072.18  3075.91
eigval :     3077.68  3085.15  3086.41  3086.96  3088.00  3091.81
eigval :     3092.50  3093.33  3094.68  3098.44  3099.20  3104.58

   temp. (K)  partition function   enthalpy   heat capacity  entropy
                                   cal/mol     cal/K/mol   cal/K/mol   J/K/mol
 298.15  VIB  0.231E+09            12074.844     80.586     72.377
         ROT  0.193E+08              888.752      2.981     36.319
         INT  0.445E+16            12963.596     83.567    108.696
         TR   0.752E+28             1481.254      4.968     43.774
         TOT                       14444.8500    88.5348   152.4701   637.9347

       T/K    H(0)-H(T)+PV         H(T)/Eh          T*S/Eh         G(T)/Eh
   ------------------------------------------------------------------------
    298.15    0.230193E-01    0.348266E+00    0.724434E-01    0.275822E+00
   ------------------------------------------------------------------------

         :::::::::::::::::::::::::::::::::::::::::::::::::::::
         ::                  THERMODYNAMIC                  ::
         :::::::::::::::::::::::::::::::::::::::::::::::::::::
         :: total free energy         -70.043209090895 Eh   ::
         ::.................................................::
         :: total energy              -70.319031536096 Eh   ::
         :: zero point energy           0.325246552792 Eh   ::
         :: G(RRHO) w/o ZPVE           -0.049424107590 Eh   ::
         :: G(RRHO) contrib.            0.275822445202 Eh   ::
         :::::::::::::::::::::::::::::::::::::::::::::::::::::

           -------------------------------------------------
          | TOTAL ENERGY              -70.319031536096 Eh   |
          | TOTAL ENTHALPY            -69.970765649514 Eh   |
          | TOTAL FREE ENERGY         -70.043209090895 Eh   |
          | GRADIENT NORM               0.000036134402 Eh/α |
          | HOMO-LUMO GAP               2.017277802570 eV   |
           -------------------------------------------------

 * finished run on 2025/09/08 at 11:13:04.383
