   * xtb version 6.7.1 (edcfbbe) compiled by 'albert@albert-system' on 2024-07-22

   ID    Z sym.   atoms
    1    6 C      1-6, 8-27
    2   16 S      7, 28
    3    1 H      29-44

          program call               : xtb data2507/gas/2-TA-AN/2-TA-AN.xyz --gfn 2 --ohess vtight --parallel 40 --molden --ceasefiles --namespace data2507/gas/2-TA-AN/2-TA-AN_gas_S0_preOpt
          :  Hamiltonian                  GFN2-xTB          :
 * total energy  :   -70.3069642 Eh     change       -0.4349801E-09 Eh
 * total energy  :   -70.3158181 Eh     change       -0.8853926E-02 Eh
 * total energy  :   -70.3179899 Eh     change       -0.2171760E-02 Eh
 * total energy  :   -70.3183862 Eh     change       -0.3962816E-03 Eh
 * total energy  :   -70.3185598 Eh     change       -0.1735784E-03 Eh
 * total energy  :   -70.3185851 Eh     change       -0.2533256E-04 Eh
 * total energy  :   -70.3186041 Eh     change       -0.1897258E-04 Eh
 * total energy  :   -70.3186144 Eh     change       -0.1028649E-04 Eh
 * total energy  :   -70.3186263 Eh     change       -0.1194018E-04 Eh
 * total energy  :   -70.3186364 Eh     change       -0.1014721E-04 Eh
 * total energy  :   -70.3186545 Eh     change       -0.1708027E-05 Eh
 * total energy  :   -70.3186557 Eh     change       -0.1264397E-05 Eh
 * total energy  :   -70.3186571 Eh     change       -0.1399543E-05 Eh
 * total energy  :   -70.3186586 Eh     change       -0.1482728E-05 Eh
 * total energy  :   -70.3186595 Eh     change       -0.8434693E-06 Eh
 * total energy  :   -70.3186599 Eh     change       -0.4908607E-06 Eh
 * total energy  :   -70.3186605 Eh     change       -0.5896496E-06 Eh
 * total energy  :   -70.3186615 Eh     change       -0.9325693E-06 Eh
 * total energy  :   -70.3186615 Eh     change       -0.1578897E-07 Eh
   *** GEOMETRY OPTIMIZATION CONVERGED AFTER 22 ITERATIONS ***

 final structure:
================
44
 xtb: 6.7.1 (edcfbbe)
C            6.89800526329633        0.38866223939508       -0.04855036675919
C            6.50676192051656        0.62767662978492       -1.35669686758763
C            5.28583310878627        0.16336555656740       -1.80784572631232
C            4.45617529431427       -0.56122527466624       -0.96200088285476
C            4.84740198458207       -0.79911293018787        0.34886080223499
C            6.06611517019760       -0.31255019903973        0.80351123162625
S            3.86278342683507       -1.74626464819462        1.47908526826054
C            2.23282469478996       -1.19107182315431        1.05487907923670
C            1.31646925702233       -1.02027980713228        2.08451129642570
C            0.01641920115006       -0.64625172844682        1.80799804474580
C           -0.38420693136616       -0.41583255404749        0.49491466826553
C           -1.77943888353733       -0.02486416858112        0.18832887627894
C           -2.73073196922600       -1.01821357841737       -0.07710840624977
C           -2.40289167719770       -2.39922734504044       -0.06637799996174
C           -3.34602562010078       -3.34496594956948       -0.32808349460027
C           -4.67562312408521       -2.97174716863265       -0.61618394685569
C           -5.03014941232479       -1.65843342031391       -0.63563585353227
C           -4.07851950946920       -0.64069049375836       -0.36927340096235
C           -4.42246906852921        0.70738640244440       -0.38587086955437
C           -3.48289323885799        1.69995034977361       -0.12567875903501
C           -3.82505923808999        3.07654005900075       -0.14359905308198
C           -2.89265995992838        4.03389820634926        0.11114298337031
C           -1.56065235432570        3.66985061576946        0.40001643012865
C           -1.19181623687699        2.36003061152805        0.42806587268184
C           -2.13315269445749        1.33009535059426        0.16768188778342
C            0.54026731668322       -0.56170542071276       -0.52967693595754
C            1.84139167547705       -0.95842965331918       -0.25667542993583
S            2.93763864356770       -1.18570130510907       -1.63219746336086
H            7.84971834783519        0.74956111252326        0.31000161341464
H            7.15079592554378        1.17686512858360       -2.02616437712839
H            4.96600544829794        0.33992106399352       -2.82341831322581
H            6.35500019415135       -0.50739337092076        1.82500395903615
H            1.63408640901307       -1.20328125873365        3.09961976622879
H           -0.69602571066694       -0.53130003892573        2.61089075218838
H           -1.38504574742424       -2.68672083532892        0.15394259780936
H           -3.08410973374377       -4.39280062542198       -0.31767893169966
H           -5.40614432290662       -3.74070733221326       -0.82062513554125
H           -6.04618987042281       -1.36260056445768       -0.85535089933729
H           -5.44252780130206        0.98999030909733       -0.60692419262252
H           -4.84791660876688        3.34556480583238       -0.36610952688103
H           -3.16115916256240        5.08005272258056        0.09473940039049
H           -0.83493207621779        4.44486231402949        0.59895880617264
H           -0.17137002866324        2.08220737443310        0.64947757126941
H            0.24801569898711       -0.38510735795722       -1.55390707451074

          :  Hamiltonian                  GFN2-xTB          :
         :: gradient norm              0.000075201139 Eh/a0 ::
         :: HOMO-LUMO gap              2.058310410622 eV    ::
         :: SCC energy               -71.592527433437 Eh    ::
         :: -> dispersion             -0.062622994834 Eh    ::
         :: repulsion energy           1.273865949169 Eh    ::

    * Orbital Energies and Occupations

         #    Occupation            Energy/Eh            Energy/eV
      -------------------------------------------------------------
         1        2.0000           -0.7238003             -19.6956
       ...           ...                  ...                  ...
        54        2.0000           -0.4325967             -11.7716
        55        2.0000           -0.4309367             -11.7264
        56        2.0000           -0.4286462             -11.6641
        57        2.0000           -0.4250659             -11.5666
        58        2.0000           -0.4221674             -11.4878
        59        2.0000           -0.4200627             -11.4305
        60        2.0000           -0.4110573             -11.1854
        61        2.0000           -0.4105156             -11.1707
        62        2.0000           -0.4085943             -11.1184
        63        2.0000           -0.4011736             -10.9165
        64        2.0000           -0.3825897             -10.4108
        65        2.0000           -0.3643012              -9.9131
        66        2.0000           -0.3578194              -9.7368 (HOMO)
        67                         -0.2821778              -7.6784 (LUMO)
        68                         -0.2533393              -6.8937
        69                         -0.2423904              -6.5958
        70                         -0.2407625              -6.5515
        71                         -0.2402421              -6.5373
        72                         -0.2331368              -6.3440
        73                         -0.2226548              -6.0587
        74                         -0.1983170              -5.3965
        75                         -0.1975709              -5.3762
        76                         -0.1792740              -4.8783
        77                         -0.1746231              -4.7517
       ...                                ...                  ...
       138                          0.7143270              19.4378
      -------------------------------------------------------------
                  HL-Gap            0.0756416 Eh            2.0583 eV

     #   Z          covCN         q      C6AA      α(0)
     1   6 C        2.920    -0.031    28.775     8.797
     2   6 C        2.920    -0.031    28.775     8.797
     3   6 C        2.974    -0.036    28.898     8.818
     4   6 C        2.995     0.045    26.982     8.521
     5   6 C        2.994     0.045    26.978     8.520
     6   6 C        2.974    -0.036    28.900     8.818
     7  16 S        2.124    -0.144   147.112    20.414
     8   6 C        2.994     0.042    27.058     8.533
     9   6 C        2.972    -0.037    28.928     8.822
    10   6 C        2.924    -0.035    28.877     8.812
    11   6 C        2.977     0.017    27.631     8.622
    12   6 C        2.978    -0.003    28.106     8.696
    13   6 C        2.986     0.008    27.839     8.655
    14   6 C        2.916    -0.033    28.825     8.804
    15   6 C        2.915    -0.029    28.717     8.787
    16   6 C        2.914    -0.029    28.715     8.787
    17   6 C        2.918    -0.035    28.859     8.809
    18   6 C        2.982     0.012    27.737     8.639
    19   6 C        2.922    -0.045    29.121     8.849
    20   6 C        2.982     0.012    27.741     8.640
    21   6 C        2.918    -0.034    28.857     8.809
    22   6 C        2.914    -0.029    28.723     8.788
    23   6 C        2.915    -0.029    28.727     8.789
    24   6 C        2.916    -0.033    28.827     8.804
    25   6 C        2.985     0.008    27.844     8.656
    26   6 C        2.980    -0.041    29.002     8.834
    27   6 C        2.993     0.044    27.009     8.525
    28  16 S        2.126    -0.142   147.040    20.409
    29   1 H        0.926     0.043     2.411     2.428
    30   1 H        0.926     0.043     2.411     2.428
    31   1 H        0.926     0.050     2.323     2.384
    32   1 H        0.926     0.050     2.323     2.383
    33   1 H        0.926     0.050     2.321     2.383
    34   1 H        0.926     0.042     2.425     2.435
    35   1 H        0.926     0.029     2.601     2.522
    36   1 H        0.926     0.031     2.570     2.507
    37   1 H        0.926     0.031     2.571     2.507
    38   1 H        0.926     0.032     2.559     2.501
    39   1 H        0.925     0.033     2.539     2.492
    40   1 H        0.926     0.032     2.558     2.501
    41   1 H        0.926     0.031     2.576     2.510
    42   1 H        0.926     0.030     2.588     2.516
    43   1 H        0.926     0.027     2.624     2.533
    44   1 H        0.926     0.048     2.339     2.392

molecular dipole:
                 x           y           z       tot (Debye)
 q only:       -0.224       0.558       0.084
   full:       -0.185       0.732       0.119       1.943

 projected vibrational frequencies (cm⁻¹)
eigval :       -0.00    -0.00    -0.00     0.00     0.00     0.00
eigval :      -13.18    20.30    41.72    42.54    72.42    94.04
eigval :      105.88   119.79   144.74   166.06   179.36   206.55
eigval :      211.24   245.71   255.67   285.35   300.67   323.78
eigval :      332.30   383.51   391.67   393.95   397.31   404.57
eigval :      414.67   447.01   455.29   459.55   464.39   489.33
eigval :      508.00   517.02   527.25   568.66   595.42   602.20
eigval :      612.74   642.87   647.59   651.07   666.48   668.54
eigval :      695.57   720.51   729.91   751.23   760.38   772.23
eigval :      775.25   819.10   842.56   856.13   873.54   873.71
eigval :      874.74   876.00   876.53   907.99   910.65   915.09
eigval :      916.74   917.58   921.11   927.25   927.66   942.08
eigval :      986.92  1015.68  1073.44  1075.36  1088.12  1118.82
eigval :     1133.88  1140.26  1149.24  1157.53  1160.14  1173.09
eigval :     1175.89  1182.29  1184.08  1210.73  1232.02  1234.93
eigval :     1236.72  1253.72  1297.01  1303.53  1307.48  1318.35
eigval :     1348.00  1352.30  1368.59  1397.53  1404.31  1417.84
eigval :     1428.99  1432.29  1441.53  1458.26  1485.53  1527.94
eigval :     1542.20  1543.82  1564.76  1567.20  1568.52  1573.61
eigval :     1608.33  1624.46  3066.56  3070.12  3071.89  3074.42
eigval :     3076.11  3083.11  3084.22  3086.92  3088.71  3091.27
eigval :     3091.83  3092.73  3094.72  3098.50  3099.70  3104.54

   temp. (K)  partition function   enthalpy   heat capacity  entropy
                                   cal/mol     cal/K/mol   cal/K/mol   J/K/mol
 298.15  VIB  0.377E+09            12126.250     80.553     73.048
         ROT  0.192E+08              888.752      2.981     36.305
         INT  0.722E+16            13015.002     83.534    109.353
         TR   0.752E+28             1481.254      4.968     43.774
         TOT                       14496.2559    88.5025   153.1272   640.6843

       T/K    H(0)-H(T)+PV         H(T)/Eh          T*S/Eh         G(T)/Eh
   ------------------------------------------------------------------------
    298.15    0.231013E-01    0.348183E+00    0.727557E-01    0.275428E+00
   ------------------------------------------------------------------------

         :::::::::::::::::::::::::::::::::::::::::::::::::::::
         ::                  THERMODYNAMIC                  ::
         :::::::::::::::::::::::::::::::::::::::::::::::::::::
         :: total free energy         -70.043233903671 Eh   ::
         ::.................................................::
         :: total energy              -70.318661484267 Eh   ::
         :: zero point energy           0.325082013367 Eh   ::
         :: G(RRHO) w/o ZPVE           -0.049654432771 Eh   ::
         :: G(RRHO) contrib.            0.275427580596 Eh   ::
         :::::::::::::::::::::::::::::::::::::::::::::::::::::

           -------------------------------------------------
          | TOTAL ENERGY              -70.318661484267 Eh   |
          | TOTAL ENTHALPY            -69.970478216686 Eh   |
          | TOTAL FREE ENERGY         -70.043233903671 Eh   |
          | GRADIENT NORM               0.000075161782 Eh/α |
          | HOMO-LUMO GAP               2.058312137075 eV   |
           -------------------------------------------------

 * finished run on 2025/09/08 at 11:11:49.354
