   * xtb version 6.7.1 (edcfbbe) compiled by 'albert@albert-system' on 2024-07-22

   ID    Z sym.   atoms
    1    6 C      1-6, 8-27
    2   16 S      7, 28
    3    1 H      29-44

          program call               : xtb data2507/gas/2-TA-AN/2-TA-AN_gas_S0_finalOpt.xtbopt.xyz --gfn 2 --spinpol --tblite --uhf 2 --ohess vtight --parallel 40 --molden --ceasefiles --namespace data2507/gas/2-TA-AN/2-TA-AN_gas_T1_preOpt
 * total energy  :   -70.2452128 Eh     change       -0.2048864E-08 Eh
 * total energy  :   -70.2516328 Eh     change       -0.6419942E-02 Eh
 * total energy  :   -70.2531192 Eh     change       -0.1486402E-02 Eh
 * total energy  :   -70.2532406 Eh     change       -0.1214452E-03 Eh
 * total energy  :   -70.2533472 Eh     change       -0.1065950E-03 Eh
 * total energy  :   -70.2534037 Eh     change       -0.5648780E-04 Eh
 * total energy  :   -70.2534859 Eh     change       -0.8216818E-04 Eh
 * total energy  :   -70.2535756 Eh     change       -0.8971571E-04 Eh
 * total energy  :   -70.2536503 Eh     change       -0.7469249E-04 Eh
 * total energy  :   -70.2537126 Eh     change       -0.6230653E-04 Eh
 * total energy  :   -70.2542514 Eh     change       -0.6910473E-06 Eh
 * total energy  :   -70.2542523 Eh     change       -0.9565600E-06 Eh
 * total energy  :   -70.2542536 Eh     change       -0.1245408E-05 Eh
 * total energy  :   -70.2542548 Eh     change       -0.1211773E-05 Eh
 * total energy  :   -70.2542557 Eh     change       -0.9216885E-06 Eh
 * total energy  :   -70.2542563 Eh     change       -0.6080464E-06 Eh
 * total energy  :   -70.2542568 Eh     change       -0.4629690E-06 Eh
 * total energy  :   -70.2542572 Eh     change       -0.4457814E-06 Eh
 * total energy  :   -70.2542572 Eh     change       -0.2675810E-07 Eh
   *** GEOMETRY OPTIMIZATION CONVERGED AFTER 44 ITERATIONS ***

 final structure:
================
44
 xtb: 6.7.1 (edcfbbe)
C            6.40660698401348       -0.94596398366520       -0.80890038321105
C            5.99048659219118       -0.27325292187693       -1.94768176732173
C            4.81367010346286        0.45015998432393       -1.93050335081046
C            4.05159320572368        0.52343424233305       -0.77095541013765
C            4.46834378015202       -0.15138766177315        0.36933944358383
C            5.64337996635761       -0.89219234794202        0.34141205256000
S            3.57947996065735       -0.08499207989064        1.90163735239144
C            1.90469023261206       -0.10022399640202        1.33603785743380
C            0.96902357600476       -0.80065142721866        2.09235418646104
C           -0.35728776409625       -0.81905565079241        1.72560794740201
C           -0.79797124087245       -0.13408774088715        0.58361075028542
C           -2.19924205583892       -0.14098963612073        0.19569758214797
C           -2.88708279203136       -1.39196249252435        0.04247529388848
C           -2.23970008740720       -2.62239342941400        0.14480205888868
C           -2.93594084383931       -3.82586518370465        0.00326666807139
C           -4.28603628952838       -3.81960525882083       -0.26799761737408
C           -4.94865977661904       -2.60501177080707       -0.43247331779757
C           -4.27239233130730       -1.38961127320256       -0.30005578526842
C           -4.92502990504301       -0.16144136256482       -0.53806316255661
C           -4.25695517211768        1.07626127400649       -0.42352712545087
C           -4.92603096249460        2.28096621137852       -0.65415560895118
C           -4.28682485786654        3.50578200878086       -0.47462047749446
C           -2.98164781863753        3.53304216455126       -0.03602510188865
C           -2.29079366705079        2.34081148574840        0.19650741797112
C           -2.88592999969873        1.10021304309006       -0.02772461426502
C            0.15254109023597        0.55771140152238       -0.17279797970665
C            1.48467532478039        0.57976183605361        0.19760188596613
S            2.59464529032086        1.53038765867753       -0.80869281684263
H            7.32379425429413       -1.51440846967573       -0.81647266332049
H            6.58097396116677       -0.31313370753464       -2.85000737189391
H            4.47556757747663        0.98018006034045       -2.80774777833248
H            5.95227596072443       -1.41001561606910        1.23657165739412
H            1.30206028817737       -1.31488907832518        2.98117829752388
H           -1.07674901026552       -1.33486784637734        2.34335629709108
H           -1.17567550346960       -2.65671682829337        0.32320137908050
H           -2.40255439604606       -4.75916685314573        0.10615450773486
H           -4.83012921197597       -4.74673706998466       -0.36965612125060
H           -6.00163083517634       -2.59308259808242       -0.67385985784575
H           -5.96793958654665       -0.16905572798930       -0.81943786472572
H           -5.95905181739819        2.25224879648846       -0.96925698557559
H           -4.82189422406989        4.42421180274804       -0.66462867655196
H           -2.48067187374479        4.47429368291055        0.13407157627009
H           -1.27979650095041        2.39329730052372        0.57046091684048
H           -0.14586376143412        1.06896956291297       -1.07562134027418

 projected vibrational frequencies (cm⁻¹)
eigval :       -0.00    -0.00     0.00     0.00     0.00     0.00
eigval :       19.22    27.12    36.01    48.99    73.70    95.44
eigval :      112.00   129.45   150.98   167.98   190.84   206.88
eigval :      221.04   242.17   263.75   276.63   298.99   318.88
eigval :      331.58   374.13   378.92   387.89   389.84   402.21
eigval :      413.75   421.53   453.57   462.23   469.49   471.39
eigval :      494.63   508.75   519.31   561.09   576.61   590.90
eigval :      604.73   641.93   647.66   649.92   661.73   664.42
eigval :      675.64   705.35   721.39   730.43   743.99   746.49
eigval :      768.46   771.92   824.49   832.62   837.05   844.30
eigval :      873.82   874.43   876.48   884.35   898.26   904.42
eigval :      906.15   908.49   920.00   921.38   924.41   942.04
eigval :      986.93  1009.83  1088.32  1093.56  1095.23  1110.93
eigval :     1118.06  1130.00  1142.63  1149.55  1162.00  1169.95
eigval :     1175.81  1177.85  1180.41  1186.36  1226.16  1234.11
eigval :     1240.91  1249.97  1253.49  1259.56  1305.09  1314.30
eigval :     1319.05  1326.66  1370.78  1375.46  1379.16  1403.09
eigval :     1405.43  1409.20  1425.85  1433.43  1438.82  1471.30
eigval :     1487.33  1507.68  1513.88  1532.36  1540.91  1559.39
eigval :     1564.18  1567.42  3072.77  3074.30  3077.53  3079.78
eigval :     3081.28  3086.82  3087.86  3089.02  3090.21  3092.35
eigval :     3094.05  3095.74  3097.83  3098.31  3099.09  3104.99

   temp. (K)  partition function   enthalpy   heat capacity  entropy
                                   cal/mol     cal/K/mol   cal/K/mol   J/K/mol
 298.15  VIB  0.185E+09            12216.404     81.806     72.737
         ROT  0.195E+08              888.752      2.981     36.340
         INT  0.360E+16            13105.157     84.787    109.077
         TR   0.752E+28             1481.254      4.968     43.774
         TOT                       14586.4107    89.7547   152.8514   639.5304

       T/K    H(0)-H(T)+PV         H(T)/Eh          T*S/Eh         G(T)/Eh
   ------------------------------------------------------------------------
    298.15    0.232449E-01    0.345626E+00    0.726246E-01    0.273001E+00
   ------------------------------------------------------------------------

         :::::::::::::::::::::::::::::::::::::::::::::::::::::
         ::                  THERMODYNAMIC                  ::
         :::::::::::::::::::::::::::::::::::::::::::::::::::::
         :: total free energy         -69.981255859963 Eh   ::
         ::.................................................::
         :: total energy              -70.254257218899 Eh   ::
         :: zero point energy           0.322381079469 Eh   ::
         :: G(RRHO) w/o ZPVE           -0.049379720533 Eh   ::
         :: G(RRHO) contrib.            0.273001358936 Eh   ::
         :::::::::::::::::::::::::::::::::::::::::::::::::::::

           -------------------------------------------------
          | TOTAL ENERGY              -70.254257218899 Eh   |
          | TOTAL ENTHALPY            -69.908631214331 Eh   |
          | TOTAL FREE ENERGY         -69.981255859963 Eh   |
          | GRADIENT NORM               0.000046022448 Eh/α |
           -------------------------------------------------

 * finished run on 2025/09/08 at 11:13:07.836
