   * xtb version 6.7.1 (edcfbbe) compiled by 'albert@albert-system' on 2024-07-22

   ID    Z sym.   atoms
    1    6 C      1-6, 8-27
    2   16 S      7, 28
    3    1 H      29-44

          program call               : xtb data2507/gas/2-TA-AN/2-TA-AN_gas_T1_crest.xyz --gfn 2 --spinpol --tblite --uhf 2 --ohess vtight --parallel 40 --molden --ceasefiles --namespace data2507/gas/2-TA-AN/2-TA-AN_gas_T1_finalOpt
 * total energy  :   -70.2541571 Eh     change        0.4269184E-07 Eh
 * total energy  :   -70.2542113 Eh     change       -0.5415721E-04 Eh
 * total energy  :   -70.2542300 Eh     change       -0.1875102E-04 Eh
 * total energy  :   -70.2542346 Eh     change       -0.4626266E-05 Eh
 * total energy  :   -70.2542393 Eh     change       -0.4645214E-05 Eh
 * total energy  :   -70.2542422 Eh     change       -0.2938754E-05 Eh
 * total energy  :   -70.2542453 Eh     change       -0.3100899E-05 Eh
 * total energy  :   -70.2542479 Eh     change       -0.2583851E-05 Eh
 * total energy  :   -70.2542500 Eh     change       -0.2124602E-05 Eh
 * total energy  :   -70.2542522 Eh     change       -0.2192819E-05 Eh
 * total energy  :   -70.2542609 Eh     change       -0.1219201E-05 Eh
 * total energy  :   -70.2542618 Eh     change       -0.9121081E-06 Eh
 * total energy  :   -70.2542625 Eh     change       -0.6461915E-06 Eh
 * total energy  :   -70.2542629 Eh     change       -0.4180563E-06 Eh
 * total energy  :   -70.2542632 Eh     change       -0.3246533E-06 Eh
 * total energy  :   -70.2542634 Eh     change       -0.2077721E-06 Eh
 * total energy  :   -70.2542636 Eh     change       -0.1265844E-06 Eh
 * total energy  :   -70.2542635 Eh     change        0.3525393E-07 Eh
 * total energy  :   -70.2542636 Eh     change       -0.3898013E-07 Eh
   *** GEOMETRY OPTIMIZATION CONVERGED AFTER 23 ITERATIONS ***

 final structure:
================
44
 xtb: 6.7.1 (edcfbbe)
C            6.40744019648836       -0.89830314085895       -1.02336574343405
C            6.00204468625765       -0.04746249843600       -2.04033136190718
C            4.83249827096826        0.67602314880571       -1.90933577596351
C            4.06719538405429        0.57115619148011       -0.75421391693831
C            4.47313544972139       -0.28213250181591        0.26385770415475
C            5.64061815203271       -1.02148226347250        0.11914516061326
S            3.58395381783166       -0.45273518892125        1.78764442996400
C            1.90794737141633       -0.33997970108863        1.23751116020442
C            0.95865136137988       -1.12650138521620        1.88455214542665
C           -0.37038260696346       -1.05285866176740        1.53499478631401
C           -0.80044680018443       -0.18573905740047        0.51975931228338
C           -2.20495748611502       -0.08828145646891        0.15695071364146
C           -2.93768130781331       -1.27698929104990       -0.17703250688449
C           -2.33287556886552       -2.52918441071151       -0.27594636809736
C           -3.07235615594638       -3.67249982126378       -0.59079782652894
C           -4.42409841883899       -3.57964498400689       -0.83703786323725
C           -5.04530662171878       -2.33300787612094       -0.80179530783960
C           -4.32551728856747       -1.17583848496014       -0.49361180449749
C           -4.93732955989538        0.09513140619494       -0.52861373796635
C           -4.22571902660294        1.27728226114298       -0.23309006965928
C           -4.85515594587108        2.52437320254961       -0.26266154746583
C           -4.17254626634408        3.68451549548558        0.09642091682676
C           -2.86303537975227        3.60027150442407        0.51438877523589
C           -2.21142393425442        2.36456959971157        0.54726593384074
C           -2.85080130289891        1.19435372727965        0.14059977331105
C            0.16400651984876        0.58890306620467       -0.13159167840256
C            1.49886010852571        0.51920769853577        0.22293961518220
S            2.62371583765355        1.59063067049433       -0.63407478802242
H            7.31905234298498       -1.46751730432405       -1.11999591978892
H            6.59528115388020        0.05187221197033       -2.93622332837085
H            4.50282204868940        1.34336160307315       -2.69085418600189
H            5.94120020454084       -1.67916819197923        0.92036788111325
H            1.28376955619409       -1.78152639790591        2.67866544567950
H           -1.09916002335188       -1.63921003849799        2.07381977685894
H           -1.26895631491772       -2.62583675629437       -0.12145325270674
H           -2.57115016231731       -4.62767763308099       -0.64142559811457
H           -5.00140944619624       -4.46133791879540       -1.07216744568346
H           -6.09960118033964       -2.24893921547747       -1.02215977636385
H           -5.98266306092248        0.16556021025054       -0.79174561845402
H           -5.89159458524344        2.57885364600183       -0.56278213071732
H           -4.67746845499051        4.63828410205876        0.06033820908417
H           -2.32827980986007        4.48638863565437        0.82212615311568
H           -1.19579929879904        2.32514400605576        0.91007443633799
H           -0.12663314469853        1.24210430134065       -0.94054263044176

 projected vibrational frequencies (cm⁻¹)
eigval :       -0.00    -0.00     0.00     0.00     0.00     0.00
eigval :       19.21    27.20    35.93    48.71    73.66    95.38
eigval :      112.08   129.16   150.70   167.51   191.08   206.89
eigval :      220.98   241.77   263.51   276.62   299.21   318.76
eigval :      331.45   374.13   378.97   387.98   389.93   402.36
eigval :      413.55   421.65   453.44   462.26   469.47   471.43
eigval :      494.93   508.98   519.43   561.03   576.58   590.81
eigval :      604.78   641.81   647.37   649.66   661.68   664.23
eigval :      675.65   705.41   721.56   730.50   744.03   746.50
eigval :      768.54   771.81   824.40   832.59   837.07   844.37
eigval :      873.70   874.44   876.45   884.37   898.45   904.41
eigval :      906.20   908.39   920.00   921.25   924.37   942.02
eigval :      986.99  1009.86  1088.47  1093.68  1095.33  1110.99
eigval :     1118.25  1130.02  1142.57  1149.49  1161.90  1169.95
eigval :     1175.75  1177.78  1180.42  1186.38  1226.25  1234.19
eigval :     1241.07  1250.00  1253.55  1259.53  1304.89  1314.18
eigval :     1319.09  1326.75  1370.67  1375.27  1379.13  1402.84
eigval :     1405.43  1409.28  1425.98  1433.35  1438.90  1471.23
eigval :     1487.48  1507.34  1513.93  1532.35  1540.61  1559.32
eigval :     1564.11  1567.41  3072.69  3074.24  3077.43  3079.74
eigval :     3081.27  3086.83  3087.97  3089.00  3090.24  3092.37
eigval :     3093.88  3095.64  3097.86  3098.37  3099.11  3105.09

   temp. (K)  partition function   enthalpy   heat capacity  entropy
                                   cal/mol     cal/K/mol   cal/K/mol   J/K/mol
 298.15  VIB  0.186E+09            12218.122     81.800     72.752
         ROT  0.195E+08              888.752      2.981     36.342
         INT  0.364E+16            13106.874     84.781    109.095
         TR   0.752E+28             1481.254      4.968     43.774
         TOT                       14588.1282    89.7494   152.8688   639.6032

       T/K    H(0)-H(T)+PV         H(T)/Eh          T*S/Eh         G(T)/Eh
   ------------------------------------------------------------------------
    298.15    0.232477E-01    0.345623E+00    0.726329E-01    0.272990E+00
   ------------------------------------------------------------------------

         :::::::::::::::::::::::::::::::::::::::::::::::::::::
         ::                  THERMODYNAMIC                  ::
         :::::::::::::::::::::::::::::::::::::::::::::::::::::
         :: total free energy         -69.981273417956 Eh   ::
         ::.................................................::
         :: total energy              -70.254263534565 Eh   ::
         :: zero point energy           0.322375368706 Eh   ::
         :: G(RRHO) w/o ZPVE           -0.049385252098 Eh   ::
         :: G(RRHO) contrib.            0.272990116608 Eh   ::
         :::::::::::::::::::::::::::::::::::::::::::::::::::::

           -------------------------------------------------
          | TOTAL ENERGY              -70.254263534565 Eh   |
          | TOTAL ENTHALPY            -69.908640503828 Eh   |
          | TOTAL FREE ENERGY         -69.981273417956 Eh   |
          | GRADIENT NORM               0.000058384930 Eh/α |
           -------------------------------------------------

 * finished run on 2025/09/08 at 11:14:18.238
