   * xtb version 6.7.1 (edcfbbe) compiled by 'albert@albert-system' on 2024-07-22

   ID    Z sym.   atoms
    1    8 O      1, 10, 11
    2    6 C      2-8, 12-19, 21-42
    3   16 S      9
    4   14 Si     20
    5    1 H      43-68

          program call               : xtb data2507/toluene/TXO-P-Si/TXO-P-Si_toluene_S0_crest.xyz --gfn 2 --gbsa toluene --ohess vtight --parallel 40 --molden --ceasefiles --namespace data2507/toluene/TXO-P-Si/TXO-P-Si_toluene_S0_finalOpt
      * Solvation model:               GBSA
        Solvent                        toluene
        Solvent mass                       9.2140E+01 g/mol
          :  Hamiltonian                  GFN2-xTB          :
 * total energy  :  -109.6110825 Eh     change       -0.1502769E-08 Eh
 * total energy  :  -109.6112028 Eh     change       -0.1202402E-03 Eh
 * total energy  :  -109.6112718 Eh     change       -0.6901503E-04 Eh
 * total energy  :  -109.6112826 Eh     change       -0.1079332E-04 Eh
 * total energy  :  -109.6112959 Eh     change       -0.1334114E-04 Eh
 * total energy  :  -109.6113002 Eh     change       -0.4231286E-05 Eh
 * total energy  :  -109.6113085 Eh     change       -0.8286930E-05 Eh
 * total energy  :  -109.6113132 Eh     change       -0.4758186E-05 Eh
 * total energy  :  -109.6113241 Eh     change       -0.1089352E-04 Eh
 * total energy  :  -109.6113175 Eh     change        0.6606361E-05 Eh
 * total energy  :  -109.6113420 Eh     change       -0.1812065E-06 Eh
 * total energy  :  -109.6113421 Eh     change       -0.1421580E-06 Eh
 * total energy  :  -109.6113422 Eh     change       -0.1012730E-06 Eh
 * total energy  :  -109.6113423 Eh     change       -0.1198525E-06 Eh
 * total energy  :  -109.6113425 Eh     change       -0.1503395E-06 Eh
 * total energy  :  -109.6113426 Eh     change       -0.1740035E-06 Eh
 * total energy  :  -109.6113428 Eh     change       -0.1655963E-06 Eh
 * total energy  :  -109.6113429 Eh     change       -0.1255897E-06 Eh
 * total energy  :  -109.6113430 Eh     change       -0.8796088E-07 Eh
   *** GEOMETRY OPTIMIZATION CONVERGED AFTER 39 ITERATIONS ***

 final structure:
================
68
 xtb: 6.7.1 (edcfbbe)
O            4.63921417561746        2.18208838899403       -1.33245895294889
C            5.06103359672057        1.24748126250322       -0.67556011965146
C            6.41622240834599        1.28477484002856       -0.07171572272016
C            6.98345487313266        2.52865283035677        0.21426741991369
C            8.23200377513763        2.61132015060234        0.80400385167624
C            8.93809725401004        1.45787054582008        1.11231946509169
C            8.39412806526113        0.21602862748799        0.81661579904979
C            7.14469639049658        0.14038686306578        0.23652047770692
S            6.47137742748140       -1.44279481573643       -0.24597699253789
O            6.77194533859354       -1.64453147274309       -1.64817408795077
O            6.91592408271019       -2.47457185390821        0.66125610064083
C            4.71417589998432       -1.18734821177425       -0.08560929805616
C            3.87676326132361       -2.24081553198379        0.22119416497470
C            2.50722531799970       -2.04297106219974        0.26221014998613
C            1.96125936102173       -0.79062712438420       -0.02820364239024
C            0.50707302709853       -0.57967723156104       -0.00481071812151
C           -0.11038473258329        0.22124977062647       -0.96485913105815
C           -1.47774677054881        0.41267835693504       -0.94155822911816
C           -2.27591759960432       -0.17573208050826        0.03690308461781
Si          -4.15550313991203        0.09327950446974        0.03182508165719
C           -4.95926182717732       -1.02277614402205       -1.27385961581160
C           -4.21911544010427       -1.59933019452534       -2.30148800159437
C           -4.82354391938401       -2.39983077650170       -3.25503769492869
C           -6.18679074119412       -2.63766113831541       -3.19810530695921
C           -6.93925838464741       -2.07355996539834       -2.18066095770363
C           -6.32827528678644       -1.27579946580945       -1.23005198869620
C           -4.87361724573313       -0.35290820965134        1.73029674116481
C           -5.09679962747194       -1.68495348852971        2.07170441570099
C           -5.61236594836086       -2.02982610936858        3.30811160547965
C           -5.91726720889634       -1.04254080263764        4.23111625273457
C           -5.70363135750433        0.28725372722205        3.90807641835735
C           -5.18692982785563        0.62507625330521        2.66946042462067
C           -4.48602571963609        1.91834671135323       -0.36463637836192
C           -3.69319969147848        2.91531473172367        0.19926835763432
C           -3.93064790456094        4.25240092784967       -0.06397749660027
C           -4.97066272215704        4.61890274403031       -0.90277309751221
C           -5.76682317685697        3.64077660078498       -1.47529030025274
C           -5.52433591973236        2.30500344384756       -1.20651654240633
C           -1.65070015633284       -0.96670770522732        0.99593172107592
C           -0.28450851908453       -1.17190757423605        0.97789983343088
C            2.82266890678289        0.25801995570693       -0.34299214732267
C            4.20377551281549        0.07629838277153       -0.36786951505029
H            6.42119286071315        3.41700457563873       -0.03214783090509
H            8.65700184020957        3.57888117207900        1.02251467790646
H            9.91113388355482        1.52199936169043        1.57404485797944
H            8.91797617345801       -0.70236364800199        1.03152250692314
H            4.31644839822201       -3.20447765919487        0.42662118603326
H            1.85454136442444       -2.86993363148451        0.49527526154893
H            0.48350601771678        0.67419954280490       -1.74537405171377
H           -1.93917480908517        1.03558188258182       -1.69459931949806
H           -3.15431488430073       -1.42219060278876       -2.35123289406881
H           -4.23109106467325       -2.83992474522402       -4.04514907806550
H           -6.66105985660965       -3.26236547700980       -3.94178167842466
H           -8.00347352340163       -2.25742856645424       -2.12939905410450
H           -6.92011054327577       -0.84401276435518       -0.43476042115651
H           -4.86803165626124       -2.45997610177918        1.35339839483155
H           -5.77947872733114       -3.06941877561818        3.55360142118516
H           -6.32202939506606       -1.30884591457277        5.19724921021762
H           -5.94251158618253        1.06202532062190        4.62327270633798
H           -5.02844120059236        1.66511344821557        2.42265851500364
H           -2.87632565016753        2.63584638107214        0.85008082161182
H           -3.30437749504616        5.01156485754688        0.38373395706513
H           -5.15828924546805        5.66275659292546       -1.11099171912488
H           -6.57756714186201        3.92104297088170       -2.13334271101488
H           -6.14698653020050        1.54754338464848       -1.66087579262942
H           -2.24598741162556       -1.42402617075872        1.77261082180217
H            0.17820466802192       -1.77393411492123        1.74610570814352
H            2.43487527009653        1.24366194229391       -0.55347900744326

          :  Hamiltonian                  GFN2-xTB          :
         :: gradient norm              0.000027627762 Eh/a0 ::
         :: HOMO-LUMO gap              1.739797965170 eV    ::
         :: SCC energy              -111.506370847418 Eh    ::
         :: -> dispersion             -0.094429587184 Eh    ::
         :: -> Gsolv                  -0.055900853833 Eh    ::
         :: repulsion energy           1.895027817908 Eh    ::

    * Orbital Energies and Occupations

         #    Occupation            Energy/Eh            Energy/eV
      -------------------------------------------------------------
         1        2.0000           -0.7868980             -21.4126
       ...           ...                  ...                  ...
        89        2.0000           -0.4183780             -11.3846
        90        2.0000           -0.4096110             -11.1461
        91        2.0000           -0.4081704             -11.1069
        92        2.0000           -0.4044846             -11.0066
        93        2.0000           -0.4039412             -10.9918
        94        2.0000           -0.4029221             -10.9641
        95        2.0000           -0.4016197             -10.9286
        96        2.0000           -0.4009451             -10.9103
        97        2.0000           -0.4006983             -10.9036
        98        2.0000           -0.3996658             -10.8755
        99        2.0000           -0.3867516             -10.5240
       100        2.0000           -0.3839500             -10.4478
       101        2.0000           -0.3832796             -10.4296 (HOMO)
       102                         -0.3193432              -8.6898 (LUMO)
       103                         -0.2747796              -7.4771
       104                         -0.2654932              -7.2244
       105                         -0.2575525              -7.0084
       106                         -0.2398618              -6.5270
       107                         -0.2351815              -6.3996
       108                         -0.2340215              -6.3680
       109                         -0.2282579              -6.2112
       110                         -0.2254981              -6.1361
       111                         -0.2202577              -5.9935
       112                         -0.2192046              -5.9649
       ...                                ...                  ...
       204                          1.1705810              31.8531
      -------------------------------------------------------------
                  HL-Gap            0.0639365 Eh            1.7398 eV

     #   Z          covCN         q      C6AA      α(0)
     1   8 O        0.858    -0.376    21.208     6.174
     2   6 C        2.829     0.226    23.263     7.903
     3   6 C        3.014    -0.014    28.333     8.731
     4   6 C        2.926    -0.010    28.274     8.720
     5   6 C        2.917    -0.017    28.442     8.745
     6   6 C        2.921    -0.012    28.308     8.725
     7   6 C        2.954    -0.018    28.447     8.748
     8   6 C        2.971    -0.070    29.730     8.944
     9  16 S        3.830     0.957   107.904    17.483
    10   8 O        0.860    -0.583    25.703     6.797
    11   8 O        0.860    -0.561    25.174     6.727
    12   6 C        2.971    -0.075    29.868     8.965
    13   6 C        2.951    -0.019    28.488     8.754
    14   6 C        2.926    -0.021    28.522     8.758
    15   6 C        2.973     0.028    27.378     8.583
    16   6 C        2.978     0.011    27.773     8.645
    17   6 C        2.921    -0.032    28.806     8.801
    18   6 C        2.936    -0.030    28.739     8.792
    19   6 C        2.861    -0.089    30.232     9.012
    20  14 Si       3.609     0.490    98.202    19.026
    21   6 C        2.862    -0.092    30.296     9.022
    22   6 C        2.935    -0.033    28.828     8.806
    23   6 C        2.917    -0.031    28.771     8.796
    24   6 C        2.920    -0.030    28.737     8.791
    25   6 C        2.917    -0.031    28.777     8.797
    26   6 C        2.938    -0.032    28.791     8.800
    27   6 C        2.862    -0.092    30.294     9.022
    28   6 C        2.938    -0.032    28.798     8.801
    29   6 C        2.917    -0.031    28.776     8.797
    30   6 C        2.920    -0.029    28.736     8.791
    31   6 C        2.917    -0.031    28.768     8.795
    32   6 C        2.935    -0.033    28.819     8.804
    33   6 C        2.862    -0.092    30.299     9.022
    34   6 C        2.938    -0.032    28.801     8.802
    35   6 C        2.917    -0.031    28.777     8.797
    36   6 C        2.920    -0.029    28.736     8.791
    37   6 C        2.917    -0.031    28.769     8.796
    38   6 C        2.935    -0.033    28.818     8.804
    39   6 C        2.933    -0.031    28.778     8.798
    40   6 C        2.921    -0.033    28.818     8.803
    41   6 C        2.932    -0.018    28.466     8.750
    42   6 C        3.013    -0.016    28.380     8.739
    43   1 H        0.926     0.079     1.988     2.205
    44   1 H        0.926     0.079     1.992     2.207
    45   1 H        0.926     0.078     1.995     2.209
    46   1 H        0.926     0.066     2.128     2.281
    47   1 H        0.926     0.064     2.149     2.292
    48   1 H        0.926     0.077     2.014     2.220
    49   1 H        0.926     0.038     2.473     2.459
    50   1 H        0.926     0.031     2.573     2.509
    51   1 H        0.926     0.024     2.669     2.555
    52   1 H        0.926     0.028     2.617     2.530
    53   1 H        0.926     0.028     2.609     2.526
    54   1 H        0.926     0.028     2.618     2.530
    55   1 H        0.925     0.022     2.705     2.572
    56   1 H        0.926     0.023     2.686     2.563
    57   1 H        0.926     0.028     2.612     2.527
    58   1 H        0.926     0.029     2.605     2.524
    59   1 H        0.926     0.028     2.615     2.529
    60   1 H        0.926     0.024     2.674     2.557
    61   1 H        0.926     0.023     2.687     2.563
    62   1 H        0.926     0.028     2.610     2.527
    63   1 H        0.926     0.029     2.606     2.525
    64   1 H        0.926     0.028     2.620     2.531
    65   1 H        0.926     0.023     2.682     2.561
    66   1 H        0.926     0.033     2.538     2.491
    67   1 H        0.926     0.041     2.441     2.443
    68   1 H        0.926     0.077     2.006     2.215

molecular dipole:
                 x           y           z       tot (Debye)
 q only:       -1.562       1.382       1.810
   full:       -1.391       1.166       1.743       6.396

 projected vibrational frequencies (cm⁻¹)
eigval :       -0.00    -0.00     0.00     0.00     0.00     0.00
eigval :        9.40    10.85    18.61    21.69    28.13    30.07
eigval :       34.02    35.43    39.16    41.71    47.08    51.26
eigval :       56.47    90.79    94.45   116.15   130.74   131.69
eigval :      149.12   156.03   160.78   178.36   190.22   202.46
eigval :      209.40   216.56   223.56   230.15   257.86   267.26
eigval :      275.93   300.50   329.53   352.28   356.37   360.02
eigval :      360.92   362.38   363.32   378.31   394.06   412.26
eigval :      415.81   423.40   432.02   436.81   465.88   477.15
eigval :      480.16   491.93   501.51   513.12   541.24   561.91
eigval :      588.60   589.07   589.68   595.39   604.03   617.02
eigval :      651.34   661.73   662.33   663.59   664.05   669.18
eigval :      674.53   691.34   704.32   706.73   708.40   731.49
eigval :      733.99   735.50   737.13   737.29   786.41   800.07
eigval :      816.64   841.65   873.90   881.16   883.26   885.71
eigval :      891.09   894.49   905.64   907.12   908.87   920.66
eigval :      923.33   924.78   930.65   931.08   932.32   933.57
eigval :      935.69   936.06   936.40   937.02   937.14   974.52
eigval :      976.10   976.19   999.76  1016.71  1063.29  1077.31
eigval :     1080.32  1083.13  1083.89  1084.28  1089.03  1118.97
eigval :     1119.90  1121.23  1140.56  1142.25  1148.44  1148.56
eigval :     1148.74  1148.99  1161.07  1166.57  1176.83  1179.99
eigval :     1180.42  1181.13  1195.64  1205.02  1205.87  1206.15
eigval :     1209.56  1218.33  1225.19  1241.41  1274.73  1285.58
eigval :     1286.06  1288.90  1297.65  1307.67  1308.51  1309.29
eigval :     1309.86  1318.38  1325.97  1370.88  1393.98  1408.13
eigval :     1417.15  1418.20  1419.53  1438.39  1444.36  1462.01
eigval :     1462.95  1463.02  1482.70  1549.19  1552.74  1556.23
eigval :     1566.00  1574.19  1574.73  1575.25  1585.19  1589.14
eigval :     1591.37  1591.60  1592.90  1666.03  3057.75  3058.02
eigval :     3058.84  3060.38  3060.56  3061.11  3066.93  3067.18
eigval :     3067.77  3067.96  3071.54  3072.61  3073.09  3073.57
eigval :     3080.13  3081.17  3081.39  3082.18  3084.86  3091.17
eigval :     3094.84  3095.52  3096.51  3101.73  3105.30  3107.09

   temp. (K)  partition function   enthalpy   heat capacity  entropy
                                   cal/mol     cal/K/mol   cal/K/mol   J/K/mol
 298.15  VIB  0.189E+19            21368.208    126.414    135.466
         ROT  0.817E+08              888.752      2.981     39.186
         INT  0.154E+27            22256.960    129.394    174.652
         TR   0.135E+29             1481.254      4.968     44.931
         TOT                       23738.2138   134.3626   219.5828   918.7344

       T/K    H(0)-H(T)+PV         H(T)/Eh          T*S/Eh         G(T)/Eh
   ------------------------------------------------------------------------
    298.15    0.378293E-01    0.543949E+00    0.104331E+00    0.439618E+00
   ------------------------------------------------------------------------

         :::::::::::::::::::::::::::::::::::::::::::::::::::::
         ::                  THERMODYNAMIC                  ::
         :::::::::::::::::::::::::::::::::::::::::::::::::::::
         :: total free energy        -109.171725286797 Eh   ::
         ::.................................................::
         :: total energy             -109.611343033179 Eh   ::
         :: zero point energy           0.506119366091 Eh   ::
         :: G(RRHO) w/o ZPVE           -0.066501619709 Eh   ::
         :: G(RRHO) contrib.            0.439617746382 Eh   ::
         :::::::::::::::::::::::::::::::::::::::::::::::::::::

           -------------------------------------------------
          | TOTAL ENERGY             -109.611343033179 Eh   |
          | TOTAL ENTHALPY           -109.067394415493 Eh   |
          | TOTAL FREE ENERGY        -109.171725286797 Eh   |
          | GRADIENT NORM               0.000027581707 Eh/α |
          | HOMO-LUMO GAP               1.739799379071 eV   |
           -------------------------------------------------

 * finished run on 2025/07/18 at 11:56:10.151
