   * xtb version 6.7.1 (edcfbbe) compiled by 'albert@albert-system' on 2024-07-22

   ID    Z sym.   atoms
    1    8 O      1, 10, 11
    2    6 C      2-8, 12-19, 21-42
    3   16 S      9
    4   14 Si     20
    5    1 H      43-68

          program call               : xtb data2507/toluene/TXO-P-Si/TXO-P-Si_toluene_T1_crest.xyz --gfn 2 --uhf 2 --gbsa toluene --ohess vtight --parallel 40 --molden --ceasefiles --namespace data2507/toluene/TXO-P-Si/TXO-P-Si_toluene_T1_finalOpt
      * Solvation model:               GBSA
        Solvent                        toluene
        Solvent mass                       9.2140E+01 g/mol
          :  Hamiltonian                  GFN2-xTB          :
 * total energy  :  -109.5311770 Eh     change       -0.3917464E-08 Eh
 * total energy  :  -109.5314555 Eh     change       -0.2784842E-03 Eh
 * total energy  :  -109.5316281 Eh     change       -0.1726635E-03 Eh
 * total energy  :  -109.5316447 Eh     change       -0.1656412E-04 Eh
 * total energy  :  -109.5316574 Eh     change       -0.1269684E-04 Eh
 * total energy  :  -109.5316622 Eh     change       -0.4779647E-05 Eh
 * total energy  :  -109.5316661 Eh     change       -0.3869081E-05 Eh
 * total energy  :  -109.5316702 Eh     change       -0.4185034E-05 Eh
 * total energy  :  -109.5316761 Eh     change       -0.5865540E-05 Eh
 * total energy  :  -109.5316826 Eh     change       -0.6455326E-05 Eh
 * total energy  :  -109.5316915 Eh     change       -0.1577876E-05 Eh
 * total energy  :  -109.5316936 Eh     change       -0.2134400E-05 Eh
 * total energy  :  -109.5316961 Eh     change       -0.2442689E-05 Eh
 * total energy  :  -109.5316980 Eh     change       -0.1904824E-05 Eh
 * total energy  :  -109.5316990 Eh     change       -0.9803987E-06 Eh
 * total energy  :  -109.5316996 Eh     change       -0.6247100E-06 Eh
 * total energy  :  -109.5317000 Eh     change       -0.4426714E-06 Eh
 * total energy  :  -109.5317005 Eh     change       -0.4867769E-06 Eh
 * total energy  :  -109.5317005 Eh     change       -0.3396002E-07 Eh
   *** GEOMETRY OPTIMIZATION CONVERGED AFTER 22 ITERATIONS ***

 final structure:
================
68
 xtb: 6.7.1 (edcfbbe)
O            4.44278216344057       -2.41965377565800        0.73655416761480
C            4.99407553200826       -1.34079719058226        0.38011692789526
C            6.40577385357013       -1.31081833431102        0.04587017077377
C            7.07621045823248       -2.55029234439106       -0.07417413286922
C            8.38475495145862       -2.60730093493644       -0.48277178450058
C            9.09319138906040       -1.44443306668217       -0.78535075632945
C            8.46931038513740       -0.21716919547610       -0.64080213078938
C            7.15520208563541       -0.16284205075646       -0.22212218039872
S            6.45524763573426        1.43029433068711        0.13666048528911
O            6.71981182785517        1.73892101805038        1.53030978015521
O            6.91327244828654        2.41902244159110       -0.81646649427758
C            4.71698350931253        1.14016629871030       -0.05895921882989
C            3.89543935263106        2.21276826262839       -0.34720937842190
C            2.52388673277566        2.05429113320143       -0.34170922710123
C            1.96693448256103        0.80126304609421       -0.02879618324060
C            0.51123938052419        0.60483522445980       -0.01749846998743
C           -0.30147284367884        1.22203632711666       -0.96971608367921
C           -1.67054321512042        1.04872685364744       -0.94207126919169
C           -2.27675780351671        0.24678750152253        0.02311605951410
Si          -4.14633710562925       -0.06654873808378        0.02275762020663
C           -4.74261225975113       -0.11916781124034        1.82357906823442
C           -4.24310546124180        0.79635596480744        2.74827523663688
C           -4.70490819780210        0.81076195892400        4.05186569808721
C           -5.66913414187772       -0.09889207476496        4.45643555170701
C           -6.16945466362053       -1.01974303945020        3.55030710994570
C           -5.70628136112471       -1.03047586932683        2.24637749811345
C           -5.01192063135842        1.30861417226606       -0.96760571920072
C           -5.64047616047330        2.36239197827368       -0.31319651340243
C           -6.25743531080425        3.37141874248899       -1.03305221134856
C           -6.25254852335980        3.34012089183280       -2.41732260016165
C           -5.63138202720415        2.29446007687203       -3.08055661636484
C           -5.01690026088980        1.28614343809477       -2.35861875207933
C           -4.57075474614007       -1.71670367850662       -0.82799813225832
C           -3.60186914342769       -2.70108526634301       -0.98318790224044
C           -3.91413963067286       -3.90262742064046       -1.59672172249934
C           -5.19864074021905       -4.13418432832183       -2.05869174735462
C           -6.17178760989301       -3.15998459506661       -1.90778630610003
C           -5.85733025716836       -1.95889995971488       -1.29586882358530
C           -1.46138304616222       -0.35902659636304        0.97874479226324
C           -0.09139404145743       -0.19580672538605        0.95516178512916
C            2.80195229855844       -0.26562144112078        0.24151403352807
C            4.20552428847984       -0.13653762488482        0.19912399091344
H            6.50872430762952       -3.44081264818674        0.15309083866377
H            8.86884808275230       -3.56823453245288       -0.57553559602672
H           10.11951020874332       -1.49444976031219       -1.11220076814493
H            8.98148241738091        0.71242171403378       -0.83644222392845
H            4.35774598145726        3.16683976998282       -0.54906964439255
H            1.88501870068434        2.90065001650328       -0.53490745947201
H            0.14816122791203        1.82740376887940       -1.74220341510834
H           -2.28127180432213        1.54103904416487       -1.68395371131722
H           -3.48672360897742        1.50443222851088        2.44165563921714
H           -4.31070990761420        1.53068580233867        4.75492074524678
H           -6.02489037623805       -0.09334496813035        5.47666103439007
H           -6.91957264411255       -1.73243823303339        3.86170477495131
H           -6.09574964078726       -1.75635161286279        1.54793731109304
H           -5.65123068991912        2.39219072192741        0.76609325625622
H           -6.74266298010270        4.18355902138009       -0.51068283124230
H           -6.73335989011260        4.12809321640247       -2.97901390114443
H           -5.62704617529034        2.26373893881623       -4.16069075373549
H           -4.54021213658625        0.46933596766464       -2.88142631646652
H           -2.59684323971605       -2.52731908927263       -0.62916228035794
H           -3.15049083395823       -4.65835646256222       -1.71306300034345
H           -5.44137430191447       -5.07232836759844       -2.53680990695441
H           -7.17549931263025       -3.33442175125886       -2.26790093414927
H           -6.61828095817523       -1.19975172177219       -1.18626345207200
H           -1.90812848924367       -0.97226100899682        1.74770252927469
H            0.52066751849247       -0.67064282598859        1.70752357776436
H            2.41044954497721       -1.25085042754209        0.44850051500321

          :  Hamiltonian                  GFN2-xTB          :
         :: gradient norm              0.000129594515 Eh/a0 ::
         :: HOMO-LUMO gap              1.052051228176 eV    ::
         :: SCC energy              -111.418567322729 Eh    ::
         :: -> dispersion             -0.094323638586 Eh    ::
         :: -> Gsolv                  -0.063939441597 Eh    ::
         :: repulsion energy           1.886866759231 Eh    ::

    * Orbital Energies and Occupations

         #    Occupation            Energy/Eh            Energy/eV
      -------------------------------------------------------------
         1        2.0000           -0.7785234             -21.1847
       ...           ...                  ...                  ...
        90        2.0000           -0.4152865             -11.3005
        91        2.0000           -0.4146506             -11.2832
        92        2.0000           -0.4139083             -11.2630
        93        2.0000           -0.4121568             -11.2154
        94        2.0000           -0.4114574             -11.1963
        95        2.0000           -0.4104362             -11.1685
        96        2.0000           -0.4103588             -11.1664
        97        2.0000           -0.4049348             -11.0188
        98        1.9994           -0.3990886             -10.8598
        99        1.9874           -0.3962006             -10.7812
       100        1.8188           -0.3934869             -10.7073
       101        1.1943           -0.3907027             -10.6316
       102        1.0000           -0.3094229              -8.4198 (HOMO)
       103                         -0.2707610              -7.3678 (LUMO)
       104                         -0.2511371              -6.8338
       105                         -0.2500033              -6.8029
       106                         -0.2457866              -6.6882
       107                         -0.2446860              -6.6582
       108                         -0.2414482              -6.5701
       109                         -0.2332496              -6.3470
       110                         -0.2323275              -6.3220
       111                         -0.2295343              -6.2459
       112                         -0.2285164              -6.2182
       113                         -0.2282488              -6.2110
       ...                                ...                  ...
       204                          1.1657580              31.7219
      -------------------------------------------------------------
                  HL-Gap            0.0386620 Eh            1.0520 eV

     #   Z          covCN         q      C6AA      α(0)
     1   8 O        0.858    -0.446    22.618     6.376
     2   6 C        2.835     0.169    24.353     8.087
     3   6 C        3.008    -0.012    28.297     8.726
     4   6 C        2.927    -0.021    28.535     8.760
     5   6 C        2.916    -0.026    28.641     8.776
     6   6 C        2.920    -0.032    28.797     8.800
     7   6 C        2.968    -0.020    28.512     8.758
     8   6 C        2.972    -0.085    30.125     9.003
     9  16 S        3.852     0.962   107.747    17.470
    10   8 O        0.860    -0.587    25.800     6.810
    11   8 O        0.860    -0.569    25.358     6.752
    12   6 C        2.971    -0.088    30.209     9.016
    13   6 C        2.963    -0.021    28.519     8.759
    14   6 C        2.923    -0.040    28.991     8.830
    15   6 C        2.972     0.019    27.579     8.614
    16   6 C        2.978     0.022    27.499     8.602
    17   6 C        2.921    -0.029    28.734     8.790
    18   6 C        2.932    -0.028    28.709     8.787
    19   6 C        2.862    -0.083    30.072     8.989
    20  14 Si       3.609     0.511    97.704    18.978
    21   6 C        2.863    -0.084    30.100     8.993
    22   6 C        2.937    -0.030    28.747     8.793
    23   6 C        2.917    -0.027    28.684     8.783
    24   6 C        2.920    -0.024    28.612     8.772
    25   6 C        2.917    -0.027    28.677     8.781
    26   6 C        2.933    -0.030    28.751     8.794
    27   6 C        2.863    -0.082    30.041     8.984
    28   6 C        2.935    -0.031    28.764     8.796
    29   6 C        2.918    -0.027    28.670     8.780
    30   6 C        2.920    -0.026    28.647     8.777
    31   6 C        2.918    -0.027    28.678     8.782
    32   6 C        2.935    -0.030    28.747     8.793
    33   6 C        2.864    -0.080    29.983     8.976
    34   6 C        2.934    -0.030    28.755     8.794
    35   6 C        2.918    -0.026    28.657     8.778
    36   6 C        2.920    -0.026    28.641     8.776
    37   6 C        2.918    -0.027    28.668     8.780
    38   6 C        2.935    -0.029    28.736     8.791
    39   6 C        2.934    -0.028    28.690     8.784
    40   6 C        2.921    -0.028    28.713     8.787
    41   6 C        2.934    -0.025    28.638     8.776
    42   6 C        3.007    -0.013    28.328     8.731
    43   1 H        0.926     0.066     2.125     2.279
    44   1 H        0.926     0.067     2.113     2.273
    45   1 H        0.926     0.064     2.156     2.296
    46   1 H        0.926     0.051     2.312     2.378
    47   1 H        0.926     0.052     2.299     2.371
    48   1 H        0.926     0.067     2.123     2.278
    49   1 H        0.926     0.048     2.348     2.396
    50   1 H        0.926     0.045     2.384     2.415
    51   1 H        0.926     0.032     2.559     2.502
    52   1 H        0.926     0.036     2.497     2.471
    53   1 H        0.926     0.037     2.487     2.466
    54   1 H        0.926     0.037     2.489     2.467
    55   1 H        0.926     0.035     2.515     2.480
    56   1 H        0.926     0.033     2.539     2.492
    57   1 H        0.926     0.038     2.474     2.460
    58   1 H        0.926     0.038     2.473     2.459
    59   1 H        0.926     0.038     2.481     2.463
    60   1 H        0.926     0.035     2.515     2.480
    61   1 H        0.926     0.033     2.544     2.494
    62   1 H        0.926     0.039     2.468     2.457
    63   1 H        0.926     0.040     2.455     2.450
    64   1 H        0.926     0.039     2.458     2.452
    65   1 H        0.926     0.037     2.492     2.468
    66   1 H        0.926     0.041     2.436     2.441
    67   1 H        0.926     0.044     2.394     2.419
    68   1 H        0.926     0.069     2.095     2.263

molecular dipole:
                 x           y           z       tot (Debye)
 q only:       -7.397      -0.875      -1.315
   full:       -7.046      -0.646      -1.243      18.259

 projected vibrational frequencies (cm⁻¹)
eigval :       -0.00    -0.00    -0.00     0.00     0.00     0.00
eigval :        7.09     9.39    15.45    21.46    23.52    27.73
eigval :       30.86    33.15    36.93    39.99    42.22    49.57
eigval :       58.87    90.36    97.59   122.60   127.42   136.03
eigval :      143.09   150.02   154.31   157.81   180.64   197.94
eigval :      201.93   203.98   213.98   222.45   261.72   263.96
eigval :      276.10   298.12   322.01   338.38   356.58   358.06
eigval :      359.38   361.53   363.25   380.70   388.50   405.71
eigval :      407.64   418.45   420.08   429.63   450.80   454.04
eigval :      468.03   487.89   492.55   501.02   521.65   537.16
eigval :      577.58   581.16   582.66   584.50   587.93   592.98
eigval :      601.93   638.38   642.14   644.89   645.84   651.37
eigval :      660.63   665.78   673.85   680.06   689.57   703.24
eigval :      727.90   730.83   733.80   735.78   762.04   789.75
eigval :      808.97   815.23   853.89   857.53   860.25   864.34
eigval :      871.73   872.14   899.77   899.99   900.52   904.47
eigval :      906.82   907.22   918.31   921.42   924.42   925.70
eigval :      929.17   930.02   931.35   931.63   933.42   950.12
eigval :      953.01   965.69   988.69  1000.31  1044.03  1059.33
eigval :     1070.88  1072.29  1076.19  1079.74  1081.58  1094.36
eigval :     1097.60  1116.81  1117.98  1120.47  1127.62  1131.40
eigval :     1132.13  1139.29  1145.03  1158.55  1168.14  1175.35
eigval :     1175.60  1178.05  1179.35  1188.98  1198.83  1200.47
eigval :     1202.75  1206.04  1215.16  1219.48  1269.14  1274.13
eigval :     1278.77  1280.29  1283.18  1304.99  1305.50  1306.21
eigval :     1308.10  1322.79  1332.38  1352.29  1385.24  1387.75
eigval :     1408.80  1412.66  1413.34  1413.92  1415.69  1442.93
eigval :     1444.98  1452.60  1453.93  1467.73  1477.61  1503.55
eigval :     1521.82  1531.36  1545.77  1548.48  1559.01  1563.31
eigval :     1566.16  1567.20  1568.79  1574.88  3066.33  3066.61
eigval :     3066.79  3068.59  3069.12  3069.95  3074.73  3074.80
eigval :     3075.53  3075.90  3080.09  3080.40  3080.67  3081.37
eigval :     3082.53  3086.44  3087.08  3087.60  3088.05  3088.99
eigval :     3089.67  3091.92  3092.92  3093.54  3104.30  3107.00

   temp. (K)  partition function   enthalpy   heat capacity  entropy
                                   cal/mol     cal/K/mol   cal/K/mol   J/K/mol
 298.15  VIB  0.100E+20            21783.274    128.443    138.465
         ROT  0.816E+08              888.752      2.981     39.184
         INT  0.816E+27            22672.027    131.424    177.648
         TR   0.135E+29             1481.254      4.968     44.931
         TOT                       24153.2806   136.3921   222.5794   931.2722

       T/K    H(0)-H(T)+PV         H(T)/Eh          T*S/Eh         G(T)/Eh
   ------------------------------------------------------------------------
    298.15    0.384907E-01    0.539641E+00    0.105755E+00    0.433887E+00
   ------------------------------------------------------------------------

         :::::::::::::::::::::::::::::::::::::::::::::::::::::
         ::                  THERMODYNAMIC                  ::
         :::::::::::::::::::::::::::::::::::::::::::::::::::::
         :: total free energy        -109.097813829754 Eh   ::
         ::.................................................::
         :: total energy             -109.531700567013 Eh   ::
         :: zero point energy           0.501150691771 Eh   ::
         :: G(RRHO) w/o ZPVE           -0.067263954511 Eh   ::
         :: G(RRHO) contrib.            0.433886737260 Eh   ::
         :::::::::::::::::::::::::::::::::::::::::::::::::::::

           -------------------------------------------------
          | TOTAL ENERGY             -109.531700567013 Eh   |
          | TOTAL ENTHALPY           -108.992059172542 Eh   |
          | TOTAL FREE ENERGY        -109.097813829754 Eh   |
          | GRADIENT NORM               0.000131348226 Eh/α |
          | HOMO-LUMO GAP               1.052046386032 eV   |
           -------------------------------------------------

 * finished run on 2025/07/18 at 12:03:33.743
