   * xtb version 6.7.1 (edcfbbe) compiled by 'albert@albert-system' on 2024-07-22

   ID    Z sym.   atoms
    1    8 O      1, 10, 11
    2    6 C      2-8, 12-19, 21-42
    3   16 S      9
    4   14 Si     20
    5    1 H      43-68

          program call               : xtb data2507/toluene/TXO-P-Si/TXO-P-Si.xyz --gfn 2 --gbsa toluene --ohess vtight --parallel 40 --molden --ceasefiles --namespace data2507/toluene/TXO-P-Si/TXO-P-Si_toluene_S0_preOpt
      * Solvation model:               GBSA
        Solvent                        toluene
        Solvent mass                       9.2140E+01 g/mol
          :  Hamiltonian                  GFN2-xTB          :
 * total energy  :  -109.5949503 Eh     change       -0.1326271E-08 Eh
 * total energy  :  -109.6059175 Eh     change       -0.1096719E-01 Eh
 * total energy  :  -109.6084178 Eh     change       -0.2500351E-02 Eh
 * total energy  :  -109.6090197 Eh     change       -0.6018985E-03 Eh
 * total energy  :  -109.6093445 Eh     change       -0.3248119E-03 Eh
 * total energy  :  -109.6094601 Eh     change       -0.1155767E-03 Eh
 * total energy  :  -109.6095390 Eh     change       -0.7892962E-04 Eh
 * total energy  :  -109.6095925 Eh     change       -0.5345511E-04 Eh
 * total energy  :  -109.6096592 Eh     change       -0.6672283E-04 Eh
 * total energy  :  -109.6097510 Eh     change       -0.9180393E-04 Eh
 * total energy  :  -109.6113256 Eh     change       -0.2086722E-06 Eh
 * total energy  :  -109.6113257 Eh     change       -0.1760210E-06 Eh
 * total energy  :  -109.6113259 Eh     change       -0.1409623E-06 Eh
 * total energy  :  -109.6113260 Eh     change       -0.1373062E-06 Eh
 * total energy  :  -109.6113262 Eh     change       -0.1544014E-06 Eh
 * total energy  :  -109.6113264 Eh     change       -0.1754780E-06 Eh
 * total energy  :  -109.6113265 Eh     change       -0.1538711E-06 Eh
 * total energy  :  -109.6113266 Eh     change       -0.1145522E-06 Eh
 * total energy  :  -109.6113267 Eh     change       -0.7870297E-07 Eh
   *** GEOMETRY OPTIMIZATION CONVERGED AFTER 90 ITERATIONS ***

 final structure:
================
68
 xtb: 6.7.1 (edcfbbe)
O            5.43628334707217        1.88191538318479       -1.38592247245359
C            5.82862090554460        0.89688664712489       -0.78673231044915
C            7.20240078580588        0.83703104448364       -0.22845092547249
C            7.84508989729917        2.03648554485570        0.08663768130228
C            9.11469795199315        2.02913508631456        0.63566674445230
C            9.76693390800123        0.82846429682187        0.87456218863987
C            9.14736120026060       -0.36976140868566        0.54928303291018
C            7.87786916032097       -0.35566974276361        0.00934452097065
S            7.10737691064989       -1.88055625894462       -0.51327559834531
O            7.35741317254191       -2.04096588290049       -1.93066971623420
O            7.52131763764431       -2.97027024564352        0.33904162099016
C            5.37122566969747       -1.54143603158233       -0.29231515479941
C            4.48771286078017       -2.56435754260937       -0.01261813148002
C            3.13105768039724       -2.30055500805073        0.06740439856071
C            2.64374334193506       -1.01068324495277       -0.15508499390044
C            1.20213367529379       -0.73126419220896       -0.09577685968135
C            0.60916261550525        0.13631341470237       -1.01232097457110
C           -0.74782857731095        0.38692772522424       -0.96108542733377
C           -1.55909653464185       -0.20678640210657        0.00327931687705
Si          -3.42618623798494        0.13670740004994        0.02874113257068
C           -4.28005109280908       -0.88266721862448       -1.32375223458234
C           -5.65880131624825       -1.07763357157083       -1.28744658648431
C           -6.30634467666377       -1.79551167897206       -2.27683443383708
C           -5.58144414024461       -2.33751077242495       -3.32584535691555
C           -4.20892673190470       -2.15867077479593       -3.37486878834554
C           -3.56777562608334       -1.43832382122778       -2.38216122937975
C           -4.15223412269596       -0.36083722596751        1.70930654958819
C           -4.42349475787935        0.58312816645588        2.69519219811390
C           -4.94857666718049        0.20731810470596        3.91925703827500
C           -5.21267975364708       -1.12701139786544        4.18040627026982
C           -4.94986205885036       -2.08066956730502        3.21033100332609
C           -4.42567260605450       -1.69792018236125        1.98879253818627
C           -3.68909304648736        1.98951097769663       -0.28110085568519
C           -4.72264191326346        2.45240039740667       -1.08976148050155
C           -4.91676617599124        3.80684776883820       -1.29689873369626
C           -4.07568132660151        4.72783604841730       -0.69464349909350
C           -3.03973005121106        4.28521684788342        0.11181474822629
C           -2.85089550287975        2.92979932775742        0.31367147420411
C           -0.95736022819320       -1.06216928379936        0.92116388471312
C            0.39792002745835       -1.32680870809861        0.87457389041402
C            3.55094266059823        0.00693193261067       -0.44140046396871
C            4.92032755236494       -0.24224011975028       -0.50639280875443
H            7.32391045690722        2.96259934116085       -0.10494582467180
H            9.59831336123521        2.96323963251446        0.87677507245531
H           10.75622394002015        0.82212047727642        1.30507573311211
H            9.62733342723158       -1.32262751205408        0.70969494486963
H            4.88174830318833       -3.55730251642434        0.13898215229841
H            2.44210526142143       -3.10410089164830        0.27697312901674
H            1.21287522111538        0.59407363328743       -1.78243023381417
H           -1.19051199716930        1.06030243855424       -1.68119616831366
H           -6.22977686471098       -0.66276956904112       -0.46828768987960
H           -7.37761102913566       -1.93445827845430       -2.23122963292213
H           -6.08437686592884       -2.89851163251407       -4.10081546717111
H           -3.63764655317994       -2.58296310861705       -4.18881658918106
H           -2.49614538634769       -1.30682144774459       -2.42647634891452
H           -4.22544478890234        1.62676471701751        2.49676620271612
H           -5.15427360673643        0.95588435716238        4.67172043828056
H           -5.62416802387430       -1.42283384049613        5.13505135128876
H           -5.15638079241161       -3.12346207561284        3.40756921401531
H           -4.22934949862583       -2.44625935768718        1.23352011777593
H           -5.38018144430380        1.74007904067386       -1.56728589375385
H           -5.72491267713985        4.14613336002128       -1.92984511490747
H           -4.22518785213112        5.78624702963320       -0.85478608547330
H           -2.37844344919441        4.99948299766137        0.58245555843515
H           -2.03692889686794        2.59148804252463        0.93971076285905
H           -1.56253023797226       -1.52412920902876        1.68740847357808
H            0.84320328579443       -1.98003298418510        1.61064155844647
H            3.20971289140579        1.01927752469981       -0.59934185675424

          :  Hamiltonian                  GFN2-xTB          :
         :: gradient norm              0.000027584995 Eh/a0 ::
         :: HOMO-LUMO gap              1.735680002483 eV    ::
         :: SCC energy              -111.506274324051 Eh    ::
         :: -> dispersion             -0.094430212249 Eh    ::
         :: -> Gsolv                  -0.055864262618 Eh    ::
         :: repulsion energy           1.894947622329 Eh    ::

    * Orbital Energies and Occupations

         #    Occupation            Energy/Eh            Energy/eV
      -------------------------------------------------------------
         1        2.0000           -0.7869085             -21.4129
       ...           ...                  ...                  ...
        89        2.0000           -0.4183622             -11.3842
        90        2.0000           -0.4096153             -11.1462
        91        2.0000           -0.4081609             -11.1066
        92        2.0000           -0.4044654             -11.0061
        93        2.0000           -0.4039576             -10.9922
        94        2.0000           -0.4028967             -10.9634
        95        2.0000           -0.4015970             -10.9280
        96        2.0000           -0.4009433             -10.9102
        97        2.0000           -0.4006948             -10.9035
        98        2.0000           -0.3996566             -10.8752
        99        2.0000           -0.3867261             -10.5234
       100        2.0000           -0.3839698             -10.4483
       101        2.0000           -0.3832440             -10.4286 (HOMO)
       102                         -0.3194590              -8.6929 (LUMO)
       103                         -0.2747334              -7.4759
       104                         -0.2655124              -7.2250
       105                         -0.2576259              -7.0104
       106                         -0.2398590              -6.5269
       107                         -0.2351719              -6.3994
       108                         -0.2339939              -6.3673
       109                         -0.2282287              -6.2104
       110                         -0.2255029              -6.1362
       111                         -0.2202362              -5.9929
       112                         -0.2191720              -5.9640
       ...                                ...                  ...
       204                          1.1705451              31.8522
      -------------------------------------------------------------
                  HL-Gap            0.0637850 Eh            1.7357 eV

     #   Z          covCN         q      C6AA      α(0)
     1   8 O        0.858    -0.376    21.211     6.175
     2   6 C        2.829     0.225    23.266     7.904
     3   6 C        3.014    -0.014    28.333     8.731
     4   6 C        2.926    -0.010    28.273     8.720
     5   6 C        2.917    -0.017    28.442     8.745
     6   6 C        2.921    -0.012    28.307     8.725
     7   6 C        2.954    -0.018    28.447     8.748
     8   6 C        2.971    -0.070    29.728     8.944
     9  16 S        3.830     0.957   107.901    17.483
    10   8 O        0.860    -0.583    25.705     6.798
    11   8 O        0.860    -0.561    25.175     6.727
    12   6 C        2.971    -0.075    29.867     8.964
    13   6 C        2.952    -0.019    28.488     8.754
    14   6 C        2.926    -0.021    28.521     8.758
    15   6 C        2.973     0.028    27.378     8.583
    16   6 C        2.978     0.011    27.773     8.645
    17   6 C        2.921    -0.032    28.806     8.801
    18   6 C        2.936    -0.030    28.739     8.792
    19   6 C        2.862    -0.089    30.233     9.013
    20  14 Si       3.609     0.490    98.204    19.026
    21   6 C        2.862    -0.092    30.297     9.022
    22   6 C        2.938    -0.032    28.791     8.800
    23   6 C        2.917    -0.031    28.778     8.797
    24   6 C        2.920    -0.030    28.738     8.791
    25   6 C        2.917    -0.031    28.771     8.796
    26   6 C        2.935    -0.033    28.829     8.806
    27   6 C        2.862    -0.092    30.293     9.022
    28   6 C        2.935    -0.033    28.818     8.804
    29   6 C        2.917    -0.031    28.768     8.795
    30   6 C        2.920    -0.029    28.736     8.791
    31   6 C        2.917    -0.031    28.776     8.797
    32   6 C        2.938    -0.032    28.798     8.801
    33   6 C        2.862    -0.092    30.298     9.022
    34   6 C        2.935    -0.033    28.820     8.804
    35   6 C        2.917    -0.031    28.769     8.796
    36   6 C        2.920    -0.029    28.736     8.791
    37   6 C        2.917    -0.031    28.777     8.797
    38   6 C        2.937    -0.032    28.800     8.801
    39   6 C        2.933    -0.031    28.778     8.798
    40   6 C        2.921    -0.033    28.818     8.803
    41   6 C        2.932    -0.018    28.465     8.750
    42   6 C        3.013    -0.016    28.381     8.739
    43   1 H        0.926     0.079     1.986     2.204
    44   1 H        0.926     0.079     1.993     2.207
    45   1 H        0.926     0.078     1.995     2.209
    46   1 H        0.926     0.066     2.129     2.282
    47   1 H        0.926     0.064     2.150     2.293
    48   1 H        0.926     0.077     2.015     2.220
    49   1 H        0.926     0.038     2.474     2.459
    50   1 H        0.926     0.031     2.573     2.509
    51   1 H        0.925     0.022     2.705     2.572
    52   1 H        0.926     0.028     2.619     2.531
    53   1 H        0.926     0.028     2.609     2.526
    54   1 H        0.926     0.028     2.618     2.530
    55   1 H        0.926     0.024     2.670     2.555
    56   1 H        0.926     0.024     2.674     2.557
    57   1 H        0.926     0.028     2.615     2.529
    58   1 H        0.926     0.029     2.604     2.524
    59   1 H        0.926     0.028     2.611     2.527
    60   1 H        0.926     0.023     2.685     2.562
    61   1 H        0.926     0.023     2.683     2.561
    62   1 H        0.926     0.028     2.621     2.532
    63   1 H        0.926     0.029     2.606     2.525
    64   1 H        0.926     0.028     2.610     2.526
    65   1 H        0.926     0.023     2.685     2.563
    66   1 H        0.926     0.033     2.538     2.491
    67   1 H        0.926     0.041     2.441     2.443
    68   1 H        0.926     0.078     2.004     2.214

molecular dipole:
                 x           y           z       tot (Debye)
 q only:       -1.431       1.377       1.886
   full:       -1.274       1.155       1.802       6.330

 projected vibrational frequencies (cm⁻¹)
eigval :       -0.00    -0.00     0.00     0.00     0.00     0.00
eigval :        9.65    13.83    19.36    23.91    25.13    28.11
eigval :       31.49    36.77    39.00    41.60    46.20    51.11
eigval :       59.15    91.17    94.74   115.44   131.36   131.53
eigval :      148.49   155.84   158.89   177.58   190.38   202.00
eigval :      208.96   216.62   223.87   230.58   258.21   267.70
eigval :      276.48   300.66   329.25   353.67   354.76   356.70
eigval :      359.59   362.49   363.88   379.71   395.55   413.25
eigval :      416.46   423.53   432.61   437.25   466.40   477.86
eigval :      480.19   492.63   501.67   512.88   541.87   561.93
eigval :      588.64   589.12   589.67   595.44   604.03   616.69
eigval :      651.21   661.41   662.11   662.70   663.01   669.20
eigval :      675.43   691.64   704.83   706.74   708.77   731.57
eigval :      734.63   735.95   735.99   737.08   786.66   802.21
eigval :      816.71   840.84   876.43   881.93   883.22   884.63
eigval :      890.31   892.43   904.82   906.81   908.14   921.57
eigval :      923.98   925.49   931.61   931.63   932.92   933.36
eigval :      935.17   935.42   935.92   936.42   937.52   974.51
eigval :      976.11   976.18   999.97  1016.87  1063.23  1077.75
eigval :     1081.55  1083.50  1084.21  1084.45  1089.34  1119.08
eigval :     1119.98  1121.38  1141.58  1142.74  1147.35  1148.34
eigval :     1148.92  1149.38  1161.08  1165.00  1177.14  1180.66
eigval :     1181.49  1181.64  1195.65  1205.50  1206.41  1207.15
eigval :     1210.33  1219.05  1226.54  1241.40  1276.03  1285.42
eigval :     1286.33  1288.83  1297.43  1307.69  1308.62  1309.25
eigval :     1309.84  1318.46  1326.20  1370.96  1393.90  1407.76
eigval :     1417.37  1418.13  1419.57  1438.66  1444.39  1462.41
eigval :     1462.53  1463.12  1483.39  1549.33  1552.78  1556.26
eigval :     1566.02  1574.41  1574.66  1575.26  1585.29  1589.15
eigval :     1591.45  1591.55  1592.90  1665.24  3058.27  3058.74
eigval :     3058.83  3060.99  3061.26  3061.52  3067.54  3067.65
eigval :     3068.19  3068.52  3072.61  3072.90  3073.28  3073.77
eigval :     3081.25  3081.72  3081.85  3082.46  3084.91  3090.98
eigval :     3094.34  3095.79  3096.41  3101.87  3105.18  3107.65

   temp. (K)  partition function   enthalpy   heat capacity  entropy
                                   cal/mol     cal/K/mol   cal/K/mol   J/K/mol
 298.15  VIB  0.156E+19            21366.041    126.364    135.202
         ROT  0.818E+08              888.752      2.981     39.187
         INT  0.128E+27            22254.794    129.344    174.390
         TR   0.135E+29             1481.254      4.968     44.931
         TOT                       23736.0475   134.3126   219.3206   917.6376

       T/K    H(0)-H(T)+PV         H(T)/Eh          T*S/Eh         G(T)/Eh
   ------------------------------------------------------------------------
    298.15    0.378258E-01    0.544004E+00    0.104206E+00    0.439797E+00
   ------------------------------------------------------------------------

         :::::::::::::::::::::::::::::::::::::::::::::::::::::
         ::                  THERMODYNAMIC                  ::
         :::::::::::::::::::::::::::::::::::::::::::::::::::::
         :: total free energy        -109.171529307493 Eh   ::
         ::.................................................::
         :: total energy             -109.611326700759 Eh   ::
         :: zero point energy           0.506177907566 Eh   ::
         :: G(RRHO) w/o ZPVE           -0.066380514299 Eh   ::
         :: G(RRHO) contrib.            0.439797393266 Eh   ::
         :::::::::::::::::::::::::::::::::::::::::::::::::::::

           -------------------------------------------------
          | TOTAL ENERGY             -109.611326700759 Eh   |
          | TOTAL ENTHALPY           -109.067322993822 Eh   |
          | TOTAL FREE ENERGY        -109.171529307493 Eh   |
          | GRADIENT NORM               0.000027726389 Eh/α |
          | HOMO-LUMO GAP               1.735678501249 eV   |
           -------------------------------------------------

 * finished run on 2025/07/18 at 11:51:02.755
