   * xtb version 6.7.1 (edcfbbe) compiled by 'albert@albert-system' on 2024-07-22

   ID    Z sym.   atoms
    1    8 O      1, 10, 11
    2    6 C      2-8, 12-19, 21-42
    3   16 S      9
    4   14 Si     20
    5    1 H      43-68

          program call               : xtb data2507/toluene/TXO-P-Si/TXO-P-Si_toluene_S0_finalOpt.xtbopt.xyz --gfn 2 --uhf 2 --gbsa toluene --ohess vtight --parallel 40 --molden --ceasefiles --namespace data2507/toluene/TXO-P-Si/TXO-P-Si_toluene_T1_preOpt
      * Solvation model:               GBSA
        Solvent                        toluene
        Solvent mass                       9.2140E+01 g/mol
          :  Hamiltonian                  GFN2-xTB          :
 * total energy  :  -109.5252059 Eh     change       -0.1094551E-07 Eh
 * total energy  :  -109.5289370 Eh     change       -0.3731155E-02 Eh
 * total energy  :  -109.5304049 Eh     change       -0.1467915E-02 Eh
 * total energy  :  -109.5307612 Eh     change       -0.3562979E-03 Eh
 * total energy  :  -109.5311249 Eh     change       -0.3636847E-03 Eh
 * total energy  :  -109.5312651 Eh     change       -0.1401748E-03 Eh
 * total energy  :  -109.5313411 Eh     change       -0.7601077E-04 Eh
 * total energy  :  -109.5313716 Eh     change       -0.3054229E-04 Eh
 * total energy  :  -109.5314011 Eh     change       -0.2941881E-04 Eh
 * total energy  :  -109.5314226 Eh     change       -0.2151695E-04 Eh
 * total energy  :  -109.5316003 Eh     change       -0.1066808E-05 Eh
 * total energy  :  -109.5316012 Eh     change       -0.8762900E-06 Eh
 * total energy  :  -109.5316018 Eh     change       -0.5992075E-06 Eh
 * total energy  :  -109.5316022 Eh     change       -0.3700811E-06 Eh
 * total energy  :  -109.5316025 Eh     change       -0.2939336E-06 Eh
 * total energy  :  -109.5316028 Eh     change       -0.3871423E-06 Eh
 * total energy  :  -109.5316034 Eh     change       -0.5839737E-06 Eh
 * total energy  :  -109.5316041 Eh     change       -0.6223096E-06 Eh
 * total energy  :  -109.5316041 Eh     change       -0.3347022E-07 Eh
   *** GEOMETRY OPTIMIZATION CONVERGED AFTER 44 ITERATIONS ***

 final structure:
================
68
 xtb: 6.7.1 (edcfbbe)
O            4.45775507191293        2.45416511755196       -0.64189270314449
C            4.99995105672319        1.35814115893145       -0.32779420555282
C            6.40876666887037        1.30397222117460        0.01636423242096
C            7.08342647208675        2.53110006445123        0.21291797608500
C            8.38604612708706        2.55739191529572        0.64333541180451
C            9.08404001070629        1.37553165794271        0.89196156926573
C            8.45704528833800        0.16153775383252        0.66945639502044
C            7.14914260088119        0.13876090541442        0.22939356277641
S            6.44126517100513       -1.42399495029080       -0.23254220553838
O            6.68824579552787       -1.63332965708715       -1.64746801949674
O            6.90542145009386       -2.47856803969341        0.64356740780039
C            4.70763136935110       -1.13741986888327        0.00268364785681
C            3.88206626341237       -2.21502825084587        0.25888305289638
C            2.51185186014420       -2.04616940108624        0.27630972604996
C            1.96080718470498       -0.77856217337455        0.01568290358644
C            0.50686068872833       -0.57194672580366        0.02682855612369
C           -0.09950869199912        0.26680735844607       -0.91110797114676
C           -1.46692077089698        0.44908353778178       -0.90618516693131
C           -2.27781702506477       -0.18177342264195        0.03743350672531
Si          -4.15028687059608        0.09993527680372        0.02770383102286
C           -4.96952290979584       -1.03341693213520       -1.27086245588385
C           -4.22212508502933       -1.60132546495979       -2.29466827804398
C           -4.83396719298084       -2.39236910455429       -3.25294044919126
C           -6.19759393554790       -2.62483794194486       -3.19479481883159
C           -6.94992418083338       -2.06517244740394       -2.17532075150862
C           -6.33700799049355       -1.27620261550014       -1.21708970776893
C           -4.90561751123143       -0.36948608809361        1.71040945125670
C           -5.10611416562135       -1.70419000360316        2.04941036051264
C           -5.62109092196002       -2.04998300765600        3.28647894880727
C           -5.94955161091264       -1.06192140913383        4.20031808558822
C           -5.75947540224389        0.26996383809043        3.87239297192747
C           -5.24367294407794        0.61327641260193        2.63432247833413
C           -4.49420499148144        1.91639692239213       -0.38855340928832
C           -3.69448714037867        2.91841343091483        0.15936513779487
C           -3.94119555505840        4.25216990254632       -0.11024047908867
C           -4.99313948289543        4.60868297791950       -0.93931259529491
C           -5.79462118141718        3.62467471433972       -1.49512525956867
C           -5.54569259330264        2.29147017225834       -1.22106395396019
C           -1.66630900147559       -1.01624657011995        0.97177127871309
C           -0.29951181403626       -1.20869821460316        0.97164030786481
C            2.80041319188557        0.29263400690340       -0.22268208826740
C            4.20309972800190        0.15260976733746       -0.19684385546393
H            6.52404175458449        3.43624516889198        0.02732385735261
H            8.87329685270061        3.50894607611910        0.79657448516285
H           10.10531845376688        1.40153680270899        1.23688307059456
H            8.96196306009943       -0.78041329966983        0.81933966094933
H            4.33964579103873       -3.17952663899314        0.41703140029482
H            1.86820979193955       -2.89415397273216        0.44525940551578
H            0.50804008969092        0.75615193142635       -1.65780246634033
H           -1.91736096436728        1.09760368652786       -1.64370924119704
H           -3.15782007222167       -1.42806295031333       -2.34513237350169
H           -4.24174021161755       -2.82742765084209       -4.04523392009100
H           -6.67338341694089       -3.24546916376554       -3.94043863584362
H           -8.01427000796747       -2.24409167875529       -2.12360195380025
H           -6.92705093464093       -0.84881492130616       -0.41956421714885
H           -4.86081347570575       -2.47942669071079        1.33790380530261
H           -5.76924475571773       -3.09077145426508        3.53646351872338
H           -6.35733538391081       -1.32984983769457        5.16439576310613
H           -6.01526610490638        1.04492872554691        4.58076262343894
H           -5.10312099790214        1.65411160605340        2.38367960112651
H           -2.87011636302901        2.64719095376379        0.80343961360512
H           -3.31216894655816        5.01582299273474        0.32478575809746
H           -5.18497795169182        5.65018592830532       -1.15371285755705
H           -6.61317948002216        3.89835265620388       -2.14541020635443
H           -6.17084616440627        1.53003348123967       -1.66392863307967
H           -2.27095167710647       -1.51125912139892        1.71695506456073
H            0.15506195466566       -1.84034787874923        1.71995693843096
H            2.41300681922125        1.28735366768498       -0.38785139980971

          :  Hamiltonian                  GFN2-xTB          :
         :: gradient norm              0.000109402643 Eh/a0 ::
         :: HOMO-LUMO gap              1.070263368768 eV    ::
         :: SCC energy              -111.418487090569 Eh    ::
         :: -> dispersion             -0.094341156154 Eh    ::
         :: -> Gsolv                  -0.063792708745 Eh    ::
         :: repulsion energy           1.886882997874 Eh    ::

    * Orbital Energies and Occupations

         #    Occupation            Energy/Eh            Energy/eV
      -------------------------------------------------------------
         1        2.0000           -0.7788865             -21.1946
       ...           ...                  ...                  ...
        90        2.0000           -0.4158009             -11.3145
        91        2.0000           -0.4144448             -11.2776
        92        2.0000           -0.4140256             -11.2662
        93        2.0000           -0.4125326             -11.2256
        94        2.0000           -0.4111522             -11.1880
        95        2.0000           -0.4106202             -11.1735
        96        2.0000           -0.4091264             -11.1329
        97        2.0000           -0.4049507             -11.0193
        98        1.9990           -0.3987140             -10.8496
        99        1.9704           -0.3954797             -10.7615
       100        1.8008           -0.3934864             -10.7073
       101        1.2299           -0.3910164             -10.6401
       102        1.0000           -0.3096442              -8.4258 (HOMO)
       103                         -0.2703125              -7.3556 (LUMO)
       104                         -0.2513181              -6.8387
       105                         -0.2497116              -6.7950
       106                         -0.2464300              -6.7057
       107                         -0.2447249              -6.6593
       108                         -0.2411385              -6.5617
       109                         -0.2324560              -6.3254
       110                         -0.2322776              -6.3206
       111                         -0.2303092              -6.2670
       112                         -0.2285241              -6.2185
       113                         -0.2270881              -6.1794
       ...                                ...                  ...
       204                          1.1666488              31.7461
      -------------------------------------------------------------
                  HL-Gap            0.0393316 Eh            1.0703 eV

     #   Z          covCN         q      C6AA      α(0)
     1   8 O        0.858    -0.445    22.597     6.373
     2   6 C        2.835     0.170    24.345     8.086
     3   6 C        3.010    -0.012    28.293     8.725
     4   6 C        2.927    -0.021    28.531     8.760
     5   6 C        2.916    -0.025    28.639     8.776
     6   6 C        2.920    -0.032    28.795     8.800
     7   6 C        2.966    -0.020    28.512     8.759
     8   6 C        2.972    -0.085    30.129     9.004
     9  16 S        3.853     0.963   107.720    17.468
    10   8 O        0.860    -0.587    25.792     6.809
    11   8 O        0.860    -0.568    25.333     6.748
    12   6 C        2.972    -0.088    30.213     9.016
    13   6 C        2.961    -0.021    28.522     8.760
    14   6 C        2.923    -0.040    28.986     8.829
    15   6 C        2.972     0.019    27.578     8.614
    16   6 C        2.978     0.022    27.512     8.604
    17   6 C        2.920    -0.029    28.718     8.788
    18   6 C        2.935    -0.028    28.699     8.786
    19   6 C        2.862    -0.085    30.118     8.996
    20  14 Si       3.609     0.510    97.724    18.980
    21   6 C        2.864    -0.077    29.909     8.964
    22   6 C        2.933    -0.030    28.744     8.793
    23   6 C        2.919    -0.026    28.646     8.777
    24   6 C        2.920    -0.025    28.632     8.775
    25   6 C        2.918    -0.026    28.654     8.778
    26   6 C        2.935    -0.029    28.724     8.790
    27   6 C        2.863    -0.081    30.029     8.982
    28   6 C        2.935    -0.030    28.744     8.793
    29   6 C        2.918    -0.027    28.677     8.782
    30   6 C        2.920    -0.025    28.639     8.776
    31   6 C        2.918    -0.027    28.666     8.780
    32   6 C        2.935    -0.030    28.756     8.795
    33   6 C        2.863    -0.087    30.163     9.002
    34   6 C        2.937    -0.030    28.754     8.794
    35   6 C        2.917    -0.028    28.694     8.784
    36   6 C        2.920    -0.025    28.623     8.773
    37   6 C        2.917    -0.028    28.693     8.784
    38   6 C        2.934    -0.031    28.765     8.796
    39   6 C        2.932    -0.029    28.717     8.788
    40   6 C        2.921    -0.030    28.743     8.792
    41   6 C        2.934    -0.025    28.635     8.776
    42   6 C        3.009    -0.013    28.324     8.730
    43   1 H        0.926     0.066     2.126     2.280
    44   1 H        0.926     0.068     2.110     2.272
    45   1 H        0.926     0.064     2.151     2.294
    46   1 H        0.926     0.051     2.303     2.373
    47   1 H        0.926     0.052     2.290     2.366
    48   1 H        0.926     0.067     2.118     2.276
    49   1 H        0.926     0.043     2.411     2.428
    50   1 H        0.926     0.040     2.451     2.448
    51   1 H        0.926     0.036     2.507     2.476
    52   1 H        0.926     0.040     2.449     2.447
    53   1 H        0.926     0.041     2.433     2.439
    54   1 H        0.926     0.041     2.435     2.440
    55   1 H        0.926     0.038     2.476     2.461
    56   1 H        0.926     0.035     2.510     2.477
    57   1 H        0.926     0.038     2.473     2.459
    58   1 H        0.926     0.039     2.468     2.457
    59   1 H        0.926     0.038     2.475     2.460
    60   1 H        0.926     0.034     2.535     2.490
    61   1 H        0.926     0.030     2.593     2.518
    62   1 H        0.926     0.035     2.522     2.483
    63   1 H        0.926     0.035     2.510     2.477
    64   1 H        0.926     0.036     2.508     2.477
    65   1 H        0.926     0.033     2.539     2.492
    66   1 H        0.926     0.043     2.404     2.425
    67   1 H        0.926     0.047     2.360     2.402
    68   1 H        0.926     0.069     2.098     2.265

molecular dipole:
                 x           y           z       tot (Debye)
 q only:       -7.359       0.556       1.338
   full:       -7.007       0.366       1.264      18.120

 projected vibrational frequencies (cm⁻¹)
eigval :       -0.00    -0.00    -0.00     0.00     0.00     0.00
eigval :       -5.35    10.51    17.63    20.56    27.47    28.61
eigval :       32.79    35.97    37.04    39.76    45.87    50.42
eigval :       61.98    85.67    93.20   109.12   123.58   128.92
eigval :      135.97   149.27   153.25   156.24   178.94   190.99
eigval :      194.05   207.50   213.70   222.04   255.99   264.76
eigval :      276.10   298.38   317.36   335.62   356.25   357.00
eigval :      359.58   361.13   364.16   381.04   389.09   404.71
eigval :      407.07   416.16   418.31   431.20   443.06   457.87
eigval :      467.30   488.04   493.08   500.17   521.04   536.27
eigval :      576.79   580.10   581.50   585.88   589.72   593.32
eigval :      602.09   636.50   641.14   643.49   644.54   650.95
eigval :      660.74   664.59   670.46   683.48   685.63   703.02
eigval :      729.85   730.95   733.55   736.09   755.96   788.38
eigval :      809.43   816.04   855.25   858.22   859.68   860.77
eigval :      869.77   875.65   897.81   898.72   901.71   904.23
eigval :      905.09   907.92   920.52   923.28   925.05   926.39
eigval :      929.72   930.96   932.55   932.97   935.86   946.63
eigval :      952.66   965.40   989.56  1000.55  1043.21  1059.12
eigval :     1070.34  1072.33  1075.11  1077.07  1080.89  1090.63
eigval :     1095.35  1116.79  1117.25  1120.49  1125.43  1131.70
eigval :     1132.49  1140.35  1145.41  1157.02  1168.04  1174.39
eigval :     1176.37  1176.39  1179.59  1188.51  1199.36  1200.29
eigval :     1203.44  1206.27  1214.72  1218.99  1271.15  1273.85
eigval :     1277.94  1279.62  1284.36  1305.09  1305.33  1305.98
eigval :     1308.27  1322.67  1332.12  1352.56  1385.21  1388.38
eigval :     1408.30  1411.08  1411.93  1414.21  1415.80  1441.39
eigval :     1444.08  1453.45  1454.34  1468.86  1474.47  1503.13
eigval :     1520.99  1530.73  1542.55  1547.30  1553.16  1563.33
eigval :     1565.24  1565.48  1566.91  1572.79  3064.77  3066.81
eigval :     3067.01  3067.76  3068.69  3070.62  3072.75  3073.80
eigval :     3075.21  3077.37  3078.56  3079.62  3079.98  3081.80
eigval :     3083.97  3086.15  3086.48  3087.49  3088.64  3089.18
eigval :     3089.50  3091.17  3093.29  3093.78  3104.79  3106.81

   temp. (K)  partition function   enthalpy   heat capacity  entropy
                                   cal/mol     cal/K/mol   cal/K/mol   J/K/mol
 298.15  VIB  0.992E+19            21843.609    128.789    139.290
         ROT  0.814E+08              888.752      2.981     39.180
         INT  0.808E+27            22732.361    131.770    178.470
         TR   0.135E+29             1481.254      4.968     44.931
         TOT                       24213.6152   136.7382   223.4009   934.7094

       T/K    H(0)-H(T)+PV         H(T)/Eh          T*S/Eh         G(T)/Eh
   ------------------------------------------------------------------------
    298.15    0.385869E-01    0.539473E+00    0.106145E+00    0.433328E+00
   ------------------------------------------------------------------------

         :::::::::::::::::::::::::::::::::::::::::::::::::::::
         ::                  THERMODYNAMIC                  ::
         :::::::::::::::::::::::::::::::::::::::::::::::::::::
         :: total free energy        -109.098276034539 Eh   ::
         ::.................................................::
         :: total energy             -109.531604091258 Eh   ::
         :: zero point energy           0.500886180886 Eh   ::
         :: G(RRHO) w/o ZPVE           -0.067558124168 Eh   ::
         :: G(RRHO) contrib.            0.433328056718 Eh   ::
         :::::::::::::::::::::::::::::::::::::::::::::::::::::

           -------------------------------------------------
          | TOTAL ENERGY             -109.531604091258 Eh   |
          | TOTAL ENTHALPY           -108.992131058432 Eh   |
          | TOTAL FREE ENERGY        -109.098276034539 Eh   |
          | GRADIENT NORM               0.000109954688 Eh/α |
          | HOMO-LUMO GAP               1.070268397822 eV   |
           -------------------------------------------------

 * finished run on 2025/07/18 at 11:56:16.816
