   * xtb version 6.7.1 (edcfbbe) compiled by 'albert@albert-system' on 2024-07-22

   ID    Z sym.   atoms
    1    6 C      1-8, 10, 12-25, 27-47, 49, 50
    2    7 N      9, 26
    3    8 O      11, 48
    4    1 H      51-86

          program call               : xtb data2507/gas/NA-TNA/NA-TNA_gas_S0_finalOpt.xtbopt.xyz --gfn 2 --spinpol --tblite --uhf 2 --ohess vtight --parallel 40 --molden --ceasefiles --namespace data2507/gas/NA-TNA/NA-TNA_gas_T1_preOpt
 * total energy  :  -130.8273593 Eh     change        0.3522106E-07 Eh
 * total energy  :  -130.8326480 Eh     change       -0.5288693E-02 Eh
 * total energy  :  -130.8346979 Eh     change       -0.2049825E-02 Eh
 * total energy  :  -130.8349993 Eh     change       -0.3014525E-03 Eh
 * total energy  :  -130.8353334 Eh     change       -0.3341088E-03 Eh
 * total energy  :  -130.8354942 Eh     change       -0.1607573E-03 Eh
 * total energy  :  -130.8356427 Eh     change       -0.1485549E-03 Eh
 * total energy  :  -130.8357411 Eh     change       -0.9837054E-04 Eh
 * total energy  :  -130.8358122 Eh     change       -0.7113485E-04 Eh
 * total energy  :  -130.8358790 Eh     change       -0.6673661E-04 Eh
 * total energy  :  -130.8371548 Eh     change       -0.6421971E-06 Eh
 * total energy  :  -130.8371556 Eh     change       -0.7975689E-06 Eh
 * total energy  :  -130.8371565 Eh     change       -0.9406966E-06 Eh
 * total energy  :  -130.8371574 Eh     change       -0.8497049E-06 Eh
 * total energy  :  -130.8371576 Eh     change       -0.1864901E-06 Eh
 * total energy  :  -130.8371580 Eh     change       -0.3685660E-06 Eh
 * total energy  :  -130.8371577 Eh     change        0.2625935E-06 Eh
 * total energy  :  -130.8371581 Eh     change       -0.3724700E-06 Eh
 * total energy  :  -130.8371581 Eh     change       -0.7501359E-07 Eh
   *** GEOMETRY OPTIMIZATION CONVERGED AFTER 126 ITERATIONS ***

 final structure:
================
86
 xtb: 6.7.1 (edcfbbe)
C           12.73917174567545       -1.51781658501291       -1.41938949138785
C           12.23237578612457       -1.05697578991099       -0.05004605563392
C           13.03587284438057        0.18375511971180        0.36427361629152
C           12.47152590513284       -2.19290486168020        0.95464641415159
C           10.75181995196720       -0.70837165084038       -0.05887194194804
C            9.95864092507096       -0.80655400395487       -1.19519961272857
C            8.61504239623724       -0.47698710919569       -1.16578738715705
C            8.03423041989097       -0.04872092523820        0.01429595751329
N            6.64433070845479        0.28761422658918        0.05152063472561
C            6.32119615066662        1.60217242485386        0.34704817736514
O            7.19220423587572        2.43085308242880        0.54596108812603
C            4.89158806973221        1.92538208787745        0.38935815853149
C            4.51284541421070        3.23373500104482        0.67815510261292
C            3.17387568074170        3.56313488219100        0.71062076174387
C            2.20358006973100        2.60030508290704        0.46615237423657
C            2.53427818092541        1.27437840867367        0.18425499503853
C            1.55005074444263        0.23492367501288       -0.06971416357102
C            0.18205211859136        0.49080846148729        0.01968859972876
C           -0.85791745289601       -0.40340452658153       -0.24289181862058
C           -2.23211217984823       -0.13306949445014       -0.12269712042448
C           -2.76333539518391        1.11186193978657        0.33582097391289
C           -4.09796444072148        1.32147164058444        0.43664202763339
C           -5.03793245391250        0.31219500906387        0.08595566182561
C           -6.41069264725571        0.51334896567261        0.18368102828710
C           -7.31051034230795       -0.49213826419699       -0.15553401937116
N           -8.67941829302723       -0.28329908816001       -0.05956374451954
C           -9.22073556745933        0.98966364684755       -0.28404867646597
C          -10.27956957764796        1.45090038462515        0.49795149141887
C          -10.81642254299010        2.70273060841706        0.26884605790534
C          -10.30675837928429        3.51148294438923       -0.73427227015619
C           -9.25471800330617        3.05697908614866       -1.51337138216602
C           -8.71380606872342        1.80490256450182       -1.29619074609379
C           -9.53585702392625       -1.34062977115510        0.27496265253009
C           -9.15245741350861       -2.28583570052193        1.22652415841469
C          -10.00215354979755       -3.32497834039981        1.55189290184793
C          -11.24196296296869       -3.43409311738866        0.94271497755363
C          -11.62861212845670       -2.49404638549015        0.00084025461182
C          -10.78455939062020       -1.45403414924681       -0.33605699700691
C           -6.81312918818767       -1.73552683720445       -0.60913244652734
C           -5.47239859931814       -1.95076864993889       -0.71474219739913
C           -4.53434750140320       -0.94317394832585       -0.36974081680106
C           -3.16215320331672       -1.13848637489839       -0.46255807277870
C            2.03811747325592       -1.06946375588773       -0.39259610372085
C            3.36623157118848       -1.36317789587572       -0.43647604395571
C            4.33197197290181       -0.37387124457570       -0.16979008900140
C            3.91761697474073        0.94040635163621        0.13668551645538
C            5.73951671965835       -0.73598954163409       -0.21596653911905
O            6.13189403080204       -1.86654756259308       -0.45863687335793
C            8.80403734742476        0.05264251569099        1.16162921518207
C           10.14537586857111       -0.27009865454930        1.11599722754048
H           13.79981246141561       -1.75301795062616       -1.35290542043293
H           12.61489446345972       -0.73645500181430       -2.16544992562049
H           12.21680491957320       -2.41294972411528       -1.74850214633101
H           14.10098921355317       -0.03936841061255        0.35712409227115
H           12.84848753995887        1.00062732555562       -0.32934565099573
H           12.76438530777478        0.51701034932528        1.36180580763304
H           13.52290014587276       -2.47369009066293        0.96043194631289
H           11.88162493153558       -3.06518791697459        0.68132812265427
H           12.19288990016309       -1.89620186258904        1.96179920150464
H           10.37604899098004       -1.14002400844581       -2.13104746027694
H            8.01580227033579       -0.55967629898606       -2.05987317471107
H            5.28487580816320        3.96368373496592        0.86592029886050
H            2.87134410435171        4.57717497975486        0.92629749660290
H            1.17176539731605        2.91307292400690        0.49556863316645
H           -0.11171727915036        1.48341554178014        0.32205974885994
H           -0.61411616686177       -1.39918337388863       -0.58392298324135
H           -2.08463379822048        1.90316335348222        0.61301223915152
H           -4.47843509579105        2.27079057456184        0.78678265217520
H           -6.78065094185696        1.46167529763698        0.54690974171529
H          -10.66960362590876        0.82503021904435        1.28709131717245
H          -11.63303558978645        3.05179136609113        0.88284971978527
H          -10.72762551622217        4.48968863730306       -0.90865496934366
H           -8.85750030946621        3.67830387500993       -2.30197840767367
H           -7.90341260489429        1.44499673351005       -1.91287645738712
H           -8.19216078517093       -2.19201820517680        1.71200674976619
H           -9.69735008487032       -4.04919264565516        2.29235747672770
H          -11.90354474384090       -4.24639760653592        1.20132362833242
H          -12.59137607962669       -2.57527654477919       -0.48100458599962
H          -11.08101614529558       -0.72747398953341       -1.07823256758478
H           -7.51525365074893       -2.50598180018723       -0.89175690888358
H           -5.10212730784908       -2.89802067461545       -1.07825305159855
H           -2.79354826802925       -2.09479859261439       -0.80650491262054
H            1.32615339296232       -1.85287435713608       -0.59490496364707
H            3.71887921551252       -2.35579796294291       -0.67222230854730
H            8.35339880107028        0.38960914635046        2.08287262117955
H           10.72344632109038       -0.17893175241611        2.02311873766012

 projected vibrational frequencies (cm⁻¹)
eigval :       -0.00    -0.00    -0.00     0.00     0.00     0.00
eigval :        3.42     7.75    14.80    17.57    23.59    29.58
eigval :       32.39    35.85    42.67    52.11    57.86    60.62
eigval :       63.98    69.15    85.05    94.85   105.99   112.13
eigval :      121.21   138.79   148.33   149.89   174.48   177.10
eigval :      181.85   190.46   206.20   216.43   229.38   233.90
eigval :      237.86   252.43   260.05   266.59   279.43   304.76
eigval :      311.65   315.95   317.65   327.23   356.99   362.69
eigval :      365.16   369.85   377.39   381.96   383.10   388.22
eigval :      391.21   393.22   403.45   413.37   429.39   434.61
eigval :      446.46   452.42   462.18   464.46   484.96   492.94
eigval :      496.74   502.36   510.68   517.02   526.51   545.99
eigval :      557.91   569.39   576.76   582.60   586.62   592.37
eigval :      596.71   609.85   627.91   633.42   652.41   661.03
eigval :      664.91   669.38   683.99   691.00   699.81   708.21
eigval :      708.81   734.48   756.90   758.21   763.90   769.83
eigval :      774.14   784.94   797.53   799.80   803.68   812.22
eigval :      823.52   828.31   837.41   844.85   860.69   863.40
eigval :      865.63   870.82   874.11   875.49   883.12   887.24
eigval :      896.95   898.22   908.27   909.51   910.12   913.64
eigval :      914.50   917.29   917.72   923.66   928.70   929.60
eigval :      930.42   930.55   955.07   960.92   962.94   963.19
eigval :      973.00  1003.03  1006.00  1013.35  1032.98  1035.70
eigval :     1036.25  1081.56  1082.60  1085.40  1121.48  1123.11
eigval :     1127.09  1136.48  1141.54  1144.39  1149.79  1163.37
eigval :     1174.86  1179.86  1179.98  1180.00  1185.04  1192.97
eigval :     1196.50  1200.08  1207.41  1209.51  1215.38  1226.03
eigval :     1228.67  1234.41  1244.59  1247.88  1256.45  1275.64
eigval :     1277.71  1280.42  1281.39  1283.84  1287.65  1298.05
eigval :     1304.64  1311.27  1318.42  1321.43  1324.09  1325.77
eigval :     1336.53  1349.78  1359.17  1375.67  1377.65  1399.06
eigval :     1400.87  1405.28  1410.64  1418.19  1423.12  1428.45
eigval :     1431.29  1434.12  1441.24  1451.57  1456.64  1464.40
eigval :     1465.35  1472.62  1482.67  1488.55  1491.28  1494.62
eigval :     1498.12  1502.62  1506.20  1514.38  1520.01  1526.32
eigval :     1538.66  1555.75  1573.10  1575.93  1578.48  1581.26
eigval :     1586.09  1587.13  1593.20  1603.56  1642.30  1664.28
eigval :     3020.44  3021.86  3029.06  3029.72  3033.86  3037.85
eigval :     3039.38  3049.43  3052.65  3069.73  3070.12  3076.14
eigval :     3078.93  3079.65  3081.16  3081.79  3082.41  3082.55
eigval :     3082.90  3082.97  3090.01  3090.60  3091.41  3092.12
eigval :     3094.00  3094.41  3094.58  3095.98  3096.13  3097.57
eigval :     3102.83  3103.03  3105.41  3108.87  3112.07  3115.45

   temp. (K)  partition function   enthalpy   heat capacity  entropy
                                   cal/mol     cal/K/mol   cal/K/mol   J/K/mol
 298.15  VIB  0.724E+21            25260.996    156.021    159.234
         ROT  0.155E+09              888.752      2.981     40.457
         INT  0.112E+30            26149.749    159.002    199.691
         TR   0.160E+29             1481.254      4.968     45.271
         TOT                       27631.0027   163.9700   244.9623  1024.9224

       T/K    H(0)-H(T)+PV         H(T)/Eh          T*S/Eh         G(T)/Eh
   ------------------------------------------------------------------------
    298.15    0.440328E-01    0.716090E+00    0.116390E+00    0.599701E+00
   ------------------------------------------------------------------------

         :::::::::::::::::::::::::::::::::::::::::::::::::::::
         ::                  THERMODYNAMIC                  ::
         :::::::::::::::::::::::::::::::::::::::::::::::::::::
         :: total free energy        -130.237457311646 Eh   ::
         ::.................................................::
         :: total energy             -130.837158130315 Eh   ::
         :: zero point energy           0.672057519610 Eh   ::
         :: G(RRHO) w/o ZPVE           -0.072356700941 Eh   ::
         :: G(RRHO) contrib.            0.599700818669 Eh   ::
         :::::::::::::::::::::::::::::::::::::::::::::::::::::

           -------------------------------------------------
          | TOTAL ENERGY             -130.837158130315 Eh   |
          | TOTAL ENTHALPY           -130.121067805153 Eh   |
          | TOTAL FREE ENERGY        -130.237457311646 Eh   |
          | GRADIENT NORM               0.000036952064 Eh/α |
           -------------------------------------------------

 * finished run on 2025/08/25 at 23:56:56.981
