   * xtb version 6.7.1 (edcfbbe) compiled by 'albert@albert-system' on 2024-07-22

   ID    Z sym.   atoms
    1    6 C      1-8, 10, 12-25, 27-47, 49, 50
    2    7 N      9, 26
    3    8 O      11, 48
    4    1 H      51-86

          program call               : xtb data2507/gas/NA-TNA/NA-TNA_gas_T1_crest.xyz --gfn 2 --spinpol --tblite --uhf 2 --ohess vtight --parallel 40 --molden --ceasefiles --namespace data2507/gas/NA-TNA/NA-TNA_gas_T1_finalOpt
 * total energy  :  -130.8371345 Eh     change        0.2850354E-07 Eh
 * total energy  :  -130.8371497 Eh     change       -0.1527237E-04 Eh
 * total energy  :  -130.8371545 Eh     change       -0.4760326E-05 Eh
 * total energy  :  -130.8371553 Eh     change       -0.8448729E-06 Eh
 * total energy  :  -130.8371565 Eh     change       -0.1160481E-05 Eh
 * total energy  :  -130.8371577 Eh     change       -0.1160921E-05 Eh
 * total energy  :  -130.8371588 Eh     change       -0.1128609E-05 Eh
 * total energy  :  -130.8371594 Eh     change       -0.6203992E-06 Eh
 * total energy  :  -130.8371597 Eh     change       -0.3029151E-06 Eh
 * total energy  :  -130.8371602 Eh     change       -0.4849090E-06 Eh
 * total energy  :  -130.8371619 Eh     change       -0.3590501E-06 Eh
 * total energy  :  -130.8371622 Eh     change       -0.3390943E-06 Eh
 * total energy  :  -130.8371627 Eh     change       -0.4821742E-06 Eh
 * total energy  :  -130.8371630 Eh     change       -0.3154725E-06 Eh
 * total energy  :  -130.8371633 Eh     change       -0.2640210E-06 Eh
 * total energy  :  -130.8371636 Eh     change       -0.3703402E-06 Eh
 * total energy  :  -130.8371640 Eh     change       -0.3628478E-06 Eh
 * total energy  :  -130.8371644 Eh     change       -0.3989808E-06 Eh
 * total energy  :  -130.8371644 Eh     change       -0.1066562E-07 Eh
   *** GEOMETRY OPTIMIZATION CONVERGED AFTER 22 ITERATIONS ***

 final structure:
================
86
 xtb: 6.7.1 (edcfbbe)
C           12.34910383523775       -2.46684961959944       -0.93485816124583
C           12.22514030515383       -1.02802752721886       -0.41423061516795
C           12.84441261865848       -0.05221964929621       -1.42481931417416
C           13.01501657019288       -0.92398621678573        0.89328072988193
C           10.75253497993969       -0.69000742586372       -0.23888953840159
C            9.90373607568274       -0.73736245587435       -1.34232461742584
C            8.56149422036475       -0.43272513910122       -1.23713244793326
C            8.03240289673728       -0.07944316437744       -0.00650129196788
N            6.64232700735603        0.23585784777005        0.11318902354867
C            6.31929202548365        1.52535229105844        0.50404533033619
O            7.18954679430515        2.35149112959980        0.71631503740831
C            4.88978635866076        1.82688612732737        0.62882345186156
C            4.51191593783786        3.10446151469788        1.03322305456565
C            3.17281047942298        3.41042598097241        1.15755141730433
C            2.20185892339502        2.45845837471171        0.87617208110216
C            2.53169813796340        1.16808053548694        0.46008599221001
C            1.54688519077925        0.14475622692729        0.14844229557901
C            0.17908424135560        0.40912859071148        0.21016958590331
C           -0.86245499536501       -0.48190213588767       -0.05715340028925
C           -2.23612622634186       -0.18951900175253        0.00237383672243
C           -2.76470179487061        1.09194676467857        0.35002987210892
C           -4.09879253550542        1.32346080909351        0.39173536933009
C           -5.04078737197790        0.30117462929630        0.08751113121548
C           -6.41294214675890        0.52470247524885        0.12547821336198
C           -7.31548111014658       -0.49303141949180       -0.16657777417129
N           -8.68353632823479       -0.26058464849940       -0.13208407316469
C           -9.19708200603535        0.99852280237592       -0.47106084505952
C          -10.27196106913831        1.53364522171706        0.23857656583340
C          -10.77991449262697        2.77196084524274       -0.10259789622802
C          -10.22532456866571        3.49391922131495       -1.14724892527886
C           -9.15750888040929        2.96557486384311       -1.85505728246863
C           -8.64514579971581        1.72607699693792       -1.52561345227608
C           -9.56629643239473       -1.27772724138303        0.25397410905195
C           -9.22721244540789       -2.15285836876497        1.28600915749336
C          -10.10300127417219       -3.15240789342589        1.66223563747515
C          -11.32533127605176       -3.29062766115576        1.02431289882489
C          -11.66797737006738       -2.41996178506312        0.00212623918026
C          -10.79748642497222       -1.42033350199025       -0.38583347464301
C           -6.82139163530724       -1.77278413332686       -0.50881411510007
C           -5.48100499815336       -2.01026511482139       -0.55573201331111
C           -4.54033510699403       -0.99014425775518       -0.25779117203213
C           -3.16859677228860       -1.20662306496493       -0.29343693567939
C            2.03435517053882       -1.14330318782742       -0.23526746495935
C            3.36249907137389       -1.42359080292423       -0.33269819965417
C            4.32891206842726       -0.43800726485433       -0.05489764201400
C            3.91507746773805        0.85175203633202        0.34297250355077
C            5.73677078870672       -0.78160053196300       -0.17464244840091
O            6.12954674979934       -1.89229027407064       -0.49574876904290
C            8.85418520180100       -0.03168653184823        1.10523691763668
C           10.19992502728012       -0.32972472918967        0.98371011839494
H           13.39744457105922       -2.73566845915195       -1.04894541043810
H           11.86069745592405       -2.58317635894848       -1.89808353633985
H           11.88803957899593       -3.15998156155444       -0.23449588817107
H           13.90565107282521       -0.26055673944490       -1.54575348413006
H           12.36850152370028       -0.13434067525527       -2.39784541259163
H           12.73015945556692        0.97167671027879       -1.07532984371082
H           14.05799334347233       -1.17375381118927        0.70750423475060
H           12.63155606062833       -1.61742068918149        1.63804897899578
H           12.97780081029904        0.08666404962261        1.29284927741294
H           10.29010011259632       -1.01278983389525       -2.31197281495750
H            7.92141865029998       -0.47439411608825       -2.10532531704896
H            5.28453262873847        3.82786276520031        1.24260696594564
H            2.87055939202377        4.39721897009667        1.47565639504147
H            1.16999888655345        2.74970765578256        0.99312591375635
H           -0.11382575584255        1.40847888363341        0.48991006615264
H           -0.62073974595007       -1.49697838825749       -0.33724718234245
H           -2.08466534748112        1.89574697174679        0.58452845585791
H           -4.47715498192342        2.30095249968243        0.65612222987458
H           -6.78100142338717        1.50184046760441        0.40448838263953
H          -10.69706490143464        0.97592878622761        1.06005399274326
H          -11.60923131206062        3.17903879460480        0.45616871009034
H          -10.62355076325833        4.46207007775526       -1.40901790383688
H           -8.72523151496342        3.51869149144936       -2.67537483924019
H           -7.82209639498557        1.30811169050141       -2.08638831824339
H           -8.28080279160295       -2.03538133318904        1.79313591466190
H           -9.83256351599608       -3.82214723490415        2.46473277309211
H          -12.00748719762051       -4.07162465011551        1.32283265724994
H          -12.61684485870457       -2.52446396318791       -0.50227274551438
H          -11.05952698800165       -0.74849127739474       -1.18992353014457
H           -7.52486148382044       -2.55458896994530       -0.75452323182252
H           -5.11263398278664       -2.98633472927607       -0.83523335474133
H           -2.80225415004437       -2.18961432079137       -0.55464725056208
H            1.32195396040147       -1.92004710264006       -0.46042068903156
H            3.71472065772616       -2.40090253031349       -0.62605520945106
H            8.44377475037443        0.24582843281379        2.06437781817881
H           10.81041346678622       -0.27749778404066        1.87016481918949

 projected vibrational frequencies (cm⁻¹)
eigval :       -0.00    -0.00     0.00     0.00     0.00     0.00
eigval :        2.04     7.49    15.36    16.90    23.29    29.39
eigval :       31.93    35.39    42.94    51.95    58.58    59.05
eigval :       64.20    69.82    85.04    93.88   107.38   112.39
eigval :      120.43   138.29   147.38   149.59   174.42   176.00
eigval :      183.77   189.61   203.91   216.39   228.39   235.30
eigval :      238.02   253.01   259.39   266.34   279.22   304.78
eigval :      312.10   315.92   317.45   326.54   357.13   362.71
eigval :      365.10   370.11   377.30   381.88   382.97   388.26
eigval :      390.74   393.58   403.15   413.42   429.48   434.31
eigval :      446.33   452.44   461.99   464.44   484.89   492.82
eigval :      496.76   502.17   510.69   516.69   526.70   545.87
eigval :      558.01   569.47   576.41   582.49   586.50   592.27
eigval :      596.41   609.64   628.24   633.26   652.33   660.98
eigval :      664.72   669.47   684.07   691.05   699.72   708.35
eigval :      708.78   734.42   756.78   758.04   763.92   769.58
eigval :      773.87   784.53   797.32   799.73   803.60   812.58
eigval :      823.33   828.20   837.27   844.88   860.32   863.24
eigval :      865.58   870.76   873.90   875.25   882.89   887.12
eigval :      896.75   898.05   908.32   909.53   910.12   913.59
eigval :      914.27   917.20   917.64   923.58   928.51   929.43
eigval :      930.21   930.33   955.30   960.73   962.77   962.89
eigval :      973.12  1003.13  1006.14  1013.65  1032.60  1035.94
eigval :     1035.94  1081.77  1082.80  1085.44  1121.64  1123.22
eigval :     1127.17  1136.34  1141.40  1144.42  1149.72  1163.03
eigval :     1174.42  1179.63  1179.75  1179.90  1184.89  1192.67
eigval :     1196.29  1200.02  1207.25  1209.38  1215.24  1226.01
eigval :     1228.50  1234.24  1244.41  1248.26  1256.40  1275.52
eigval :     1277.56  1280.06  1281.52  1283.62  1287.43  1298.05
eigval :     1304.45  1311.23  1318.55  1321.41  1324.12  1325.78
eigval :     1336.64  1349.88  1358.89  1375.58  1377.55  1398.89
eigval :     1400.53  1404.86  1410.40  1417.97  1422.92  1427.13
eigval :     1431.10  1433.86  1441.01  1451.71  1456.34  1464.07
eigval :     1465.06  1472.68  1482.70  1488.08  1490.94  1493.93
eigval :     1498.04  1502.00  1505.75  1513.99  1519.23  1526.39
eigval :     1538.68  1555.84  1573.07  1575.88  1578.45  1581.23
eigval :     1586.22  1587.13  1593.24  1603.48  1642.37  1664.79
eigval :     3019.80  3021.12  3028.52  3029.32  3032.99  3037.54
eigval :     3038.29  3048.08  3051.68  3069.20  3069.75  3076.04
eigval :     3078.54  3079.30  3080.81  3081.37  3081.98  3082.19
eigval :     3082.59  3082.68  3089.72  3090.27  3090.56  3091.64
eigval :     3093.51  3094.04  3094.39  3095.54  3096.31  3097.32
eigval :     3102.49  3102.77  3105.03  3109.00  3112.84  3115.19

   temp. (K)  partition function   enthalpy   heat capacity  entropy
                                   cal/mol     cal/K/mol   cal/K/mol   J/K/mol
 298.15  VIB  0.133E+22            25271.889    156.021    159.854
         ROT  0.155E+09              888.752      2.981     40.454
         INT  0.206E+30            26160.642    159.002    200.308
         TR   0.160E+29             1481.254      4.968     45.271
         TOT                       27641.8957   163.9700   245.5791  1027.5030

       T/K    H(0)-H(T)+PV         H(T)/Eh          T*S/Eh         G(T)/Eh
   ------------------------------------------------------------------------
    298.15    0.440502E-01    0.716016E+00    0.116683E+00    0.599333E+00
   ------------------------------------------------------------------------

         :::::::::::::::::::::::::::::::::::::::::::::::::::::
         ::                  THERMODYNAMIC                  ::
         :::::::::::::::::::::::::::::::::::::::::::::::::::::
         :: total free energy        -130.237831424265 Eh   ::
         ::.................................................::
         :: total energy             -130.837164415686 Eh   ::
         :: zero point energy           0.671965390831 Eh   ::
         :: G(RRHO) w/o ZPVE           -0.072632399410 Eh   ::
         :: G(RRHO) contrib.            0.599332991421 Eh   ::
         :::::::::::::::::::::::::::::::::::::::::::::::::::::

           -------------------------------------------------
          | TOTAL ENERGY             -130.837164415686 Eh   |
          | TOTAL ENTHALPY           -130.121148860160 Eh   |
          | TOTAL FREE ENERGY        -130.237831424265 Eh   |
          | GRADIENT NORM               0.000049647366 Eh/α |
           -------------------------------------------------

 * finished run on 2025/08/26 at 00:04:44.376
