   * xtb version 6.7.1 (edcfbbe) compiled by 'albert@albert-system' on 2024-07-22

   ID    Z sym.   atoms
    1    6 C      1-8, 10, 12-25, 27-47, 49, 50
    2    7 N      9, 26
    3    8 O      11, 48
    4    1 H      51-86

          program call               : xtb data2507/gas/NA-TNA/NA-TNA.xyz --gfn 2 --ohess vtight --parallel 40 --molden --ceasefiles --namespace data2507/gas/NA-TNA/NA-TNA_gas_S0_preOpt
          :  Hamiltonian                  GFN2-xTB          :
 * total energy  :  -130.8579906 Eh     change       -0.4894162E-08 Eh
 * total energy  :  -130.8752339 Eh     change       -0.1724336E-01 Eh
 * total energy  :  -130.8813073 Eh     change       -0.6073402E-02 Eh
 * total energy  :  -130.8835742 Eh     change       -0.2266884E-02 Eh
 * total energy  :  -130.8856974 Eh     change       -0.2123187E-02 Eh
 * total energy  :  -130.8872559 Eh     change       -0.1558516E-02 Eh
 * total energy  :  -130.8885273 Eh     change       -0.1271397E-02 Eh
 * total energy  :  -130.8895275 Eh     change       -0.1000233E-02 Eh
 * total energy  :  -130.8901697 Eh     change       -0.6421761E-03 Eh
 * total energy  :  -130.8905676 Eh     change       -0.3979255E-03 Eh
 * total energy  :  -130.8923635 Eh     change       -0.9878887E-06 Eh
 * total energy  :  -130.8923644 Eh     change       -0.8708176E-06 Eh
 * total energy  :  -130.8923650 Eh     change       -0.6383541E-06 Eh
 * total energy  :  -130.8923655 Eh     change       -0.5258959E-06 Eh
 * total energy  :  -130.8923660 Eh     change       -0.4298436E-06 Eh
 * total energy  :  -130.8923664 Eh     change       -0.4690164E-06 Eh
 * total energy  :  -130.8923669 Eh     change       -0.4465606E-06 Eh
 * total energy  :  -130.8923673 Eh     change       -0.3668522E-06 Eh
 * total energy  :  -130.8923673 Eh     change       -0.3747402E-08 Eh
   *** GEOMETRY OPTIMIZATION CONVERGED AFTER 122 ITERATIONS ***

 final structure:
================
86
 xtb: 6.7.1 (edcfbbe)
C           12.52654254870396        1.01060607732406       -0.66375735693403
C           11.91618348827773       -0.29378973297652       -0.13199892703971
C           12.56536743558910       -0.60817320191112        1.21856921675072
C           12.23098104387456       -1.44801581486702       -1.09395189165997
C           10.40755413840246       -0.12891880029235       -0.03350561681456
C            9.67304630107998        0.15368996118522       -1.18286097825944
C            8.30248210722858        0.31619299113342       -1.14517937658587
C            7.63147296612553        0.18893171232254        0.05943091455054
N            6.20781931242252        0.34717267868634        0.11345970773150
C            5.72566460047786        1.42392588752887        0.84205537463607
O            6.48454963230501        2.20956538285883        1.37115832216408
C            4.26010420396584        1.54919556490656        0.92438045797508
C            3.71743008161773        2.57763014717240        1.66545901375475
C            2.33303454807900        2.70056140442092        1.77647684929755
C            1.50111488766698        1.81312423953376        1.14113713312677
C            2.01076972534237        0.76241396137779        0.35195348443691
C            1.18007239824381       -0.18332724198255       -0.32735428716079
C           -0.26371243292450       -0.06722193532407       -0.29012465508136
C           -1.10950656238139       -1.10774095643073       -0.37668460130663
C           -2.55444966368831       -1.05286013431221       -0.33907559673025
C           -3.26983712100239       -2.27651628002386       -0.37450605445271
C           -4.63049179113314       -2.30830387362441       -0.32866604394305
C           -5.38078163067836       -1.11408756889321       -0.24131962594260
C           -6.78232650230559       -1.11567878430445       -0.18917441585123
C           -7.49334839923768        0.06314756730100       -0.09865097205646
N           -8.88417784409213        0.06257100983158       -0.02275969021138
C           -9.55710654539161       -0.98341201450495        0.62507615968893
C          -10.74872691306418       -1.48398286070431        0.10280415920421
C          -11.41590791372855       -2.50652673551440        0.74931457882097
C          -10.90530791037653       -3.04930035875368        1.91687279008716
C           -9.72017143221001       -2.55651908471996        2.43839214594494
C           -9.04984692833346       -1.52913050595714        1.80358869750031
C           -9.62464574973111        1.09357427614081       -0.61552304546060
C           -9.22433970126146        1.64380240854787       -1.83274569737873
C           -9.95674609018569        2.66389656958431       -2.40849864017570
C          -11.09971454154037        3.14286392154653       -1.78973205777399
C          -11.50527121843859        2.59431503915135       -0.58387584916379
C          -10.77475827692775        1.58057883736585        0.00464164822164
C           -6.79032038340656        1.29157483953361       -0.06663727808886
C           -5.42994975963358        1.31624617066392       -0.12653693623153
C           -4.67904373363523        0.12155987249614       -0.21447678382214
C           -3.27793060437337        0.12293802461532       -0.26496041976763
C            1.78358602897650       -1.20678963007897       -1.04350909304736
C            3.16380521486301       -1.33633880265905       -1.11638960222031
C            3.98865051124301       -0.43188946396818       -0.47569098047736
C            3.42197705037459        0.62714434063782        0.26254474925233
C            5.44527263289443       -0.59834982944265       -0.56147172938287
O            5.97446264063707       -1.50776425888976       -1.16688529964884
C            8.33760837631806       -0.09498677704185        1.21421546427899
C            9.71187642002970       -0.24686095177053        1.16333625528173
H           13.60939201586779        0.92117665284835       -0.72164807443767
H           12.28255836787308        1.83686386335705        0.00055215429139
H           12.15122678107407        1.24889687166855       -1.65490275397016
H           13.64026985311684       -0.71615480331347        1.08709147679678
H           12.39385922699567        0.19472516198932        1.93157949867183
H           12.18261931300655       -1.53955754833688        1.62921184859514
H           13.30664063121479       -1.59856248423653       -1.15899130557783
H           11.85463847373427       -1.24638020587001       -2.09269893234851
H           11.77361068819924       -2.36857258729553       -0.73776429235464
H           10.17283477362539        0.25449323356885       -2.13416421367276
H            7.75203095205192        0.53466491880772       -2.04771897491186
H            4.38264290571233        3.27001204441614        2.15875251273657
H            1.91593718715374        3.49871870131145        2.37213739266727
H            0.43454375925924        1.92029321186945        1.26200876967995
H           -0.66201268985708        0.92930625916446       -0.17301203172970
H           -0.69913250912449       -2.10742493970600       -0.44560651760244
H           -2.71069646645377       -3.19954255446125       -0.43712467741360
H           -5.15923914018660       -3.25040824711138       -0.35560515110085
H           -7.30563619829303       -2.06060294247331       -0.22037291069643
H          -11.14412076474549       -1.06737332364194       -0.81206258651347
H          -12.33705441181222       -2.88711205801967        0.33329842549466
H          -11.42745447131349       -3.85037952896257        2.41747977504865
H           -9.31807654233734       -2.96931968155471        3.35187091761855
H           -8.13113781635166       -1.13977998901628        2.21744135335280
H           -8.34054029942513        1.26267497483837       -2.32346976788012
H           -9.63707136883719        3.08091647527136       -3.35211634707953
H          -11.67137314984893        3.93734341637351       -2.24463008269052
H          -12.39316259685723        2.96427264469407       -0.09275417955257
H          -11.08696101167170        1.16004003274258        0.94938804992023
H           -7.35176118466123        2.21005595502157        0.02114905830343
H           -4.90340955073972        2.25939641399770       -0.09329262150986
H           -2.77358663921965        1.07772567644991       -0.24454711989423
H            1.16573257420300       -1.90744363216227       -1.58403582221584
H            3.61623048652336       -2.13830253125445       -1.68030476133585
H            7.81454376840543       -0.19144484272461        2.15382589748185
H           10.23010340866737       -0.46395489514530        2.08266937382161

          :  Hamiltonian                  GFN2-xTB          :
         :: gradient norm              0.000061136205 Eh/a0 ::
         :: HOMO-LUMO gap              1.257446699074 eV    ::
         :: SCC energy              -133.217493065737 Eh    ::
         :: -> dispersion             -0.111911353311 Eh    ::
         :: repulsion energy           2.325125802820 Eh    ::

    * Orbital Energies and Occupations

         #    Occupation            Energy/Eh            Energy/eV
      -------------------------------------------------------------
         1        2.0000           -0.7065799             -19.2270
       ...           ...                  ...                  ...
       109        2.0000           -0.4161057             -11.3228
       110        2.0000           -0.4141592             -11.2698
       111        2.0000           -0.4124173             -11.2224
       112        2.0000           -0.4109974             -11.1838
       113        2.0000           -0.4076497             -11.0927
       114        2.0000           -0.4049546             -11.0194
       115        2.0000           -0.4004663             -10.8972
       116        2.0000           -0.3990288             -10.8581
       117        2.0000           -0.3954012             -10.7594
       118        2.0000           -0.3934835             -10.7072
       119        2.0000           -0.3855033             -10.4901
       120        2.0000           -0.3821667             -10.3993
       121        2.0000           -0.3549909              -9.6598 (HOMO)
       122                         -0.3087806              -8.4023 (LUMO)
       123                         -0.2743538              -7.4655
       124                         -0.2553949              -6.9496
       125                         -0.2452261              -6.6729
       126                         -0.2397103              -6.5228
       127                         -0.2367432              -6.4421
       128                         -0.2316763              -6.3042
       129                         -0.2281110              -6.2072
       130                         -0.2269207              -6.1748
       131                         -0.2166267              -5.8947
       132                         -0.2151630              -5.8549
       ...                                ...                  ...
       236                          0.7367409              20.0477
      -------------------------------------------------------------
                  HL-Gap            0.0462103 Eh            1.2574 eV

     #   Z          covCN         q      C6AA      α(0)
     1   6 C        3.762    -0.107    22.585     6.774
     2   6 C        3.903     0.026    20.079     6.369
     3   6 C        3.761    -0.109    22.629     6.781
     4   6 C        3.762    -0.107    22.586     6.775
     5   6 C        2.973     0.012    27.748     8.641
     6   6 C        2.930    -0.032    28.790     8.799
     7   6 C        2.920    -0.029    28.719     8.788
     8   6 C        2.937     0.082    26.167     8.389
     9   7 N        2.746    -0.104    23.272     7.165
    10   6 C        2.776     0.273    22.383     7.749
    11   8 O        0.859    -0.408    21.850     6.267
    12   6 C        2.978    -0.026    28.638     8.778
    13   6 C        2.922    -0.013    28.350     8.732
    14   6 C        2.914    -0.028    28.707     8.786
    15   6 C        2.919    -0.026    28.649     8.777
    16   6 C        2.983     0.011    27.774     8.645
    17   6 C        2.969     0.020    27.552     8.610
    18   6 C        2.900    -0.042    29.049     8.837
    19   6 C        2.903    -0.033    28.821     8.803
    20   6 C        2.966     0.010    27.791     8.647
    21   6 C        2.924    -0.034    28.852     8.809
    22   6 C        2.915    -0.037    28.926     8.819
    23   6 C        2.986     0.014    27.702     8.634
    24   6 C        2.922    -0.059    29.475     8.903
    25   6 C        2.920     0.066    26.522     8.445
    26   7 N        2.753    -0.072    22.638     7.067
    27   6 C        2.925     0.065    26.554     8.451
    28   6 C        2.922    -0.046    29.150     8.854
    29   6 C        2.920    -0.029    28.716     8.788
    30   6 C        2.919    -0.037    28.918     8.818
    31   6 C        2.920    -0.029    28.719     8.788
    32   6 C        2.922    -0.046    29.149     8.854
    33   6 C        2.925     0.065    26.546     8.449
    34   6 C        2.922    -0.047    29.161     8.856
    35   6 C        2.920    -0.029    28.722     8.789
    36   6 C        2.919    -0.037    28.922     8.819
    37   6 C        2.920    -0.029    28.716     8.788
    38   6 C        2.922    -0.047    29.157     8.855
    39   6 C        2.917    -0.045    29.122     8.849
    40   6 C        2.917    -0.035    28.874     8.812
    41   6 C        2.984     0.006    27.870     8.660
    42   6 C        2.923    -0.037    28.930     8.820
    43   6 C        2.921    -0.035    28.880     8.813
    44   6 C        2.919    -0.014    28.368     8.734
    45   6 C        2.977    -0.030    28.745     8.795
    46   6 C        2.994     0.009    27.810     8.651
    47   6 C        2.775     0.273    22.391     7.750
    48   8 O        0.859    -0.409    21.869     6.270
    49   6 C        2.921    -0.029    28.734     8.790
    50   6 C        2.927    -0.036    28.896     8.816
    51   1 H        0.925     0.038     2.474     2.460
    52   1 H        0.925     0.036     2.500     2.472
    53   1 H        0.925     0.037     2.484     2.465
    54   1 H        0.925     0.037     2.487     2.466
    55   1 H        0.925     0.038     2.481     2.463
    56   1 H        0.925     0.037     2.492     2.469
    57   1 H        0.925     0.038     2.476     2.461
    58   1 H        0.925     0.038     2.473     2.459
    59   1 H        0.925     0.036     2.502     2.473
    60   1 H        0.926     0.039     2.464     2.455
    61   1 H        0.926     0.042     2.424     2.435
    62   1 H        0.926     0.067     2.120     2.277
    63   1 H        0.926     0.043     2.403     2.424
    64   1 H        0.926     0.045     2.387     2.416
    65   1 H        0.926     0.043     2.403     2.424
    66   1 H        0.925     0.041     2.440     2.443
    67   1 H        0.926     0.032     2.556     2.500
    68   1 H        0.926     0.033     2.550     2.497
    69   1 H        0.926     0.033     2.541     2.493
    70   1 H        0.926     0.033     2.547     2.496
    71   1 H        0.926     0.033     2.537     2.491
    72   1 H        0.926     0.032     2.552     2.498
    73   1 H        0.926     0.033     2.538     2.491
    74   1 H        0.926     0.033     2.548     2.496
    75   1 H        0.926     0.032     2.551     2.498
    76   1 H        0.926     0.033     2.542     2.493
    77   1 H        0.926     0.032     2.555     2.500
    78   1 H        0.926     0.033     2.540     2.492
    79   1 H        0.926     0.033     2.550     2.497
    80   1 H        0.926     0.035     2.513     2.479
    81   1 H        0.926     0.034     2.526     2.485
    82   1 H        0.926     0.033     2.545     2.495
    83   1 H        0.926     0.046     2.376     2.410
    84   1 H        0.926     0.066     2.131     2.283
    85   1 H        0.926     0.041     2.441     2.443
    86   1 H        0.926     0.045     2.377     2.411

molecular dipole:
                 x           y           z       tot (Debye)
 q only:       -2.468       0.042       0.077
   full:       -2.743       0.085       0.100       6.979

 projected vibrational frequencies (cm⁻¹)
eigval :       -0.00    -0.00    -0.00     0.00     0.00     0.00
eigval :        5.32     6.86    11.97    19.13    23.55    27.84
eigval :       33.90    37.14    42.40    51.87    56.76    58.42
eigval :       64.16    74.33    83.09    88.04   106.32   108.30
eigval :      117.34   130.17   150.15   171.57   175.51   176.33
eigval :      181.25   183.81   215.92   223.22   226.12   230.49
eigval :      236.35   251.46   266.33   279.75   289.68   308.83
eigval :      313.33   316.71   320.41   350.18   355.17   362.68
eigval :      369.33   370.77   377.99   381.88   383.97   391.75
eigval :      395.27   399.21   408.68   422.02   431.96   441.41
eigval :      448.28   455.15   463.46   467.71   489.28   490.44
eigval :      496.56   507.53   508.75   531.00   543.71   549.01
eigval :      552.18   572.46   581.92   586.33   591.29   599.97
eigval :      604.31   611.99   627.71   640.08   654.07   661.53
eigval :      665.46   680.00   687.06   699.67   705.16   709.11
eigval :      716.14   746.74   755.08   757.72   764.08   773.33
eigval :      775.84   800.81   805.51   806.77   818.74   829.64
eigval :      841.02   847.82   848.46   861.36   866.03   870.91
eigval :      875.22   875.96   878.14   888.87   893.83   895.58
eigval :      904.90   910.47   910.64   918.43   920.21   921.81
eigval :      922.84   923.99   927.15   928.19   929.49   929.81
eigval :      930.02   961.11   962.99   963.44   972.21   982.82
eigval :      990.15  1004.41  1006.63  1017.04  1032.52  1036.05
eigval :     1036.21  1082.89  1083.98  1090.27  1121.83  1123.66
eigval :     1132.51  1141.36  1145.33  1149.35  1153.18  1172.88
eigval :     1176.42  1178.33  1180.58  1180.67  1188.60  1193.22
eigval :     1195.17  1198.54  1207.56  1214.49  1223.69  1228.13
eigval :     1228.69  1234.16  1239.33  1247.58  1258.39  1265.35
eigval :     1277.88  1279.77  1280.50  1282.63  1293.22  1304.73
eigval :     1312.57  1315.30  1318.42  1322.49  1323.75  1326.57
eigval :     1338.21  1341.69  1363.50  1388.34  1395.05  1399.46
eigval :     1400.00  1405.83  1410.75  1410.91  1429.16  1430.07
eigval :     1435.90  1442.45  1447.18  1464.94  1471.72  1475.09
eigval :     1486.98  1491.08  1491.47  1494.09  1502.21  1505.57
eigval :     1507.91  1514.37  1519.49  1539.17  1551.08  1562.69
eigval :     1577.18  1581.41  1582.37  1583.54  1590.67  1594.28
eigval :     1596.55  1603.79  1604.38  1631.86  1687.15  1698.96
eigval :     3022.55  3024.25  3030.04  3031.23  3034.22  3038.30
eigval :     3039.75  3049.36  3052.88  3053.68  3067.63  3072.41
eigval :     3077.09  3077.36  3077.91  3078.63  3078.92  3079.94
eigval :     3083.00  3084.80  3085.04  3086.43  3087.24  3088.46
eigval :     3088.89  3089.65  3090.57  3090.94  3091.32  3096.83
eigval :     3098.59  3099.01  3100.13  3100.65  3104.42  3117.65

   temp. (K)  partition function   enthalpy   heat capacity  entropy
                                   cal/mol     cal/K/mol   cal/K/mol   J/K/mol
 298.15  VIB  0.519E+21            25083.767    154.820    158.147
         ROT  0.149E+09              888.752      2.981     40.385
         INT  0.775E+29            25972.519    157.801    198.531
         TR   0.160E+29             1481.254      4.968     45.271
         TOT                       27453.7733   162.7695   243.8028  1020.0711

       T/K    H(0)-H(T)+PV         H(T)/Eh          T*S/Eh         G(T)/Eh
   ------------------------------------------------------------------------
    298.15    0.437504E-01    0.718354E+00    0.115839E+00    0.602516E+00
   ------------------------------------------------------------------------

         :::::::::::::::::::::::::::::::::::::::::::::::::::::
         ::                  THERMODYNAMIC                  ::
         :::::::::::::::::::::::::::::::::::::::::::::::::::::
         :: total free energy        -130.289851376488 Eh   ::
         ::.................................................::
         :: total energy             -130.892367262916 Eh   ::
         :: zero point energy           0.674604107011 Eh   ::
         :: G(RRHO) w/o ZPVE           -0.072088220583 Eh   ::
         :: G(RRHO) contrib.            0.602515886428 Eh   ::
         :::::::::::::::::::::::::::::::::::::::::::::::::::::

           -------------------------------------------------
          | TOTAL ENERGY             -130.892367262916 Eh   |
          | TOTAL ENTHALPY           -130.174012783358 Eh   |
          | TOTAL FREE ENERGY        -130.289851376488 Eh   |
          | GRADIENT NORM               0.000061129594 Eh/α |
          | HOMO-LUMO GAP               1.257446525628 eV   |
           -------------------------------------------------

 * finished run on 2025/08/25 at 23:48:02.620
