   * xtb version 6.7.1 (edcfbbe) compiled by 'albert@albert-system' on 2024-07-22

   ID    Z sym.   atoms
    1    6 C      1-8, 10, 12-25, 27-47, 49, 50
    2    7 N      9, 26
    3    8 O      11, 48
    4    1 H      51-86

          program call               : xtb data2507/gas/NA-TNA/NA-TNA_gas_S0_crest.xyz --gfn 2 --ohess vtight --parallel 40 --molden --ceasefiles --namespace data2507/gas/NA-TNA/NA-TNA_gas_S0_finalOpt
          :  Hamiltonian                  GFN2-xTB          :
 * total energy  :  -130.8924944 Eh     change       -0.4467552E-08 Eh
 * total energy  :  -130.8924961 Eh     change       -0.1734284E-05 Eh
 * total energy  :  -130.8924977 Eh     change       -0.1631421E-05 Eh
 * total energy  :  -130.8925005 Eh     change       -0.2796778E-05 Eh
 * total energy  :  -130.8925039 Eh     change       -0.3394622E-05 Eh
 * total energy  :  -130.8925080 Eh     change       -0.4055644E-05 Eh
 * total energy  :  -130.8925124 Eh     change       -0.4374475E-05 Eh
 * total energy  :  -130.8925160 Eh     change       -0.3649825E-05 Eh
 * total energy  :  -130.8925187 Eh     change       -0.2714827E-05 Eh
 * total energy  :  -130.8925208 Eh     change       -0.2119418E-05 Eh
 * total energy  :  -130.8925687 Eh     change       -0.8040821E-06 Eh
 * total energy  :  -130.8925694 Eh     change       -0.7347610E-06 Eh
 * total energy  :  -130.8925700 Eh     change       -0.6355486E-06 Eh
 * total energy  :  -130.8925706 Eh     change       -0.5611762E-06 Eh
 * total energy  :  -130.8925711 Eh     change       -0.5209231E-06 Eh
 * total energy  :  -130.8925717 Eh     change       -0.5458913E-06 Eh
 * total energy  :  -130.8925723 Eh     change       -0.6301655E-06 Eh
 * total energy  :  -130.8925730 Eh     change       -0.7234752E-06 Eh
 * total energy  :  -130.8925730 Eh     change       -0.4733977E-08 Eh
   *** GEOMETRY OPTIMIZATION CONVERGED AFTER 44 ITERATIONS ***

 final structure:
================
86
 xtb: 6.7.1 (edcfbbe)
C           12.72894533294004       -1.83072669547657       -1.15460744784193
C           12.26365956985732       -0.94058357884884        0.00090375184549
C           13.01988597153040        0.39256026575601       -0.08741196328891
C           12.60746990318757       -1.64932108984023        1.31860111935146
C           10.76883656959089       -0.66327109763713       -0.03706511502949
C            9.93078392425022       -1.16795038236561       -1.02354455315970
C            8.57587699959222       -0.88585946427500       -1.03091260923301
C            8.03150966569852       -0.09440242041148       -0.03636889453048
N            6.62966868919164        0.20509720747436       -0.03673782278679
C            6.27747336921566        1.53270466521806       -0.22856806882508
O            7.12402055930479        2.38288599714833       -0.41203720167283
C            4.83568598608746        1.83280499237615       -0.20276797111953
C            4.41874159865941        3.13336999915953       -0.39342586402106
C            3.05770994385496        3.43645213542683       -0.39002171112830
C            2.12505791104759        2.45204438651356       -0.17917867813675
C            2.50703407830208        1.11368794837033        0.04272030971017
C            1.56805227810216        0.05909066593911        0.26741532481234
C            0.15347359001635        0.34306227446824        0.40010132709525
C           -0.83301407801504       -0.50290789790555        0.06030195775010
C           -2.25195388497674       -0.25509762990275        0.19551903559981
C           -2.76756428799583        0.82955912328091        0.94746956618826
C           -4.10855566137498        1.04525587291488        1.04608951740037
C           -5.03530882916283        0.19716861765159        0.39825350186234
C           -6.41958434134869        0.40435338972858        0.48178854090388
C           -7.30554290156637       -0.43646189237522       -0.16001414647195
N           -8.67969825608694       -0.21576374397762       -0.09879475453598
C           -9.18170056337732        1.09181137378070       -0.02864622658322
C          -10.27325645343432        1.38467083672279        0.78743928839981
C          -10.77184380852150        2.67180396541440        0.84619623803887
C          -10.18929102546512        3.68449153203961        0.10214575771480
C           -9.10296536060602        3.39852442454876       -0.70871880216824
C           -8.60208832447803        2.11330155999277       -0.78010058529176
C           -9.57032979199094       -1.29667754413002       -0.07786666821982
C           -9.25293373643798       -2.46319393054797        0.61718388035609
C          -10.13527446557208       -3.52613061654717        0.63009295450667
C          -11.34631046734849       -3.44115309398729       -0.03684524971966
C          -11.66879790902420       -2.28169277404385       -0.72322160407593
C          -10.78950156609022       -1.21694503272426       -0.75010886377534
C           -6.80231224005089       -1.52979403742878       -0.90486466812251
C           -5.46142358561515       -1.75514911645827       -0.99045639481122
C           -4.53456252035848       -0.90407576924712       -0.34704394753422
C           -3.14890610479183       -1.10525570831136       -0.42528489652100
C            2.04027627504214       -1.23817875683090        0.39962548344478
C            3.39647275678600       -1.53228464943125        0.34751915807233
C            4.32696812114860       -0.52697942464368        0.16628336585118
C            3.89246717509850        0.80471666254307        0.00589614996609
C            5.75741700259214       -0.86027987295970        0.15172391959731
O            6.17732322446714       -1.98879451635159        0.30565239885280
C            8.84503490780981        0.41441590462925        0.96253471197510
C           10.19619342097467        0.13258254926883        0.95247942234789
H           13.80182624855152       -1.99518989414470       -1.07548624576282
H           12.53197681020004       -1.36002228344049       -2.11491456856812
H           12.23769994058231       -2.80035005201916       -1.12365287688214
H           14.09344591252880        0.21535653962920       -0.08239803416405
H           12.75904617928324        0.91169233428080       -1.00717015828544
H           12.77810794203369        1.04208526842495        0.74896331325515
H           13.67083656662632       -1.87703738289323        1.35490407695339
H           12.05115174015729       -2.58068059057625        1.39983716121932
H           12.36277250104744       -1.03093310610092        2.17749816317026
H           10.32097532569460       -1.79024992406442       -1.81185145105486
H            7.94153528610898       -1.28587627806466       -1.80746914443407
H            5.16256037622034        3.89925957167296       -0.55280968754427
H            2.73885075310884        4.45417272973181       -0.55844946197652
H            1.07764538810883        2.71003439159230       -0.20091232732939
H           -0.09848950721334        1.31465305245321        0.79846655969346
H           -0.57847558574545       -1.44699057171506       -0.40500744404665
H           -2.08548370746456        1.48756233413600        1.46356042171249
H           -4.48787694632556        1.87444851377086        1.62640114203806
H           -6.78996238481966        1.23903300965708        1.05962567483308
H          -10.72366888506703        0.59780199998172        1.37466964533965
H          -11.61643943951929        2.88639975565901        1.48419199372724
H          -10.57932239530793        4.68960938283601        0.15315979860566
H           -8.64655559997366        4.18058462135245       -1.29746803981769
H           -7.76102933400460        1.89052387220634       -1.42034144987216
H           -8.31484268813455       -2.52654832385884        1.14927902186086
H           -9.87863472671201       -4.42360855870799        1.17339262179276
H          -12.03478022138207       -4.27222263568568       -0.02091213684021
H          -12.60921567040206       -2.20826640499557       -1.24920521910347
H          -11.03828898269292       -0.31693303432094       -1.29320672782341
H           -7.50036714042268       -2.17507290568287       -1.41758949920145
H           -5.08730286671540       -2.58762790655586       -1.56897072345060
H           -2.78144563279371       -1.94591273472297       -0.99832438806598
H            1.33898580654376       -2.03740208039133        0.58555412445339
H            3.74839804694960       -2.54618881948391        0.46594320018759
H            8.42094323014034        1.03390507346512        1.73838109438908
H           10.80944556554587        0.54485136708796        1.73914840876536

          :  Hamiltonian                  GFN2-xTB          :
         :: gradient norm              0.000055923028 Eh/a0 ::
         :: HOMO-LUMO gap              1.261138633483 eV    ::
         :: SCC energy              -133.217806344381 Eh    ::
         :: -> dispersion             -0.111848439376 Eh    ::
         :: repulsion energy           2.325233328212 Eh    ::

    * Orbital Energies and Occupations

         #    Occupation            Energy/Eh            Energy/eV
      -------------------------------------------------------------
         1        2.0000           -0.7065086             -19.2251
       ...           ...                  ...                  ...
       109        2.0000           -0.4161081             -11.3229
       110        2.0000           -0.4139794             -11.2650
       111        2.0000           -0.4122373             -11.2175
       112        2.0000           -0.4107869             -11.1781
       113        2.0000           -0.4073881             -11.0856
       114        2.0000           -0.4048251             -11.0159
       115        2.0000           -0.4004520             -10.8969
       116        2.0000           -0.3989288             -10.8554
       117        2.0000           -0.3953080             -10.7569
       118        2.0000           -0.3935645             -10.7094
       119        2.0000           -0.3854312             -10.4881
       120        2.0000           -0.3822011             -10.4002
       121        2.0000           -0.3548669              -9.6564 (HOMO)
       122                         -0.3085209              -8.3953 (LUMO)
       123                         -0.2731884              -7.4338
       124                         -0.2562753              -6.9736
       125                         -0.2451124              -6.6698
       126                         -0.2397541              -6.5240
       127                         -0.2365760              -6.4376
       128                         -0.2315276              -6.3002
       129                         -0.2279092              -6.2017
       130                         -0.2265511              -6.1648
       131                         -0.2163481              -5.8871
       132                         -0.2150481              -5.8518
       ...                                ...                  ...
       236                          0.7367255              20.0473
      -------------------------------------------------------------
                  HL-Gap            0.0463460 Eh            1.2611 eV

     #   Z          covCN         q      C6AA      α(0)
     1   6 C        3.761    -0.109    22.629     6.781
     2   6 C        3.903     0.026    20.078     6.369
     3   6 C        3.762    -0.107    22.586     6.775
     4   6 C        3.762    -0.107    22.585     6.775
     5   6 C        2.973     0.012    27.749     8.641
     6   6 C        2.927    -0.036    28.896     8.816
     7   6 C        2.920    -0.029    28.725     8.789
     8   6 C        2.937     0.082    26.168     8.390
     9   7 N        2.746    -0.104    23.274     7.165
    10   6 C        2.776     0.273    22.383     7.749
    11   8 O        0.859    -0.408    21.850     6.267
    12   6 C        2.978    -0.026    28.639     8.778
    13   6 C        2.922    -0.013    28.349     8.731
    14   6 C        2.914    -0.028    28.705     8.786
    15   6 C        2.919    -0.026    28.652     8.778
    16   6 C        2.983     0.010    27.779     8.646
    17   6 C        2.969     0.020    27.560     8.611
    18   6 C        2.901    -0.042    29.051     8.837
    19   6 C        2.904    -0.033    28.815     8.802
    20   6 C        2.967     0.010    27.790     8.647
    21   6 C        2.919    -0.034    28.850     8.808
    22   6 C        2.916    -0.037    28.926     8.819
    23   6 C        2.986     0.013    27.708     8.635
    24   6 C        2.922    -0.059    29.473     8.903
    25   6 C        2.920     0.066    26.522     8.445
    26   7 N        2.753    -0.072    22.642     7.067
    27   6 C        2.925     0.065    26.552     8.450
    28   6 C        2.922    -0.046    29.150     8.854
    29   6 C        2.920    -0.029    28.716     8.788
    30   6 C        2.919    -0.037    28.919     8.819
    31   6 C        2.920    -0.029    28.720     8.788
    32   6 C        2.922    -0.046    29.149     8.854
    33   6 C        2.925     0.065    26.547     8.449
    34   6 C        2.922    -0.047    29.163     8.856
    35   6 C        2.920    -0.029    28.722     8.788
    36   6 C        2.919    -0.037    28.923     8.819
    37   6 C        2.920    -0.029    28.717     8.788
    38   6 C        2.922    -0.047    29.159     8.855
    39   6 C        2.918    -0.045    29.121     8.849
    40   6 C        2.917    -0.035    28.868     8.811
    41   6 C        2.984     0.006    27.871     8.660
    42   6 C        2.928    -0.038    28.943     8.823
    43   6 C        2.921    -0.035    28.877     8.812
    44   6 C        2.919    -0.014    28.367     8.734
    45   6 C        2.977    -0.030    28.745     8.795
    46   6 C        2.994     0.009    27.811     8.651
    47   6 C        2.775     0.273    22.391     7.750
    48   8 O        0.859    -0.409    21.869     6.270
    49   6 C        2.920    -0.029    28.728     8.789
    50   6 C        2.930    -0.032    28.790     8.800
    51   1 H        0.925     0.037     2.487     2.466
    52   1 H        0.925     0.037     2.491     2.468
    53   1 H        0.925     0.038     2.481     2.463
    54   1 H        0.925     0.038     2.476     2.461
    55   1 H        0.925     0.036     2.501     2.473
    56   1 H        0.925     0.038     2.474     2.460
    57   1 H        0.925     0.038     2.474     2.460
    58   1 H        0.925     0.036     2.501     2.473
    59   1 H        0.925     0.037     2.485     2.465
    60   1 H        0.926     0.046     2.376     2.411
    61   1 H        0.926     0.042     2.424     2.435
    62   1 H        0.926     0.067     2.120     2.277
    63   1 H        0.926     0.044     2.402     2.423
    64   1 H        0.926     0.045     2.381     2.413
    65   1 H        0.926     0.045     2.384     2.415
    66   1 H        0.925     0.040     2.455     2.450
    67   1 H        0.926     0.033     2.547     2.496
    68   1 H        0.926     0.032     2.554     2.499
    69   1 H        0.926     0.033     2.545     2.495
    70   1 H        0.926     0.033     2.547     2.496
    71   1 H        0.926     0.033     2.538     2.491
    72   1 H        0.926     0.032     2.554     2.499
    73   1 H        0.926     0.033     2.541     2.493
    74   1 H        0.926     0.033     2.549     2.496
    75   1 H        0.926     0.032     2.552     2.498
    76   1 H        0.926     0.033     2.542     2.493
    77   1 H        0.926     0.032     2.556     2.500
    78   1 H        0.926     0.033     2.541     2.493
    79   1 H        0.926     0.032     2.552     2.498
    80   1 H        0.926     0.035     2.511     2.478
    81   1 H        0.926     0.035     2.511     2.478
    82   1 H        0.925     0.033     2.542     2.493
    83   1 H        0.926     0.045     2.377     2.411
    84   1 H        0.926     0.066     2.132     2.283
    85   1 H        0.926     0.041     2.439     2.442
    86   1 H        0.926     0.039     2.466     2.456

molecular dipole:
                 x           y           z       tot (Debye)
 q only:       -2.470       0.143       0.001
   full:       -2.738       0.208      -0.005       6.979

 projected vibrational frequencies (cm⁻¹)
eigval :       -0.00    -0.00    -0.00     0.00     0.00     0.00
eigval :        7.05     7.30    11.17    20.54    23.39    28.23
eigval :       32.27    39.11    43.14    52.14    56.48    62.33
eigval :       64.96    74.16    85.68    93.49    98.83   108.33
eigval :      117.76   133.17   151.42   173.43   175.75   177.50
eigval :      178.14   189.13   208.22   216.29   230.65   234.00
eigval :      236.42   252.42   264.99   281.52   289.59   310.88
eigval :      313.65   316.21   318.12   350.81   362.25   363.66
eigval :      365.33   369.80   378.14   381.64   383.80   388.64
eigval :      392.51   399.37   412.52   419.59   432.21   439.14
eigval :      448.05   453.80   465.17   469.60   488.12   490.98
eigval :      492.80   506.41   512.04   531.94   542.45   550.48
eigval :      559.62   572.04   582.85   586.59   591.94   596.55
eigval :      605.08   611.48   627.71   640.74   653.45   661.61
eigval :      666.29   684.33   687.35   697.22   707.12   709.22
eigval :      716.60   746.94   756.84   757.76   765.28   775.15
eigval :      777.62   801.02   806.50   808.99   818.56   831.70
eigval :      838.47   847.21   849.96   864.74   866.02   869.49
eigval :      874.46   875.33   877.56   888.99   893.67   895.43
eigval :      906.38   910.24   910.52   914.74   921.53   921.89
eigval :      922.85   924.06   927.49   928.16   929.49   929.75
eigval :      929.96   961.02   963.06   963.46   966.25   976.42
eigval :      981.99  1004.23  1006.60  1016.81  1032.58  1035.68
eigval :     1036.14  1082.86  1083.98  1090.08  1121.84  1123.67
eigval :     1132.77  1141.13  1144.11  1147.96  1149.63  1173.34
eigval :     1176.59  1179.00  1180.58  1180.68  1190.47  1194.97
eigval :     1195.51  1199.17  1207.41  1214.50  1227.53  1228.54
eigval :     1234.14  1237.59  1245.22  1252.57  1256.77  1268.25
eigval :     1277.74  1279.27  1280.01  1282.43  1291.27  1301.29
eigval :     1309.66  1312.37  1316.40  1320.82  1324.55  1326.49
eigval :     1335.56  1340.88  1363.62  1389.17  1395.55  1399.27
eigval :     1399.44  1405.81  1410.83  1410.92  1429.13  1429.89
eigval :     1436.47  1441.87  1446.72  1463.01  1471.79  1475.07
eigval :     1486.85  1491.10  1494.11  1494.39  1502.28  1505.66
eigval :     1507.77  1514.30  1519.41  1541.73  1550.27  1563.07
eigval :     1577.15  1581.56  1582.41  1588.44  1591.04  1594.35
eigval :     1596.70  1603.05  1603.84  1627.79  1687.20  1699.02
eigval :     3022.52  3024.17  3030.10  3031.21  3034.17  3038.36
eigval :     3039.68  3049.28  3052.33  3052.71  3064.27  3071.40
eigval :     3074.65  3077.08  3077.29  3077.85  3078.57  3080.97
eigval :     3081.81  3084.26  3086.14  3086.37  3087.18  3089.54
eigval :     3090.40  3090.47  3090.68  3090.89  3094.67  3096.09
eigval :     3098.52  3098.95  3099.33  3099.94  3103.40  3117.38

   temp. (K)  partition function   enthalpy   heat capacity  entropy
                                   cal/mol     cal/K/mol   cal/K/mol   J/K/mol
 298.15  VIB  0.324E+21            25063.040    154.918    157.667
         ROT  0.153E+09              888.752      2.981     40.427
         INT  0.494E+29            25951.792    157.898    198.093
         TR   0.160E+29             1481.254      4.968     45.271
         TOT                       27433.0462   162.8666   243.3646  1018.2376

       T/K    H(0)-H(T)+PV         H(T)/Eh          T*S/Eh         G(T)/Eh
   ------------------------------------------------------------------------
    298.15    0.437173E-01    0.718352E+00    0.115630E+00    0.602721E+00
   ------------------------------------------------------------------------

         :::::::::::::::::::::::::::::::::::::::::::::::::::::
         ::                  THERMODYNAMIC                  ::
         :::::::::::::::::::::::::::::::::::::::::::::::::::::
         :: total free energy        -130.289851848884 Eh   ::
         ::.................................................::
         :: total energy             -130.892573016168 Eh   ::
         :: zero point energy           0.674634213139 Eh   ::
         :: G(RRHO) w/o ZPVE           -0.071913045855 Eh   ::
         :: G(RRHO) contrib.            0.602721167284 Eh   ::
         :::::::::::::::::::::::::::::::::::::::::::::::::::::

           -------------------------------------------------
          | TOTAL ENERGY             -130.892573016168 Eh   |
          | TOTAL ENTHALPY           -130.174221461126 Eh   |
          | TOTAL FREE ENERGY        -130.289851848884 Eh   |
          | GRADIENT NORM               0.000055922617 Eh/α |
          | HOMO-LUMO GAP               1.261138629151 eV   |
           -------------------------------------------------

 * finished run on 2025/08/25 at 23:56:39.403
