   * xtb version 6.7.1 (edcfbbe) compiled by 'albert@albert-system' on 2024-07-22

   ID    Z sym.   atoms
    1    7 N      1, 9, 26, 33
    2    6 C      2-8, 10-15, 17-25, 27-32, 34-39, 41-48
    3    8 O      16, 40
    4    1 H      49-74

          program call               : xtb data2507/toluene/PxCN/PxCN_toluene_S0_crest.xyz --gfn 2 --gbsa toluene --ohess vtight --parallel 40 --molden --ceasefiles --namespace data2507/toluene/PxCN/PxCN_toluene_S0_finalOpt
      * Solvation model:               GBSA
        Solvent                        toluene
        Solvent mass                       9.2140E+01 g/mol
          :  Hamiltonian                  GFN2-xTB          :
 * total energy  :  -123.0809378 Eh     change       -0.1803699E-08 Eh
 * total energy  :  -123.0810071 Eh     change       -0.6928130E-04 Eh
 * total energy  :  -123.0810538 Eh     change       -0.4674611E-04 Eh
 * total energy  :  -123.0810719 Eh     change       -0.1805009E-04 Eh
 * total energy  :  -123.0810838 Eh     change       -0.1192867E-04 Eh
 * total energy  :  -123.0810972 Eh     change       -0.1343543E-04 Eh
 * total energy  :  -123.0811033 Eh     change       -0.6049398E-05 Eh
 * total energy  :  -123.0811105 Eh     change       -0.7187420E-05 Eh
 * total energy  :  -123.0811143 Eh     change       -0.3873099E-05 Eh
 * total energy  :  -123.0811173 Eh     change       -0.3011428E-05 Eh
 * total energy  :  -123.0811334 Eh     change       -0.5297237E-06 Eh
 * total energy  :  -123.0811340 Eh     change       -0.5676317E-06 Eh
 * total energy  :  -123.0811344 Eh     change       -0.4546376E-06 Eh
 * total energy  :  -123.0811347 Eh     change       -0.3201132E-06 Eh
 * total energy  :  -123.0811350 Eh     change       -0.2694338E-06 Eh
 * total energy  :  -123.0811353 Eh     change       -0.2984508E-06 Eh
 * total energy  :  -123.0811356 Eh     change       -0.3140073E-06 Eh
 * total energy  :  -123.0811358 Eh     change       -0.2230930E-06 Eh
 * total energy  :  -123.0811358 Eh     change       -0.7158292E-09 Eh
   *** GEOMETRY OPTIMIZATION CONVERGED AFTER 44 ITERATIONS ***

 final structure:
================
74
 xtb: 6.7.1 (edcfbbe)
N            0.00042080283300        0.95483566694139       -0.18420046789174
C            0.00032084769792       -0.19307682126875       -0.19324728587405
C           -0.00013106573214       -1.60560537910820       -0.27904532287457
C           -1.21557849860240       -2.30368163509602       -0.38248296757964
C           -2.50979469804353       -1.62597328844866       -0.25958726269748
C           -3.52971281267077       -1.88534763708092       -1.17415519239180
C           -4.74576139132165       -1.24125144263308       -1.07034882548127
C           -4.97295436676435       -0.33618635862067       -0.03641719466200
N           -6.21361955419275        0.32810626656785        0.06708699597074
C           -6.28659393411978        1.71905037923148       -0.05482791465611
C           -5.17042923293566        2.50247809527318       -0.32295814111701
C           -5.27983470054302        3.88022248596024       -0.43928257606141
C           -6.50639338620103        4.49811691865943       -0.30190516195669
C           -7.63573064180358        3.72762691381030       -0.06465587223274
C           -7.53180850585672        2.35363553496986        0.04933496999933
O           -8.70161329612479        1.65739608534893        0.25118140178185
C           -8.61035139820521        0.29036008525138        0.37614564342499
C           -9.78849736580020       -0.39649350101225        0.60357296151276
C           -9.77535997323519       -1.77375182310108        0.77243958527666
C           -8.57380539715618       -2.45159498950136        0.72973854883722
C           -7.38985610709690       -1.76680517781428        0.49996907238330
C           -7.38873798372336       -0.39185769306162        0.29775329095974
C           -3.96563509174804       -0.09139807615485        0.89329900169704
C           -2.74541060391779       -0.72563063282140        0.77806261519094
C           -1.13681954304245       -3.67748563313266       -0.61307369705066
N           -0.00113456372160       -4.33942867107152       -0.72758774028778
C            1.13498261167104       -3.67905535727895       -0.60846585553241
C            1.21478219433539       -2.30525854130416       -0.37805113052653
C            2.50939826646211       -1.62898612556314       -0.25172859371700
C            3.53219886967575       -1.89193859141187       -1.16210130197558
C            4.74820603153158       -1.24817529926647       -1.05638522844063
C            4.97234428869433       -0.33947096433839       -0.02498009293508
N            6.21249828589690        0.32587972119072        0.07882103235208
C            6.28669644870720        1.71530935822189       -0.05869106965840
C            5.17029371096403        2.49746907029858       -0.32941040008027
C            5.28133676627040        3.87346895735143       -0.46320367128685
C            6.50980158534494        4.49077672578432       -0.34096602888861
C            7.63899575754775        3.72130522757666       -0.09973945079428
C            7.53334856172295        2.34909855413453        0.03243778096285
O            8.70299043960337        1.65359441164804        0.23802422850037
C            8.61059998433726        0.28798790648362        0.37704663680976
C            9.78873449258711       -0.39832103834033        0.60613014804158
C            9.77435790721571       -1.77390761160692        0.78818436684991
C            8.57175472371497       -2.45051618540118        0.75677062460658
C            7.38779284518069       -1.76629245503245        0.52542391159849
C            7.38779944543898       -0.39328766442657        0.31043650406564
C            3.96248660325268       -0.09164972351389        0.90109450553457
C            2.74240818045379       -0.72598763044255        0.78418840698420
H           -3.35418800218283       -2.57080395490029       -1.98976220629606
H           -5.52491817999217       -1.42931386857024       -1.79386294030647
H           -4.20640067810096        2.03472422284170       -0.44749271913908
H           -4.39373634743710        4.46173439941749       -0.64258463729235
H           -6.59679676132360        5.56956933808222       -0.38710201744752
H           -8.61290570136205        4.17508731611869        0.02893364988041
H          -10.70714735439789        0.16720363558113        0.64996528140978
H          -10.70033308574298       -2.30067752965876        0.94621502940119
H           -8.54410197072517       -3.52023366996764        0.87803574520713
H           -6.45637759728651       -2.30679925086291        0.48524169983881
H           -4.14503789973354        0.59689856370508        1.70552806890822
H           -1.97766476599701       -0.53958157715178        1.51474678010626
H           -2.03778663354598       -4.27009642298824       -0.69744984464842
H            2.03542300695534       -4.27300582186829       -0.68894027546032
H            3.35889939944958       -2.57966907336762       -1.97626133954868
H            5.52972491690296       -1.43909955591576       -1.77660410719529
H            4.20479805508402        2.02996408013180       -0.44296705829664
H            4.39505373244538        4.45403969850263       -0.66839549303361
H            6.60164702761685        5.56087478401086       -0.44044863715823
H            8.61741000856277        4.16817381286658       -0.01678596574705
H           10.70840854047272        0.16439421091457        0.64317787699169
H           10.69932359498180       -2.30044719842260        0.96317667227714
H            8.54126037465894       -3.51767811896678        0.91518834868078
H            6.45341279521723       -2.30494643342235        0.51936417669477
H            4.13959949480335        0.59909161290991        1.71173195067724
H            1.97257753859119       -0.53751864527052        1.51807917000648

          :  Hamiltonian                  GFN2-xTB          :
         :: gradient norm              0.000034619411 Eh/a0 ::
         :: HOMO-LUMO gap              1.196265115511 eV    ::
         :: SCC energy              -125.268037575617 Eh    ::
         :: -> dispersion             -0.103853804365 Eh    ::
         :: -> Gsolv                  -0.052335989396 Eh    ::
         :: repulsion energy           2.186901733793 Eh    ::

    * Orbital Energies and Occupations

         #    Occupation            Energy/Eh            Energy/eV
      -------------------------------------------------------------
         1        2.0000           -0.7306718             -19.8826
       ...           ...                  ...                  ...
       101        2.0000           -0.4228959             -11.5076
       102        2.0000           -0.4225551             -11.4983
       103        2.0000           -0.4190686             -11.4034
       104        2.0000           -0.4169357             -11.3454
       105        2.0000           -0.4169263             -11.3451
       106        2.0000           -0.4139872             -11.2652
       107        2.0000           -0.4139451             -11.2640
       108        2.0000           -0.4109094             -11.1814
       109        2.0000           -0.3919896             -10.6666
       110        2.0000           -0.3916795             -10.6581
       111        2.0000           -0.3872944             -10.5388
       112        2.0000           -0.3452618              -9.3951
       113        2.0000           -0.3451585              -9.3922 (HOMO)
       114                         -0.3011965              -8.1960 (LUMO)
       115                         -0.2773166              -7.5462
       116                         -0.2459398              -6.6924
       117                         -0.2450868              -6.6692
       118                         -0.2438684              -6.6360
       119                         -0.2395846              -6.5194
       120                         -0.2395483              -6.5184
       121                         -0.2310739              -6.2878
       122                         -0.2310366              -6.2868
       123                         -0.2270984              -6.1797
       124                         -0.2228800              -6.0649
       ...                                ...                  ...
       218                          1.1418922              31.0725
      -------------------------------------------------------------
                  HL-Gap            0.0439619 Eh            1.1963 eV

     #   Z          covCN         q      C6AA      α(0)
     1   7 N        0.911    -0.262    26.802     7.488
     2   6 C        1.909     0.123    28.080     8.558
     3   6 C        2.987     0.019    27.586     8.616
     4   6 C        2.976     0.010    27.797     8.648
     5   6 C        2.976     0.005    27.911     8.666
     6   6 C        2.923    -0.032    28.786     8.799
     7   6 C        2.920    -0.038    28.957     8.824
     8   6 C        2.921     0.068    26.472     8.437
     9   7 N        2.751    -0.073    22.652     7.069
    10   6 C        2.921     0.042    27.053     8.529
    11   6 C        2.923    -0.060    29.496     8.906
    12   6 C        2.919    -0.039    28.961     8.825
    13   6 C        2.919    -0.041    29.015     8.833
    14   6 C        2.919    -0.058    29.441     8.898
    15   6 C        2.882     0.122    25.316     8.249
    16   8 O        1.708    -0.273    18.519     5.810
    17   6 C        2.882     0.122    25.311     8.248
    18   6 C        2.919    -0.058    29.441     8.898
    19   6 C        2.919    -0.041    29.022     8.834
    20   6 C        2.919    -0.039    28.974     8.827
    21   6 C        2.924    -0.061    29.518     8.910
    22   6 C        2.921     0.042    27.052     8.529
    23   6 C        2.920    -0.038    28.943     8.822
    24   6 C        2.923    -0.028    28.694     8.784
    25   6 C        2.913     0.054    26.797     8.489
    26   7 N        1.834    -0.218    26.593     7.642
    27   6 C        2.913     0.054    26.797     8.489
    28   6 C        2.976     0.010    27.797     8.648
    29   6 C        2.976     0.005    27.910     8.666
    30   6 C        2.923    -0.032    28.786     8.798
    31   6 C        2.920    -0.038    28.956     8.824
    32   6 C        2.921     0.068    26.472     8.437
    33   7 N        2.751    -0.073    22.653     7.069
    34   6 C        2.921     0.042    27.053     8.529
    35   6 C        2.923    -0.060    29.497     8.907
    36   6 C        2.919    -0.039    28.960     8.825
    37   6 C        2.919    -0.041    29.015     8.833
    38   6 C        2.919    -0.058    29.441     8.898
    39   6 C        2.882     0.122    25.316     8.249
    40   8 O        1.708    -0.273    18.520     5.810
    41   6 C        2.882     0.122    25.311     8.248
    42   6 C        2.919    -0.058    29.441     8.898
    43   6 C        2.919    -0.041    29.022     8.834
    44   6 C        2.919    -0.039    28.974     8.827
    45   6 C        2.924    -0.061    29.517     8.910
    46   6 C        2.921     0.042    27.052     8.529
    47   6 C        2.920    -0.038    28.942     8.822
    48   6 C        2.923    -0.028    28.694     8.784
    49   1 H        0.926     0.049     2.336     2.390
    50   1 H        0.926     0.051     2.304     2.374
    51   1 H        0.926     0.039     2.464     2.455
    52   1 H        0.926     0.042     2.424     2.435
    53   1 H        0.926     0.042     2.418     2.432
    54   1 H        0.926     0.048     2.347     2.396
    55   1 H        0.926     0.047     2.352     2.398
    56   1 H        0.926     0.042     2.423     2.434
    57   1 H        0.926     0.042     2.427     2.436
    58   1 H        0.926     0.039     2.458     2.452
    59   1 H        0.926     0.050     2.325     2.384
    60   1 H        0.926     0.040     2.454     2.450
    61   1 H        0.925     0.052     2.299     2.371
    62   1 H        0.925     0.052     2.299     2.371
    63   1 H        0.926     0.049     2.336     2.390
    64   1 H        0.926     0.051     2.306     2.375
    65   1 H        0.926     0.039     2.464     2.455
    66   1 H        0.926     0.042     2.425     2.435
    67   1 H        0.926     0.042     2.418     2.432
    68   1 H        0.926     0.048     2.347     2.396
    69   1 H        0.926     0.047     2.352     2.398
    70   1 H        0.926     0.042     2.423     2.434
    71   1 H        0.926     0.042     2.427     2.436
    72   1 H        0.926     0.039     2.459     2.452
    73   1 H        0.926     0.050     2.323     2.383
    74   1 H        0.926     0.040     2.453     2.449

molecular dipole:
                 x           y           z       tot (Debye)
 q only:       -0.003      -1.252      -0.093
   full:       -0.003      -1.316      -0.041       3.346

 projected vibrational frequencies (cm⁻¹)
eigval :       -0.00    -0.00     0.00     0.00     0.00     0.00
eigval :        5.92     8.15    10.38    20.87    23.82    29.46
eigval :       37.97    46.45    46.93    56.24    65.15    83.17
eigval :       83.76    98.41   110.18   114.54   122.40   124.61
eigval :      154.29   167.83   185.09   189.98   197.65   223.14
eigval :      242.57   248.34   252.83   264.21   266.23   270.75
eigval :      287.34   300.02   353.42   360.09   374.85   376.16
eigval :      378.14   384.52   385.21   399.06   402.40   412.99
eigval :      421.37   429.60   430.02   430.70   434.58   444.74
eigval :      450.79   491.59   492.04   507.76   509.24   518.87
eigval :      520.79   522.90   542.17   557.71   570.67   578.59
eigval :      582.65   584.56   588.84   597.74   603.94   608.29
eigval :      626.16   636.38   655.13   658.22   661.16   661.39
eigval :      662.14   686.78   690.48   700.76   711.76   726.42
eigval :      777.35   777.72   778.78   779.26   789.84   792.89
eigval :      801.60   818.75   820.16   834.93   852.70   852.72
eigval :      855.85   863.69   864.11   866.45   866.79   875.47
eigval :      877.21   896.83   897.55   898.25   898.59   902.28
eigval :      911.41   912.77   913.01   914.93   915.00   916.10
eigval :      916.15   924.78   925.27   925.75   933.01   933.31
eigval :      997.58  1016.15  1061.05  1089.41  1089.47  1091.12
eigval :     1091.30  1105.36  1105.41  1117.58  1117.78  1132.68
eigval :     1134.20  1158.62  1159.39  1167.55  1168.13  1172.67
eigval :     1172.91  1181.65  1181.98  1189.96  1191.45  1197.41
eigval :     1197.46  1206.44  1220.24  1221.06  1241.53  1241.67
eigval :     1248.48  1256.64  1259.68  1259.79  1265.42  1267.27
eigval :     1299.24  1303.98  1304.01  1308.15  1308.78  1310.10
eigval :     1332.77  1333.08  1333.22  1352.21  1354.54  1395.39
eigval :     1395.76  1407.32  1420.17  1421.97  1425.46  1440.80
eigval :     1440.86  1480.29  1480.47  1484.60  1485.75  1503.26
eigval :     1503.81  1521.33  1535.60  1555.20  1556.33  1566.08
eigval :     1566.18  1578.81  1579.04  1584.56  1584.95  1589.76
eigval :     1590.13  1601.88  1602.08  2354.15  3066.15  3066.31
eigval :     3079.55  3080.51  3084.84  3084.92  3086.51  3086.56
eigval :     3087.49  3087.50  3094.58  3094.60  3095.39  3095.41
eigval :     3095.57  3095.62  3097.75  3098.19  3102.57  3102.64
eigval :     3104.36  3104.53  3107.97  3107.99  3109.06  3109.16

   temp. (K)  partition function   enthalpy   heat capacity  entropy
                                   cal/mol     cal/K/mol   cal/K/mol   J/K/mol
 298.15  VIB  0.115E+19            21982.387    138.176    137.846
         ROT  0.112E+09              888.752      2.981     39.810
         INT  0.129E+27            22871.140    141.157    177.656
         TR   0.149E+29             1481.254      4.968     45.130
         TOT                       24352.3934   146.1254   222.7858   932.1360

       T/K    H(0)-H(T)+PV         H(T)/Eh          T*S/Eh         G(T)/Eh
   ------------------------------------------------------------------------
    298.15    0.388080E-01    0.589072E+00    0.105853E+00    0.483219E+00
   ------------------------------------------------------------------------

         :::::::::::::::::::::::::::::::::::::::::::::::::::::
         ::                  THERMODYNAMIC                  ::
         :::::::::::::::::::::::::::::::::::::::::::::::::::::
         :: total free energy        -122.597916581127 Eh   ::
         ::.................................................::
         :: total energy             -123.081135840891 Eh   ::
         :: zero point energy           0.550263993075 Eh   ::
         :: G(RRHO) w/o ZPVE           -0.067044733310 Eh   ::
         :: G(RRHO) contrib.            0.483219259764 Eh   ::
         :::::::::::::::::::::::::::::::::::::::::::::::::::::

           -------------------------------------------------
          | TOTAL ENERGY             -123.081135840891 Eh   |
          | TOTAL ENTHALPY           -122.492063838631 Eh   |
          | TOTAL FREE ENERGY        -122.597916581127 Eh   |
          | GRADIENT NORM               0.000034569444 Eh/α |
          | HOMO-LUMO GAP               1.196265545218 eV   |
           -------------------------------------------------

 * finished run on 2025/08/24 at 00:14:19.872
