   * xtb version 6.7.1 (edcfbbe) compiled by 'albert@albert-system' on 2024-07-22

   ID    Z sym.   atoms
    1    7 N      1, 9, 26, 33
    2    6 C      2-8, 10-15, 17-25, 27-32, 34-39, 41-48
    3    8 O      16, 40
    4    1 H      49-74

          program call               : xtb data2507/toluene/PxCN/PxCN_toluene_S0_finalOpt.xtbopt.xyz --gfn 2 --uhf 2 --gbsa toluene --ohess vtight --parallel 40 --molden --ceasefiles --namespace data2507/toluene/PxCN/PxCN_toluene_T1_preOpt
      * Solvation model:               GBSA
        Solvent                        toluene
        Solvent mass                       9.2140E+01 g/mol
          :  Hamiltonian                  GFN2-xTB          :
 * total energy  :  -123.0053762 Eh     change       -0.2409863E-08 Eh
 * total energy  :  -123.0095408 Eh     change       -0.4164550E-02 Eh
 * total energy  :  -123.0104599 Eh     change       -0.9190823E-03 Eh
 * total energy  :  -123.0105592 Eh     change       -0.9930335E-04 Eh
 * total energy  :  -123.0106684 Eh     change       -0.1091925E-03 Eh
 * total energy  :  -123.0107302 Eh     change       -0.6187778E-04 Eh
 * total energy  :  -123.0108113 Eh     change       -0.8105146E-04 Eh
 * total energy  :  -123.0108720 Eh     change       -0.6072295E-04 Eh
 * total energy  :  -123.0109002 Eh     change       -0.2822709E-04 Eh
 * total energy  :  -123.0109323 Eh     change       -0.3206263E-04 Eh
 * total energy  :  -123.0114289 Eh     change       -0.3776187E-06 Eh
 * total energy  :  -123.0114293 Eh     change       -0.3836561E-06 Eh
 * total energy  :  -123.0114297 Eh     change       -0.4016870E-06 Eh
 * total energy  :  -123.0114301 Eh     change       -0.4223221E-06 Eh
 * total energy  :  -123.0114305 Eh     change       -0.4308062E-06 Eh
 * total energy  :  -123.0114310 Eh     change       -0.4329644E-06 Eh
 * total energy  :  -123.0114314 Eh     change       -0.3823624E-06 Eh
 * total energy  :  -123.0114318 Eh     change       -0.4060436E-06 Eh
 * total energy  :  -123.0114318 Eh     change       -0.5759546E-08 Eh
   *** GEOMETRY OPTIMIZATION CONVERGED AFTER 68 ITERATIONS ***

 final structure:
================
74
 xtb: 6.7.1 (edcfbbe)
N            0.00083972105086        1.03005735225659       -0.48410202220174
C            0.00022519985472       -0.13365598018539       -0.52816560952306
C           -0.00031395124733       -1.50959764218676       -0.60556941344267
C           -1.23267246521899       -2.24371601344541       -0.73432811333103
C           -2.51880536101301       -1.61535877246354       -0.48969943574777
C           -3.63351487540623       -1.91522142339973       -1.28736548436156
C           -4.84378882514305       -1.29393593665719       -1.08008662561429
C           -4.98065740440785       -0.35344265191746       -0.05925992499453
N           -6.21520386565989        0.31438486597823        0.13669417484610
C           -6.31236641360715        1.68267220861196       -0.07824607426738
C           -5.23344006024661        2.44653272885884       -0.52217468211958
C           -5.37041787978890        3.80795497864118       -0.72171766717780
C           -6.58467883629860        4.43547417017698       -0.49209159862316
C           -7.67523613721355        3.69017765158224       -0.07704171342874
C           -7.54748600733696        2.32510464014965        0.12359463347754
O           -8.66831234004184        1.64201126918854        0.50560588425016
C           -8.55885494535540        0.29454440275427        0.70584717301823
C           -9.70204249419503       -0.38387160141338        1.09680832046899
C           -9.65142119637607       -1.74579883092750        1.34145506703297
C           -8.44982844601857       -2.42396033644284        1.21042595171711
C           -7.30483268958048       -1.75516653560078        0.81841729103777
C           -7.34086001940075       -0.38936447756682        0.53944703673006
C           -3.89036644078747       -0.06326968875448        0.76087114264384
C           -2.68219317817939       -0.68534394778264        0.54698053482303
C           -1.14584650623445       -3.57655532038195       -1.07823804428711
N           -0.00126929746281       -4.23800197932306       -1.24859120782025
C            1.14379450151934       -3.57732634467063       -1.07838575716136
C            1.23151845331805       -2.24456386142084       -0.73445552691904
C            2.51809105993913       -1.61704269826571       -0.48990542650975
C            3.63242506302210       -1.91721467629661       -1.28795962884468
C            4.84307629182900       -1.29660319752563       -1.08079930794606
C            4.98068542551408       -0.35655980918309       -0.05966924898966
N            6.21551713542838        0.31072348234494        0.13623643189167
C            6.31288600962231        1.67915810714907       -0.07769423898616
C            5.23417267745578        2.44341321979980       -0.52145349568142
C            5.37132375507831        3.80497135091434       -0.71994675234999
C            6.58554486207169        4.43223387287917       -0.48941025311056
C            7.67591163552205        3.68654830156831       -0.07455199066367
C            7.54798362991283        2.32133784141880        0.12501388193593
O            8.66862747772809        1.63786551851635        0.50687007473711
C            8.55904831492749        0.29021594645433        0.70580664465409
C            9.70212438648841       -0.38859248101346        1.09640349383393
C            9.65139889660268       -1.75074321855859        1.33978310081422
C            8.44981802431793       -2.42873757177713        1.20782740762542
C            7.30492217219399       -1.75953590039542        0.81620903954089
C            7.34106001407777       -0.39348086080159        0.53852311246734
C            3.89076697147654       -0.06614799287659        0.76087636837289
C            2.68221990389196       -0.68751588164242        0.54708259626063
H           -3.52658772836932       -2.61781680945334       -2.10041717176596
H           -5.68648727012644       -1.51223290661412       -1.72003533264089
H           -4.28628648851459        1.96763535942963       -0.71307373893370
H           -4.51913843604291        4.37709615984990       -1.06105283883478
H           -6.68803746970456        5.49787898673056       -0.64454925470798
H           -8.63828295643851        4.14413827300115        0.09407443171717
H          -10.61676970315893        0.17634739533601        1.20676137828706
H          -10.54463281086352       -2.26922727668013        1.64275977615015
H           -8.39815991936317       -3.48150691860806        1.41716512516584
H           -6.37071368228130       -2.28626321682419        0.73091413904008
H           -4.00177010149414        0.64730079609059        1.56691124267624
H           -1.84858713826502       -0.46241514654889        1.19600358336335
H           -2.03868396743187       -4.18190609220752       -1.17270578855334
H            2.03622442925713       -4.18326436270292       -1.17295010989843
H            3.52490707876195       -2.61948851883868       -2.10121146701431
H            5.68546437257804       -1.51505431105458       -1.72110254800882
H            4.28704530793721        1.96473944989410       -0.71304762824404
H            4.52020702729590        4.37441312918044       -1.05918339221920
H            6.68902638058828        5.49474457347732       -0.64104184160529
H            8.63893149166977        4.14031366634832        0.09723638756232
H           10.61684049782292        0.17149819882322        1.20710621748639
H           10.54452185797650       -2.27447959352344        1.64081390020411
H            8.39806473015837       -3.48647575349517        1.41356122236356
H            6.37081065256892       -2.29053263835001        0.72803870384775
H            4.00275810309062        0.64408171497911        1.56713443107506
H            1.84889102935669       -0.46439284796858        1.19639246566184

          :  Hamiltonian                  GFN2-xTB          :
         :: gradient norm              0.000058288029 Eh/a0 ::
         :: HOMO-LUMO gap              0.351571450639 eV    ::
         :: SCC energy              -125.180544017726 Eh    ::
         :: -> dispersion             -0.103960670954 Eh    ::
         :: -> Gsolv                  -0.061959921028 Eh    ::
         :: repulsion energy           2.169112248633 Eh    ::

    * Orbital Energies and Occupations

         #    Occupation            Energy/Eh            Energy/eV
      -------------------------------------------------------------
         1        2.0000           -0.7512527             -20.4426
       ...           ...                  ...                  ...
       102        2.0000           -0.4191983             -11.4070
       103        2.0000           -0.4136931             -11.2572
       104        2.0000           -0.4135186             -11.2524
       105        2.0000           -0.4088089             -11.1243
       106        2.0000           -0.4059682             -11.0470
       107        2.0000           -0.4057372             -11.0407
       108        2.0000           -0.3952750             -10.7560
       109        2.0000           -0.3857088             -10.4957
       110        2.0000           -0.3850458             -10.4776
       111        1.9822           -0.3608530              -9.8193
       112        1.6284           -0.3575398              -9.7292
       113        1.3893           -0.3566130              -9.7039
       114        0.9982           -0.2686858              -7.3113 (HOMO)
       115        0.0007           -0.2557659              -6.9597 (LUMO)
       116        0.0007           -0.2557484              -6.9593
       117        0.0004           -0.2552925              -6.9469
       118                         -0.2439662              -6.6387
       119                         -0.2439660              -6.6387
       120                         -0.2339286              -6.3655
       121                         -0.2305439              -6.2734
       122                         -0.2302316              -6.2649
       123                         -0.2294634              -6.2440
       124                         -0.2248064              -6.1173
       125                         -0.2119054              -5.7662
       ...                                ...                  ...
       218                          1.1675972              31.7719
      -------------------------------------------------------------
                  HL-Gap            0.0129199 Eh            0.3516 eV

     #   Z          covCN         q      C6AA      α(0)
     1   7 N        0.911    -0.398    30.317     7.963
     2   6 C        1.907     0.094    28.762     8.661
     3   6 C        2.974    -0.038    28.950     8.826
     4   6 C        2.970    -0.018    28.458     8.750
     5   6 C        2.974     0.003    27.947     8.672
     6   6 C        2.923    -0.039    28.976     8.827
     7   6 C        2.917    -0.041    29.013     8.833
     8   6 C        2.923     0.045    26.999     8.521
     9   7 N        2.751    -0.029    21.806     6.935
    10   6 C        2.924     0.046    26.967     8.516
    11   6 C        2.921    -0.050    29.238     8.867
    12   6 C        2.918    -0.030    28.747     8.792
    13   6 C        2.919    -0.030    28.757     8.794
    14   6 C        2.917    -0.052    29.302     8.877
    15   6 C        2.885     0.129    25.166     8.224
    16   8 O        1.709    -0.232    17.853     5.705
    17   6 C        2.885     0.130    25.161     8.224
    18   6 C        2.917    -0.052    29.299     8.876
    19   6 C        2.919    -0.031    28.768     8.796
    20   6 C        2.918    -0.031    28.766     8.795
    21   6 C        2.921    -0.051    29.273     8.872
    22   6 C        2.924     0.046    26.971     8.517
    23   6 C        2.917    -0.040    28.987     8.829
    24   6 C        2.923    -0.031    28.774     8.797
    25   6 C        2.898     0.047    26.947     8.511
    26   7 N        1.833    -0.278    28.048     7.848
    27   6 C        2.898     0.047    26.947     8.511
    28   6 C        2.970    -0.018    28.458     8.750
    29   6 C        2.974     0.003    27.947     8.671
    30   6 C        2.923    -0.039    28.975     8.827
    31   6 C        2.917    -0.041    29.013     8.833
    32   6 C        2.923     0.045    26.999     8.521
    33   7 N        2.751    -0.029    21.806     6.935
    34   6 C        2.924     0.046    26.967     8.516
    35   6 C        2.921    -0.050    29.238     8.867
    36   6 C        2.918    -0.030    28.747     8.792
    37   6 C        2.919    -0.030    28.757     8.794
    38   6 C        2.917    -0.052    29.302     8.877
    39   6 C        2.885     0.129    25.166     8.224
    40   8 O        1.709    -0.232    17.853     5.705
    41   6 C        2.885     0.130    25.161     8.224
    42   6 C        2.917    -0.052    29.299     8.876
    43   6 C        2.919    -0.031    28.768     8.796
    44   6 C        2.918    -0.031    28.766     8.795
    45   6 C        2.921    -0.051    29.273     8.872
    46   6 C        2.924     0.046    26.971     8.517
    47   6 C        2.917    -0.040    28.987     8.829
    48   6 C        2.923    -0.031    28.774     8.797
    49   1 H        0.926     0.035     2.514     2.479
    50   1 H        0.926     0.042     2.417     2.431
    51   1 H        0.926     0.051     2.305     2.374
    52   1 H        0.926     0.054     2.265     2.353
    53   1 H        0.926     0.058     2.222     2.331
    54   1 H        0.926     0.064     2.151     2.294
    55   1 H        0.926     0.063     2.159     2.298
    56   1 H        0.926     0.058     2.227     2.334
    57   1 H        0.926     0.055     2.259     2.351
    58   1 H        0.926     0.052     2.289     2.366
    59   1 H        0.926     0.040     2.454     2.450
    60   1 H        0.926     0.030     2.587     2.515
    61   1 H        0.925     0.019     2.747     2.592
    62   1 H        0.925     0.019     2.747     2.592
    63   1 H        0.926     0.035     2.513     2.479
    64   1 H        0.926     0.042     2.417     2.431
    65   1 H        0.926     0.051     2.305     2.374
    66   1 H        0.926     0.054     2.265     2.353
    67   1 H        0.926     0.058     2.222     2.331
    68   1 H        0.926     0.064     2.151     2.294
    69   1 H        0.926     0.063     2.159     2.298
    70   1 H        0.926     0.058     2.227     2.334
    71   1 H        0.926     0.055     2.259     2.351
    72   1 H        0.926     0.052     2.289     2.366
    73   1 H        0.926     0.040     2.454     2.450
    74   1 H        0.926     0.030     2.587     2.515

molecular dipole:
                 x           y           z       tot (Debye)
 q only:        0.001       1.360       0.939
   full:        0.000       1.149       0.959       3.805

 projected vibrational frequencies (cm⁻¹)
eigval :       -0.00    -0.00    -0.00    -0.00     0.00     0.00
eigval :       -1.07     7.09    11.89    19.33    24.47    32.31
eigval :       35.30    51.93    55.95    61.56    65.88    85.08
eigval :       90.52   104.97   108.83   113.28   120.58   126.28
eigval :      152.36   167.24   190.06   194.53   200.11   231.97
eigval :      238.66   242.64   248.56   267.00   268.17   276.11
eigval :      298.97   301.30   351.51   354.88   379.21   381.55
eigval :      382.69   383.48   385.40   396.13   402.76   413.90
eigval :      418.37   429.95   431.40   431.62   432.05   456.51
eigval :      460.65   472.63   484.23   496.74   496.90   500.70
eigval :      510.06   525.84   527.12   527.43   550.68   554.56
eigval :      570.65   581.14   586.00   595.80   597.34   606.09
eigval :      615.89   631.84   642.67   656.58   664.93   665.68
eigval :      669.32   669.34   681.37   681.66   687.14   708.46
eigval :      769.84   774.93   775.25   777.05   777.18   790.36
eigval :      799.46   809.53   812.00   826.83   832.54   855.27
eigval :      855.29   857.85   859.43   862.99   866.81   867.51
eigval :      869.28   869.85   901.06   901.11   902.47   902.54
eigval :      906.55   911.80   911.99   915.28   915.94   916.05
eigval :      916.94   917.21   920.49   920.54   926.51   926.96
eigval :      987.64  1008.13  1039.16  1082.43  1082.81  1082.89
eigval :     1083.99  1112.61  1112.71  1119.04  1119.83  1122.00
eigval :     1127.92  1135.74  1139.99  1146.18  1167.28  1168.34
eigval :     1170.70  1170.80  1180.42  1184.51  1196.09  1206.90
eigval :     1206.95  1207.41  1219.43  1221.17  1235.86  1235.88
eigval :     1247.01  1251.27  1253.46  1267.31  1269.17  1275.41
eigval :     1298.82  1303.50  1304.92  1305.29  1313.28  1313.80
eigval :     1321.36  1324.74  1332.48  1339.09  1346.06  1347.15
eigval :     1380.41  1395.22  1410.39  1412.65  1417.67  1420.00
eigval :     1437.94  1438.03  1439.04  1439.14  1463.40  1472.11
eigval :     1473.70  1476.75  1500.56  1503.19  1510.53  1552.89
eigval :     1552.92  1556.39  1559.81  1559.84  1562.73  1569.00
eigval :     1580.53  1581.49  1586.75  2236.24  3039.72  3040.28
eigval :     3077.33  3077.39  3079.45  3079.76  3089.58  3089.82
eigval :     3093.17  3094.64  3095.70  3095.72  3096.01  3096.03
eigval :     3103.50  3103.53  3103.84  3103.85  3111.21  3111.26
eigval :     3112.35  3112.36  3114.65  3114.81  3115.45  3115.68

   temp. (K)  partition function   enthalpy   heat capacity  entropy
                                   cal/mol     cal/K/mol   cal/K/mol   J/K/mol
 298.15  VIB  0.431E+19            22063.034    139.655    139.677
         ROT  0.113E+09              888.752      2.981     39.828
         INT  0.486E+27            22951.787    142.636    179.506
         TR   0.149E+29             1481.254      4.968     45.130
         TOT                       24433.0404   147.6045   224.6353   939.8742

       T/K    H(0)-H(T)+PV         H(T)/Eh          T*S/Eh         G(T)/Eh
   ------------------------------------------------------------------------
    298.15    0.389365E-01    0.586182E+00    0.106731E+00    0.479450E+00
   ------------------------------------------------------------------------

         :::::::::::::::::::::::::::::::::::::::::::::::::::::
         ::                  THERMODYNAMIC                  ::
         :::::::::::::::::::::::::::::::::::::::::::::::::::::
         :: total free energy        -122.531981389038 Eh   ::
         ::.................................................::
         :: total energy             -123.011431768708 Eh   ::
         :: zero point energy           0.547245348422 Eh   ::
         :: G(RRHO) w/o ZPVE           -0.067794968752 Eh   ::
         :: G(RRHO) contrib.            0.479450379670 Eh   ::
         :::::::::::::::::::::::::::::::::::::::::::::::::::::

           -------------------------------------------------
          | TOTAL ENERGY             -123.011431768708 Eh   |
          | TOTAL ENTHALPY           -122.425249891932 Eh   |
          | TOTAL FREE ENERGY        -122.531981389038 Eh   |
          | GRADIENT NORM               0.000058035465 Eh/α |
          | HOMO-LUMO GAP               0.351569568320 eV   |
           -------------------------------------------------

 * finished run on 2025/08/24 at 00:14:29.096
