   * xtb version 6.7.1 (edcfbbe) compiled by 'albert@albert-system' on 2024-07-22

   ID    Z sym.   atoms
    1    7 N      1, 9, 26, 33
    2    6 C      2-8, 10-15, 17-25, 27-32, 34-39, 41-48
    3    8 O      16, 40
    4    1 H      49-74

          program call               : xtb data2507/toluene/PxCN/PxCN_toluene_T1_crest.xyz --gfn 2 --uhf 2 --gbsa toluene --ohess vtight --parallel 40 --molden --ceasefiles --namespace data2507/toluene/PxCN/PxCN_toluene_T1_finalOpt
      * Solvation model:               GBSA
        Solvent                        toluene
        Solvent mass                       9.2140E+01 g/mol
          :  Hamiltonian                  GFN2-xTB          :
 * total energy  :  -123.0112441 Eh     change       -0.9545289E-09 Eh
 * total energy  :  -123.0113505 Eh     change       -0.1063834E-03 Eh
 * total energy  :  -123.0113942 Eh     change       -0.4378529E-04 Eh
 * total energy  :  -123.0114081 Eh     change       -0.1382564E-04 Eh
 * total energy  :  -123.0114181 Eh     change       -0.1005174E-04 Eh
 * total energy  :  -123.0114249 Eh     change       -0.6784390E-05 Eh
 * total energy  :  -123.0114291 Eh     change       -0.4236815E-05 Eh
 * total energy  :  -123.0114318 Eh     change       -0.2697070E-05 Eh
 * total energy  :  -123.0114347 Eh     change       -0.2814151E-05 Eh
 * total energy  :  -123.0114373 Eh     change       -0.2631780E-05 Eh
 * total energy  :  -123.0114595 Eh     change       -0.2207198E-06 Eh
 * total energy  :  -123.0114596 Eh     change       -0.1610636E-06 Eh
 * total energy  :  -123.0114599 Eh     change       -0.2430407E-06 Eh
 * total energy  :  -123.0114601 Eh     change       -0.2045379E-06 Eh
 * total energy  :  -123.0114603 Eh     change       -0.2114324E-06 Eh
 * total energy  :  -123.0114605 Eh     change       -0.2095533E-06 Eh
 * total energy  :  -123.0114607 Eh     change       -0.2035012E-06 Eh
 * total energy  :  -123.0114609 Eh     change       -0.2008791E-06 Eh
 * total energy  :  -123.0114610 Eh     change       -0.9286248E-07 Eh
   *** GEOMETRY OPTIMIZATION CONVERGED AFTER 61 ITERATIONS ***

 final structure:
================
74
 xtb: 6.7.1 (edcfbbe)
N           -0.00896784941345        1.04801733092788       -0.53704200078980
C           -0.00415748063951       -0.11608980278060       -0.56849929340452
C           -0.00102231212987       -1.49270717169640       -0.63258457386153
C           -1.23260576193714       -2.22916438441269       -0.75378540940539
C           -2.51908033525912       -1.60219218577129       -0.50649170089861
C           -3.63760738458867       -1.90921582086659       -1.29589896805980
C           -4.84963622843736       -1.29358876704936       -1.08144719705857
C           -4.98409287745768       -0.35156218063175       -0.06183026687171
N           -6.22156777082546        0.30751336357821        0.14505459300304
C           -6.32995144870165        1.67520638849074       -0.06778986956619
C           -5.26268620444887        2.44495728913696       -0.52938679728784
C           -5.41039284974484        3.80564172936723       -0.72626692372546
C           -6.62411086298291        4.42644987883262       -0.47628585932114
C           -7.70355895974729        3.67517021611621       -0.04335241353959
C           -7.56507889033433        2.31076366533656        0.15460231443678
O           -8.67542778714483        1.62145757825521        0.55544597582059
C           -8.55539755243216        0.27444037760608        0.75251051272666
C           -9.68825994329781       -0.41021696205953        1.16226168208701
C           -9.62650996303452       -1.77208995195484        1.40457779207928
C           -8.42401796552070       -2.44399321061418        1.25166481372290
C           -7.28923054316006       -1.76887431847093        0.84119099070675
C           -7.33682603264123       -0.40289782387966        0.56490173376237
C           -3.88895511716695       -0.05224056046772        0.74847246664818
C           -2.67928496175064       -0.66893614405929        0.52768414433992
C           -1.14521997900718       -3.56431675314948       -1.08806431527934
N            0.00016651812489       -4.22577702069114       -1.25428360813152
C            1.14436203452111       -3.56363155279952       -1.08671605428828
C            1.23181574433228       -2.22804827758811       -0.75264629649050
C            2.51781154335751       -1.60076764257403       -0.50603467666849
C            3.64018241517582       -1.91880418515881       -1.28605777323944
C            4.85239878776513       -1.30365488329581       -1.07195584843186
C            4.98306762267246       -0.34925858791160       -0.06345755605181
N            6.22156564378144        0.30955847154185        0.14156957097506
C            6.34022661564617        1.66979258716015       -0.10826119392201
C            5.28154882264112        2.43211768993719       -0.60070482230153
C            5.43978345090393        3.78544601180682       -0.83639086078590
C            6.65551251322642        4.40560813568685       -0.59466143861148
C            7.72610783338765        3.66110524804641       -0.12909115534233
C            7.57709665058890        2.30408976188891        0.10802644653132
O            8.67858209800005        1.62023133088405        0.54156337829849
C            8.54789847482175        0.28023023171336        0.77651148784789
C            9.67134470145075       -0.39930356424389        1.21927995264214
C            9.59812760213967       -1.75362468456013        1.49830072954505
C            8.39388805933259       -2.42298694734692        1.34787223830989
C            7.26834555438325       -1.75298132969714        0.90484538837039
C            7.32754871165381       -0.39511941765261        0.59330823324463
C            3.88431789211845       -0.03757075658701        0.73697858528023
C            2.67487614710258       -0.65535924110359        0.51788796302604
H           -3.53294965398922       -2.61365416914052       -2.10764837222641
H           -5.69593918741378       -1.51828292488208       -1.71434968640674
H           -4.31624497668214        1.97114245274624       -0.73591928171394
H           -4.56811387515961        4.37956770737753       -1.07969437403606
H           -6.73575771355242        5.48833959781962       -0.62650632354683
H           -8.66604309917899        4.12385742218622        0.14406353452029
H          -10.60373189026761        0.14531402146459        1.28863670759442
H          -10.51172208997970       -2.30041745454578        1.72058621616537
H           -8.36346678267093       -3.50153428079849        1.45600000365622
H           -6.35414953413712       -2.29524211449120        0.73720550315121
H           -3.99797691940875        0.66053557389267        1.55288808370373
H           -1.84210905696486       -0.43961949722937        1.16982596184736
H           -2.03748490177174       -4.17133353052441       -1.17676472060127
H            2.03684636911628       -4.17045494945796       -1.17485600755828
H            3.53877133883162       -2.63186984468386       -2.09063483396644
H            5.70215146566003       -1.53844569222701       -1.69655150498860
H            4.33380319777893        1.95786838146132       -0.80017822554435
H            4.60437488004054        4.35412542137492       -1.21378352592420
H            6.77541258308278        5.46177925014046       -0.77563899996062
H            8.68950627267501        4.10950391921080        0.05428716358551
H           10.58870446507595        0.15404464643414        1.34146603998166
H           10.47605013867513       -2.27797304026184        1.84022428504818
H            8.32480731877657       -3.47437900486211        1.57943218516557
H            6.33148688975051       -2.27645908571202        0.80197754982217
H            3.99023809180340        0.68540080169876        1.53270176159657
H            1.83518871958442       -0.41726274523568        1.15348924247093

          :  Hamiltonian                  GFN2-xTB          :
         :: gradient norm              0.000038904022 Eh/a0 ::
         :: HOMO-LUMO gap              0.353773855659 eV    ::
         :: SCC energy              -125.180608768138 Eh    ::
         :: -> dispersion             -0.103931858805 Eh    ::
         :: -> Gsolv                  -0.062006380703 Eh    ::
         :: repulsion energy           2.169147645432 Eh    ::

    * Orbital Energies and Occupations

         #    Occupation            Energy/Eh            Energy/eV
      -------------------------------------------------------------
         1        2.0000           -0.7513046             -20.4440
       ...           ...                  ...                  ...
       102        2.0000           -0.4192268             -11.4077
       103        2.0000           -0.4137600             -11.2590
       104        2.0000           -0.4134938             -11.2517
       105        2.0000           -0.4087997             -11.1240
       106        2.0000           -0.4060103             -11.0481
       107        2.0000           -0.4057907             -11.0421
       108        2.0000           -0.3952415             -10.7551
       109        2.0000           -0.3856628             -10.4944
       110        2.0000           -0.3849229             -10.4743
       111        1.9810           -0.3608442              -9.8191
       112        1.6270           -0.3575926              -9.7306
       113        1.3920           -0.3566821              -9.7058
       114        0.9983           -0.2687962              -7.3143 (HOMO)
       115        0.0007           -0.2557952              -6.9605 (LUMO)
       116        0.0006           -0.2557604              -6.9596
       117        0.0004           -0.2553833              -6.9493
       118                         -0.2440112              -6.6399
       119                         -0.2439798              -6.6390
       120                         -0.2337940              -6.3619
       121                         -0.2305798              -6.2744
       122                         -0.2301797              -6.2635
       123                         -0.2295033              -6.2451
       124                         -0.2248376              -6.1181
       125                         -0.2119066              -5.7663
       ...                                ...                  ...
       218                          1.1676024              31.7721
      -------------------------------------------------------------
                  HL-Gap            0.0130010 Eh            0.3538 eV

     #   Z          covCN         q      C6AA      α(0)
     1   7 N        0.911    -0.398    30.317     7.963
     2   6 C        1.907     0.094    28.761     8.661
     3   6 C        2.974    -0.038    28.951     8.826
     4   6 C        2.970    -0.018    28.453     8.750
     5   6 C        2.974     0.003    27.944     8.671
     6   6 C        2.923    -0.039    28.974     8.827
     7   6 C        2.917    -0.041    29.012     8.833
     8   6 C        2.923     0.045    26.996     8.521
     9   7 N        2.752    -0.029    21.805     6.935
    10   6 C        2.924     0.046    26.967     8.516
    11   6 C        2.921    -0.050    29.237     8.867
    12   6 C        2.918    -0.030    28.747     8.792
    13   6 C        2.919    -0.030    28.757     8.794
    14   6 C        2.917    -0.052    29.302     8.877
    15   6 C        2.885     0.129    25.166     8.224
    16   8 O        1.709    -0.232    17.852     5.705
    17   6 C        2.885     0.130    25.161     8.224
    18   6 C        2.917    -0.052    29.299     8.876
    19   6 C        2.919    -0.031    28.768     8.795
    20   6 C        2.918    -0.031    28.766     8.795
    21   6 C        2.921    -0.051    29.274     8.873
    22   6 C        2.924     0.046    26.971     8.517
    23   6 C        2.917    -0.040    28.986     8.829
    24   6 C        2.923    -0.031    28.771     8.796
    25   6 C        2.898     0.047    26.951     8.512
    26   7 N        1.833    -0.277    28.044     7.848
    27   6 C        2.898     0.047    26.942     8.511
    28   6 C        2.970    -0.018    28.463     8.751
    29   6 C        2.974     0.003    27.952     8.672
    30   6 C        2.923    -0.039    28.980     8.828
    31   6 C        2.917    -0.041    29.013     8.833
    32   6 C        2.923     0.044    27.006     8.522
    33   7 N        2.752    -0.029    21.809     6.936
    34   6 C        2.925     0.046    26.964     8.516
    35   6 C        2.921    -0.050    29.237     8.867
    36   6 C        2.918    -0.030    28.747     8.792
    37   6 C        2.919    -0.030    28.758     8.794
    38   6 C        2.917    -0.052    29.302     8.877
    39   6 C        2.885     0.129    25.166     8.224
    40   8 O        1.709    -0.232    17.852     5.705
    41   6 C        2.885     0.130    25.162     8.224
    42   6 C        2.917    -0.052    29.299     8.876
    43   6 C        2.919    -0.031    28.768     8.796
    44   6 C        2.918    -0.031    28.765     8.795
    45   6 C        2.921    -0.051    29.273     8.872
    46   6 C        2.924     0.046    26.968     8.516
    47   6 C        2.917    -0.040    28.987     8.829
    48   6 C        2.924    -0.031    28.779     8.798
    49   1 H        0.926     0.035     2.512     2.478
    50   1 H        0.926     0.043     2.414     2.430
    51   1 H        0.926     0.051     2.305     2.374
    52   1 H        0.926     0.054     2.265     2.353
    53   1 H        0.926     0.058     2.221     2.331
    54   1 H        0.926     0.064     2.151     2.294
    55   1 H        0.926     0.063     2.159     2.298
    56   1 H        0.926     0.058     2.227     2.334
    57   1 H        0.926     0.055     2.259     2.350
    58   1 H        0.926     0.053     2.289     2.366
    59   1 H        0.926     0.040     2.454     2.450
    60   1 H        0.926     0.030     2.586     2.515
    61   1 H        0.925     0.019     2.746     2.592
    62   1 H        0.925     0.019     2.745     2.591
    63   1 H        0.926     0.035     2.515     2.480
    64   1 H        0.926     0.042     2.420     2.433
    65   1 H        0.926     0.051     2.308     2.376
    66   1 H        0.926     0.054     2.265     2.354
    67   1 H        0.926     0.058     2.222     2.331
    68   1 H        0.926     0.064     2.151     2.294
    69   1 H        0.926     0.063     2.159     2.298
    70   1 H        0.926     0.058     2.227     2.334
    71   1 H        0.926     0.055     2.259     2.351
    72   1 H        0.926     0.052     2.291     2.367
    73   1 H        0.926     0.039     2.459     2.452
    74   1 H        0.926     0.030     2.588     2.516

molecular dipole:
                 x           y           z       tot (Debye)
 q only:       -0.020       1.334       0.989
   full:       -0.018       1.125       1.011       3.846

 projected vibrational frequencies (cm⁻¹)
eigval :       -0.00     0.00     0.00     0.00     0.00     0.00
eigval :       -3.39     6.79    12.36    21.64    27.12    33.50
eigval :       35.71    51.46    54.49    60.20    65.02    84.55
eigval :       90.60   105.66   108.77   113.01   120.04   126.48
eigval :      151.74   167.17   188.94   193.92   200.04   231.98
eigval :      238.52   242.04   247.85   266.75   267.90   275.66
eigval :      298.56   301.26   351.30   354.64   379.13   381.21
eigval :      382.70   383.09   384.81   396.30   402.70   413.93
eigval :      418.13   429.79   430.74   431.42   431.88   456.33
eigval :      460.51   472.48   484.06   497.60   498.13   499.92
eigval :      510.00   526.05   527.63   527.98   550.38   554.32
eigval :      570.48   581.03   585.84   595.50   597.07   606.03
eigval :      615.74   631.70   642.49   656.61   665.47   666.18
eigval :      670.29   670.30   681.55   681.88   687.02   708.46
eigval :      769.69   773.82   776.11   776.61   779.49   790.32
eigval :      799.47   807.49   810.84   826.77   832.87   855.17
eigval :      855.29   857.20   858.61   862.08   866.52   868.43
eigval :      869.27   869.87   899.14   902.34   902.43   903.80
eigval :      906.50   910.52   911.99   914.91   915.83   916.29
eigval :      916.61   918.16   919.26   920.95   923.51   926.21
eigval :      987.43  1007.62  1038.69  1082.33  1082.66  1082.96
eigval :     1084.00  1111.80  1112.25  1118.45  1119.50  1122.24
eigval :     1128.16  1135.11  1139.13  1145.88  1166.15  1167.60
eigval :     1169.61  1170.07  1179.74  1184.02  1195.31  1206.48
eigval :     1206.64  1207.08  1219.09  1220.72  1235.67  1235.74
eigval :     1246.94  1251.15  1253.39  1266.36  1268.49  1275.45
eigval :     1298.96  1303.65  1304.92  1305.24  1313.40  1313.91
eigval :     1321.28  1324.54  1332.31  1339.17  1346.16  1347.16
eigval :     1380.50  1394.96  1410.20  1412.51  1417.30  1419.66
eigval :     1437.65  1437.86  1439.06  1439.19  1463.51  1471.93
eigval :     1473.54  1476.81  1500.59  1503.21  1510.51  1552.99
eigval :     1553.06  1556.49  1559.74  1559.88  1563.03  1569.21
eigval :     1580.52  1581.56  1586.62  2236.35  3039.90  3040.54
eigval :     3076.44  3076.97  3078.63  3079.53  3088.95  3089.43
eigval :     3092.81  3094.37  3095.71  3095.82  3095.92  3095.99
eigval :     3102.43  3103.49  3104.21  3104.35  3110.64  3111.03
eigval :     3112.48  3113.00  3114.49  3114.68  3115.76  3116.13

   temp. (K)  partition function   enthalpy   heat capacity  entropy
                                   cal/mol     cal/K/mol   cal/K/mol   J/K/mol
 298.15  VIB  0.117E+19            22064.217    139.687    138.493
         ROT  0.113E+09              888.752      2.981     39.835
         INT  0.133E+27            22952.969    142.668    178.328
         TR   0.149E+29             1481.254      4.968     45.130
         TOT                       24434.2232   147.6365   223.4577   934.9472

       T/K    H(0)-H(T)+PV         H(T)/Eh          T*S/Eh         G(T)/Eh
   ------------------------------------------------------------------------
    298.15    0.389384E-01    0.586120E+00    0.106172E+00    0.479948E+00
   ------------------------------------------------------------------------

         :::::::::::::::::::::::::::::::::::::::::::::::::::::
         ::                  THERMODYNAMIC                  ::
         :::::::::::::::::::::::::::::::::::::::::::::::::::::
         :: total free energy        -122.531512914047 Eh   ::
         ::.................................................::
         :: total energy             -123.011461122506 Eh   ::
         :: zero point energy           0.547181774941 Eh   ::
         :: G(RRHO) w/o ZPVE           -0.067233566483 Eh   ::
         :: G(RRHO) contrib.            0.479948208459 Eh   ::
         :::::::::::::::::::::::::::::::::::::::::::::::::::::

           -------------------------------------------------
          | TOTAL ENERGY             -123.011461122506 Eh   |
          | TOTAL ENTHALPY           -122.425340934392 Eh   |
          | TOTAL FREE ENERGY        -122.531512914047 Eh   |
          | GRADIENT NORM               0.000038137344 Eh/α |
          | HOMO-LUMO GAP               0.353774020918 eV   |
           -------------------------------------------------

 * finished run on 2025/08/24 at 00:21:46.700
