   * xtb version 6.7.1 (edcfbbe) compiled by 'albert@albert-system' on 2024-07-22

   ID    Z sym.   atoms
    1    7 N      1, 9, 26, 33
    2    6 C      2-8, 10-15, 17-25, 27-32, 34-39, 41-48
    3    8 O      16, 40
    4    1 H      49-74

          program call               : xtb data2507/toluene/PxCN/PxCN.xyz --gfn 2 --gbsa toluene --ohess vtight --parallel 40 --molden --ceasefiles --namespace data2507/toluene/PxCN/PxCN_toluene_S0_preOpt
      * Solvation model:               GBSA
        Solvent                        toluene
        Solvent mass                       9.2140E+01 g/mol
          :  Hamiltonian                  GFN2-xTB          :
 * total energy  :  -123.0586657 Eh     change       -0.1927035E-08 Eh
 * total energy  :  -123.0704442 Eh     change       -0.1177850E-01 Eh
 * total energy  :  -123.0738080 Eh     change       -0.3363777E-02 Eh
 * total energy  :  -123.0748327 Eh     change       -0.1024719E-02 Eh
 * total energy  :  -123.0755746 Eh     change       -0.7418568E-03 Eh
 * total energy  :  -123.0759920 Eh     change       -0.4174556E-03 Eh
 * total energy  :  -123.0762649 Eh     change       -0.2728703E-03 Eh
 * total energy  :  -123.0764177 Eh     change       -0.1528458E-03 Eh
 * total energy  :  -123.0766387 Eh     change       -0.2210217E-03 Eh
 * total energy  :  -123.0769974 Eh     change       -0.3586110E-03 Eh
 * total energy  :  -123.0806108 Eh     change       -0.7733853E-06 Eh
 * total energy  :  -123.0806115 Eh     change       -0.7600875E-06 Eh
 * total energy  :  -123.0806123 Eh     change       -0.7491717E-06 Eh
 * total energy  :  -123.0806130 Eh     change       -0.7413252E-06 Eh
 * total energy  :  -123.0806138 Eh     change       -0.7367399E-06 Eh
 * total energy  :  -123.0806145 Eh     change       -0.7353494E-06 Eh
 * total energy  :  -123.0806152 Eh     change       -0.7368515E-06 Eh
 * total energy  :  -123.0806160 Eh     change       -0.7404634E-06 Eh
 * total energy  :  -123.0806160 Eh     change       -0.6546742E-08 Eh
   *** GEOMETRY OPTIMIZATION CONVERGED AFTER 152 ITERATIONS ***

 final structure:
================
74
 xtb: 6.7.1 (edcfbbe)
N            0.00068459592065        0.94619614872920       -0.00076744439727
C            0.00045390671935       -0.20156471373615       -0.00039354940182
C            0.00016662877612       -1.61691512875348        0.00002840918533
C           -1.21379055515209       -2.32341921887718       -0.02988512138506
C           -2.51137625154024       -1.63732412948479       -0.03341202693950
C           -3.48170458536001       -1.97557174184566       -0.97495314836452
C           -4.69819877426670       -1.32350567985000       -0.99339298854559
C           -4.97766414281054       -0.33642146243162       -0.05146226982844
N           -6.21794310928118        0.33581651538518       -0.07000915835725
C           -6.27242044421587        1.71663583632182       -0.28395642697003
C           -5.13757589203655        2.47493833974285       -0.54609645359895
C           -5.22858980944861        3.84285142594990       -0.75573582996307
C           -6.45474313173482        4.47549698406963       -0.71904517660417
C           -7.60120555122170        3.72828807394289       -0.48990463892330
C           -7.51533758731946        2.36399238344279       -0.28270768883089
O           -8.69985951402983        1.68902171221861       -0.09580280641711
C           -8.62776063351427        0.33128153404388        0.11395581358508
C           -9.82309202306883       -0.33304723173900        0.31744412143598
C           -9.83276241896534       -1.69819388044765        0.56573823772540
C           -8.63716069139585       -2.38497861679681        0.62798909618093
C           -7.43591186373858       -1.72255851449965        0.42393881342394
C           -7.41010414364259       -0.36199637971317        0.14157476207191
C           -4.02178902569158       -0.01597217444740        0.90903858832739
C           -2.79804596615707       -0.65400027196920        0.91127380379931
C           -1.13522486971085       -3.71590272509840       -0.04267525423054
N           -0.00032609538649       -4.38793785252787        0.00080549705200
C            1.13482087718514       -3.71628954575385        0.04393027534610
C            1.21386580045768       -2.32385085766298        0.03036100321447
C            2.51164658653874       -1.63810802684102        0.03363403873231
C            2.79869508434421       -0.65549184415216       -0.91167286469162
C            4.02246048386840       -0.01751576678578       -0.90944784125338
C            4.97795615073453       -0.33730219580481        0.05164807343791
N            6.21809742570315        0.33520262166544        0.07033329309217
C            6.27207627509018        1.71615085278937        0.28354342676347
C            5.13694981535307        2.47414730342828        0.54534530618299
C            5.22745373308023        3.84219599541225        0.75431199730727
C            6.45336893277500        4.47528172963475        0.71726497867640
C            7.60010740123645        3.72839750479635        0.48843311905952
C            7.51474883008942        2.36396991101706        0.28189958656988
O            8.69950218047144        1.68933779037145        0.09522311329397
C            8.62787717039487        0.33147190999715       -0.11391779372024
C            9.82342061916045       -0.33250344517019       -0.31729620324632
C            9.83355913947918       -1.69776916180271       -0.56492712026048
C            8.63821213824500       -2.38504863004634       -0.62658452979017
C            7.43674490168014       -1.72298333477444       -0.42265516312894
C            7.41047706923519       -0.36227933699009       -0.14103366961049
C            4.69819475577719       -1.32380884483466        0.99408249793071
C            3.48167385036647       -1.97584121714789        0.97566417947577
H           -3.26663169624026       -2.73119959885420       -1.71583849705999
H           -5.43709631505288       -1.57044418956168       -1.74111440183135
H           -4.17271500700523        1.99494753190212       -0.59248814230355
H           -4.32829359565034        4.40507106949101       -0.95076726716986
H           -6.53101824113280        5.53988427799353       -0.87621623543430
H           -8.57778318345900        4.18649813736311       -0.47335119402044
H          -10.73715445301905        0.23883161035866        0.28180603502306
H          -10.77084536529500       -2.20808280921811        0.71869239085720
H           -8.62564284703253       -3.44330061214830        0.83928504049789
H           -6.50870165759018       -2.26900805748981        0.49266729212712
H           -4.24375696154818        0.73526441522950        1.65210791784106
H           -2.06891780684416       -0.40389766672255        1.66765667219772
H           -2.03684851736348       -4.31318993654575       -0.06611491719178
H            2.03623137642485       -4.31388396701662        0.06772569713853
H            2.06982648471198       -0.40585628778550       -1.66845958586059
H            4.24471555822793        0.73324179660098       -1.65291646263814
H            4.17227117300418        1.99381084224359        0.59197887558303
H            4.32694880195397        4.40416843472510        0.94909046865324
H            6.52924576519816        5.53977581877814        0.87390840737620
H            8.57650506216228        4.18697970263929        0.47159847394109
H           10.73727466121620        0.23973642896554       -0.28210190142040
H           10.77180737707798       -2.20737027954334       -0.71782844239721
H            8.62706640688631       -3.44348566668590       -0.83732423176760
H            6.50972347148744       -2.26981505090252       -0.49090193415562
H            5.43683660137758       -1.57026592866013        1.74221593077794
H            3.26632763450842       -2.73098365811480        1.71696514782692

          :  Hamiltonian                  GFN2-xTB          :
         :: gradient norm              0.000066270926 Eh/a0 ::
         :: HOMO-LUMO gap              1.201188908586 eV    ::
         :: SCC energy              -125.267813178390 Eh    ::
         :: -> dispersion             -0.103784572510 Eh    ::
         :: -> Gsolv                  -0.052236787709 Eh    ::
         :: repulsion energy           2.187197191512 Eh    ::

    * Orbital Energies and Occupations

         #    Occupation            Energy/Eh            Energy/eV
      -------------------------------------------------------------
         1        2.0000           -0.7306488             -19.8820
       ...           ...                  ...                  ...
       101        2.0000           -0.4224939             -11.4966
       102        2.0000           -0.4221895             -11.4884
       103        2.0000           -0.4169042             -11.3445
       104        2.0000           -0.4169008             -11.3444
       105        2.0000           -0.4163235             -11.3287
       106        2.0000           -0.4139200             -11.2633
       107        2.0000           -0.4138470             -11.2614
       108        2.0000           -0.4136994             -11.2573
       109        2.0000           -0.3918932             -10.6640
       110        2.0000           -0.3916821             -10.6582
       111        2.0000           -0.3873602             -10.5406
       112        2.0000           -0.3451697              -9.3925
       113        2.0000           -0.3451162              -9.3911 (HOMO)
       114                         -0.3009734              -8.1899 (LUMO)
       115                         -0.2758301              -7.5057
       116                         -0.2453601              -6.6766
       117                         -0.2443607              -6.6494
       118                         -0.2435934              -6.6285
       119                         -0.2395501              -6.5185
       120                         -0.2395222              -6.5177
       121                         -0.2310213              -6.2864
       122                         -0.2309987              -6.2858
       123                         -0.2295343              -6.2459
       124                         -0.2238368              -6.0909
       ...                                ...                  ...
       218                          1.1432631              31.1098
      -------------------------------------------------------------
                  HL-Gap            0.0441429 Eh            1.2012 eV

     #   Z          covCN         q      C6AA      α(0)
     1   7 N        0.911    -0.260    26.753     7.481
     2   6 C        1.908     0.123    28.073     8.557
     3   6 C        2.986     0.019    27.577     8.614
     4   6 C        2.976     0.010    27.787     8.647
     5   6 C        2.976     0.005    27.917     8.667
     6   6 C        2.923    -0.032    28.789     8.799
     7   6 C        2.920    -0.039    28.967     8.826
     8   6 C        2.920     0.068    26.481     8.439
     9   7 N        2.751    -0.073    22.649     7.068
    10   6 C        2.921     0.042    27.055     8.530
    11   6 C        2.924    -0.060    29.495     8.906
    12   6 C        2.919    -0.039    28.962     8.825
    13   6 C        2.919    -0.041    29.015     8.833
    14   6 C        2.919    -0.058    29.441     8.898
    15   6 C        2.882     0.122    25.315     8.249
    16   8 O        1.708    -0.273    18.520     5.810
    17   6 C        2.882     0.122    25.311     8.248
    18   6 C        2.919    -0.058    29.441     8.898
    19   6 C        2.919    -0.041    29.022     8.834
    20   6 C        2.919    -0.039    28.974     8.827
    21   6 C        2.924    -0.061    29.521     8.910
    22   6 C        2.921     0.042    27.052     8.529
    23   6 C        2.921    -0.038    28.943     8.822
    24   6 C        2.923    -0.028    28.701     8.786
    25   6 C        2.913     0.054    26.791     8.488
    26   7 N        1.834    -0.218    26.583     7.640
    27   6 C        2.913     0.054    26.791     8.488
    28   6 C        2.976     0.010    27.787     8.647
    29   6 C        2.976     0.005    27.917     8.667
    30   6 C        2.923    -0.028    28.701     8.786
    31   6 C        2.921    -0.038    28.943     8.822
    32   6 C        2.920     0.068    26.481     8.439
    33   7 N        2.751    -0.073    22.649     7.068
    34   6 C        2.921     0.042    27.055     8.530
    35   6 C        2.924    -0.060    29.495     8.906
    36   6 C        2.919    -0.039    28.962     8.825
    37   6 C        2.919    -0.041    29.015     8.833
    38   6 C        2.919    -0.058    29.441     8.898
    39   6 C        2.882     0.122    25.315     8.249
    40   8 O        1.708    -0.273    18.520     5.810
    41   6 C        2.882     0.122    25.311     8.248
    42   6 C        2.919    -0.058    29.441     8.898
    43   6 C        2.919    -0.041    29.022     8.834
    44   6 C        2.919    -0.039    28.974     8.827
    45   6 C        2.924    -0.061    29.521     8.910
    46   6 C        2.921     0.042    27.052     8.529
    47   6 C        2.920    -0.039    28.967     8.826
    48   6 C        2.923    -0.032    28.789     8.799
    49   1 H        0.926     0.048     2.342     2.393
    50   1 H        0.926     0.051     2.303     2.373
    51   1 H        0.926     0.039     2.463     2.454
    52   1 H        0.926     0.042     2.424     2.435
    53   1 H        0.926     0.042     2.418     2.432
    54   1 H        0.926     0.048     2.348     2.396
    55   1 H        0.926     0.047     2.353     2.399
    56   1 H        0.926     0.042     2.423     2.434
    57   1 H        0.926     0.042     2.427     2.436
    58   1 H        0.926     0.040     2.452     2.449
    59   1 H        0.926     0.049     2.328     2.386
    60   1 H        0.926     0.039     2.456     2.451
    61   1 H        0.925     0.051     2.301     2.372
    62   1 H        0.925     0.051     2.301     2.372
    63   1 H        0.926     0.039     2.456     2.451
    64   1 H        0.926     0.049     2.328     2.386
    65   1 H        0.926     0.039     2.463     2.454
    66   1 H        0.926     0.042     2.424     2.435
    67   1 H        0.926     0.042     2.418     2.432
    68   1 H        0.926     0.048     2.348     2.396
    69   1 H        0.926     0.047     2.353     2.399
    70   1 H        0.926     0.042     2.423     2.434
    71   1 H        0.926     0.042     2.427     2.436
    72   1 H        0.926     0.040     2.453     2.449
    73   1 H        0.926     0.051     2.303     2.373
    74   1 H        0.926     0.048     2.342     2.393

molecular dipole:
                 x           y           z       tot (Debye)
 q only:       -0.001      -1.261       0.000
   full:       -0.001      -1.319       0.000       3.352

 projected vibrational frequencies (cm⁻¹)
eigval :       -0.00    -0.00    -0.00    -0.00     0.00     0.00
eigval :        8.78     9.75    13.34    25.20    29.67    30.76
eigval :       40.33    42.26    51.69    57.59    66.19    74.22
eigval :       92.91    93.58   112.19   118.56   122.69   125.17
eigval :      157.49   168.63   187.54   192.14   197.54   229.36
eigval :      241.52   248.94   250.98   255.13   267.21   271.69
eigval :      280.35   304.26   353.13   363.02   373.14   375.94
eigval :      377.96   383.06   383.52   399.03   402.18   412.84
eigval :      423.38   430.54   431.52   431.77   436.42   445.58
eigval :      451.72   480.44   501.76   510.40   510.44   519.49
eigval :      522.55   523.40   546.75   550.36   572.20   575.11
eigval :      581.90   584.63   590.00   598.40   599.26   614.26
eigval :      623.53   636.80   655.50   660.35   661.17   661.21
eigval :      661.72   686.74   694.14   696.17   711.75   723.50
eigval :      778.52   778.77   779.33   779.58   789.96   791.97
eigval :      801.45   816.48   818.98   835.12   852.68   852.68
eigval :      858.15   864.42   864.46   867.22   867.37   875.36
eigval :      875.55   898.46   898.52   899.48   899.59   905.06
eigval :      911.53   913.65   913.87   915.17   915.43   915.69
eigval :      915.76   923.04   923.29   925.10   931.03   931.31
eigval :      997.26  1016.18  1062.69  1088.99  1089.03  1090.28
eigval :     1090.32  1105.88  1105.91  1117.96  1118.11  1133.57
eigval :     1134.14  1158.23  1161.45  1168.67  1169.50  1173.12
eigval :     1173.15  1180.94  1181.02  1190.65  1191.72  1197.07
eigval :     1197.11  1208.24  1220.21  1220.93  1240.93  1240.95
eigval :     1248.95  1256.81  1258.88  1258.95  1265.42  1266.99
eigval :     1298.64  1303.94  1303.96  1307.92  1308.46  1309.66
eigval :     1332.60  1332.83  1333.15  1352.17  1354.54  1395.57
eigval :     1396.29  1406.36  1420.50  1422.04  1425.89  1440.98
eigval :     1441.05  1480.04  1480.20  1484.76  1486.31  1503.00
eigval :     1503.64  1522.79  1536.95  1555.49  1556.80  1566.12
eigval :     1566.17  1579.30  1579.32  1584.65  1584.94  1589.78
eigval :     1590.06  1602.30  1602.32  2356.24  3066.00  3066.14
eigval :     3082.97  3083.05  3084.87  3084.96  3086.98  3086.99
eigval :     3087.51  3087.51  3094.85  3094.89  3095.59  3095.61
eigval :     3095.70  3095.70  3096.86  3097.07  3103.34  3103.38
eigval :     3104.30  3104.32  3108.20  3108.22  3109.27  3109.30

   temp. (K)  partition function   enthalpy   heat capacity  entropy
                                   cal/mol     cal/K/mol   cal/K/mol   J/K/mol
 298.15  VIB  0.301E+18            21938.937    138.330    136.618
         ROT  0.558E+08              888.752      2.981     38.427
         INT  0.168E+26            22827.690    141.311    175.045
         TR   0.149E+29             1481.254      4.968     45.130
         TOT                       24308.9437   146.2791   220.1748   921.2114

       T/K    H(0)-H(T)+PV         H(T)/Eh          T*S/Eh         G(T)/Eh
   ------------------------------------------------------------------------
    298.15    0.387388E-01    0.589126E+00    0.104612E+00    0.484513E+00
   ------------------------------------------------------------------------

         :::::::::::::::::::::::::::::::::::::::::::::::::::::
         ::                  THERMODYNAMIC                  ::
         :::::::::::::::::::::::::::::::::::::::::::::::::::::
         :: total free energy        -122.596102490029 Eh   ::
         ::.................................................::
         :: total energy             -123.080615984900 Eh   ::
         :: zero point energy           0.550386882615 Eh   ::
         :: G(RRHO) w/o ZPVE           -0.065873387744 Eh   ::
         :: G(RRHO) contrib.            0.484513494871 Eh   ::
         :::::::::::::::::::::::::::::::::::::::::::::::::::::

           -------------------------------------------------
          | TOTAL ENERGY             -123.080615984900 Eh   |
          | TOTAL ENTHALPY           -122.491490334691 Eh   |
          | TOTAL FREE ENERGY        -122.596102490029 Eh   |
          | GRADIENT NORM               0.000066269766 Eh/α |
          | HOMO-LUMO GAP               1.201188910073 eV   |
           -------------------------------------------------

 * finished run on 2025/08/24 at 00:09:59.807
