   * xtb version 6.7.1 (edcfbbe) compiled by 'albert@albert-system' on 2024-07-22

   ID    Z sym.   atoms
    1    6 C      1-19, 21-43, 45-55, 57-59, 61-72
    2    7 N      20, 44, 56, 60
    3    1 H      73-138

          program call               : xtb data2507/gas/TCz-3PA-TCz/TCz-3PA-TCz_gas_S0_crest.xyz --gfn 2 --ohess vtight --parallel 40 --molden --ceasefiles --namespace data2507/gas/TCz-3PA-TCz/TCz-3PA-TCz_gas_S0_finalOpt
          :  Hamiltonian                  GFN2-xTB          :
 * total energy  :  -191.1078177 Eh     change       -0.1644651E-08 Eh
 * total energy  :  -191.1078197 Eh     change       -0.1973718E-05 Eh
 * total energy  :  -191.1078230 Eh     change       -0.3261155E-05 Eh
 * total energy  :  -191.1078288 Eh     change       -0.5880827E-05 Eh
 * total energy  :  -191.1078348 Eh     change       -0.5958737E-05 Eh
 * total energy  :  -191.1078415 Eh     change       -0.6658740E-05 Eh
 * total energy  :  -191.1078506 Eh     change       -0.9144713E-05 Eh
 * total energy  :  -191.1078602 Eh     change       -0.9617864E-05 Eh
 * total energy  :  -191.1078662 Eh     change       -0.5977318E-05 Eh
 * total energy  :  -191.1078700 Eh     change       -0.3792845E-05 Eh
 * total energy  :  -191.1079052 Eh     change       -0.8570146E-06 Eh
 * total energy  :  -191.1079062 Eh     change       -0.9795754E-06 Eh
 * total energy  :  -191.1079069 Eh     change       -0.7333561E-06 Eh
 * total energy  :  -191.1079073 Eh     change       -0.4391296E-06 Eh
 * total energy  :  -191.1079076 Eh     change       -0.2941311E-06 Eh
 * total energy  :  -191.1079079 Eh     change       -0.2928877E-06 Eh
 * total energy  :  -191.1079083 Eh     change       -0.4061292E-06 Eh
 * total energy  :  -191.1079089 Eh     change       -0.5942197E-06 Eh
 * total energy  :  -191.1079089 Eh     change       -0.3473275E-08 Eh
   *** GEOMETRY OPTIMIZATION CONVERGED AFTER 44 ITERATIONS ***

 final structure:
================
138
 xtb: 6.7.1 (edcfbbe)
C           11.30637606125755        7.00639878549280        2.11115311083250
C            9.80885088193538        6.88008568475325        2.42531550545711
C            9.08069671483080        8.04674619346678        1.75234387923775
C            9.58473189383381        6.98719474788258        3.94037263359501
C            9.31507834631888        5.52470346708522        1.94508937779886
C            8.31118323426441        5.37418202566199        0.99626241280346
C            7.89236184989882        4.12202783084463        0.58494421144809
C            8.46490778590962        2.96566782810920        1.10314529970505
C            8.02554254209650        1.63539041343826        0.65957432580569
C            8.97181183963655        0.62665667905749        0.43172820694365
C            8.61104827935295       -0.63722889531920        0.01280484243799
C            7.26144422262720       -0.90171684413101       -0.16977599975696
C            6.29237132920489        0.10684049708053        0.03403098962188
C            6.67806580593427        1.37169881979596        0.44917571733017
C            5.02090937237792       -0.48042718688615       -0.28980691415413
C            3.72345151804944        0.00352621733319       -0.27859055899321
C            2.68454410980525       -0.84471793608158       -0.64863438912992
C            1.29622329918922       -0.39244344600498       -0.68199130524266
C            0.91726568683586        0.95570115123790       -0.72894942658791
N           -0.34054607642229        1.33783496691500       -0.71330916567863
C           -1.29449121829998        0.39973509317367       -0.67549058446976
C           -2.68272156905679        0.85167538522185       -0.63507740491966
C           -2.96442189710136        2.18378920325806       -0.98266351069404
C           -4.24768566726431        2.68145518128524       -0.99470012132693
C           -5.28358189790271        1.82076631049283       -0.65246859263696
C           -5.01667177813052        0.48699922122348       -0.26157907712409
C           -3.71885977412181        0.00400005461145       -0.25612482058987
C           -6.28526042645351       -0.09902290897475        0.07525206840164
C           -6.66649270999502       -1.36133705042474        0.50166461997448
C           -8.01327345034081       -1.62851612627936        0.71259493256124
C           -8.44470049882346       -2.95903772065828        1.16342330666621
C           -7.72961370730762       -3.65534725827816        2.13161591743827
C           -8.13394775451122       -4.90741701987112        2.55751738963081
C           -9.26531273910205       -5.51894636536421        2.03138120610950
C           -9.74562837204295       -6.89423721115910        2.46661954269580
C          -11.16516703007279       -6.77115322141211        3.03830721628603
C           -9.75501831878603       -7.82942204490601        1.24899585784731
C           -8.85183464770246       -7.51978293956061        3.54087164023179
C           -9.97606322202229       -4.81843660074768        1.05927475115712
C           -9.58022562191045       -3.56698537167904        0.63431437914702
C           -8.96231485488987       -0.62315441302395        0.48241414120350
C           -8.60485778951663        0.64192515943983        0.06366820764049
C           -7.25671716451433        0.90748213640424       -0.12782881992756
N           -6.63637397546564        2.06075415955887       -0.56588559825716
C           -7.27787535433619        3.26737190494303       -0.88233715805236
C           -7.03150295517745        3.90113817210738       -2.09329643965196
C           -7.66295783588925        5.09279494916882       -2.40019868023263
C           -8.56325616824215        5.68330486923120       -1.52135622080753
C           -9.28303837590151        6.98754695884857       -1.82447031367827
C          -10.79732120023249        6.73457080147874       -1.81912128565407
C           -8.90100532357720        7.56934505075855       -3.18813806658547
C           -8.92374294314275        8.02009235025526       -0.74656516211115
C           -8.80264670282555        5.03186858004764       -0.31302274582445
C           -8.17176170766964        3.84811401590590        0.01091816657865
C           -0.91583427302916       -0.94860380001673       -0.72047267388644
N            0.34203703982995       -1.33062631892749       -0.71111576187232
C            2.96326877006989       -2.17809615969347       -0.99377217217803
C            4.24606066942015       -2.67677366047380       -1.01152263841696
C            5.28448812023122       -1.81571369727264       -0.67803414633920
N            6.63756515131431       -2.05638059577346       -0.59871749090926
C            7.27712795349022       -3.26489502866891       -0.91164794863081
C            8.17572213178906       -3.83995184485566       -0.02265102832843
C            8.81072123224322       -5.02712873046909       -0.34003834306050
C            8.56516250081200       -5.68188707318527       -1.54107914405210
C            9.23814435009970       -6.98972324732009       -1.92526309722478
C           10.20770316819805       -7.49217060991351       -0.85217842669881
C           10.02884617554983       -6.78255402349644       -3.22495457794654
C            8.16036566402700       -8.06237016848873       -2.13686855187719
C            7.65604000272582       -5.09455080674666       -2.41877291838011
C            7.02330180397592       -3.90538533800815       -2.11987499502835
C            9.47104494429926        3.11137875182706        2.05473491801133
C            9.88161030130781        4.36297770739339        2.46495740639274
H           11.88371590744739        6.23755437045541        2.61710224420072
H           11.47496526199808        6.90973295974754        1.04047297225743
H           11.67676837571388        7.97760634017131        2.43297994406610
H            9.23010287354917        8.03237410764627        0.67513436115702
H            8.01459957911274        8.01788902719460        1.96546921490896
H            9.47377684083011        8.98745248364100        2.13313319989783
H           10.13357407900855        6.21883920658455        4.47775081815477
H            8.52751487524717        6.87580224663546        4.17249075667409
H            9.91728312840625        7.95845284587464        4.30104797600082
H            7.83795154522021        6.23714153506929        0.55622068065884
H            7.12190449240011        4.04290914097086       -0.16871706276012
H           10.01866817670593        0.85679133741171        0.56449789502376
H            9.36008688057068       -1.39034704686581       -0.18066856111770
H            5.93694502340806        2.13710750889986        0.62329229538787
H            3.53301472673626        1.01748495232563        0.03705180866546
H            1.64363812127645        1.75434331536986       -0.79857863091453
H           -2.13267223440901        2.81826965457687       -1.24482968539348
H           -4.44024376631891        3.71178882905251       -1.25311907311767
H           -3.52610907270091       -1.00911645015984        0.06077777737426
H           -5.92696070706171       -2.13514928638526        0.64237227941430
H           -6.85401635591835       -3.20255863371391        2.57466578930267
H           -7.54613222605205       -5.39960172416721        3.31548240072440
H          -11.85985225284642       -6.38869745768023        2.29564139686318
H          -11.16970690763251       -6.09365393398452        3.88981734498725
H          -11.52211524060600       -7.74435974311202        3.36917103253202
H           -8.75577002658246       -7.90369484389328        0.82474173363738
H          -10.08043370613114       -8.82519584906713        1.54321322627939
H          -10.42656813975488       -7.46684371911838        0.47572032586794
H           -8.83093988516944       -6.90627353726937        4.43868588327877
H           -9.24224411357483       -8.49873313313032        3.81231383207788
H           -7.83607885719973       -7.65323301793603        3.17585467054738
H          -10.85938790533260       -5.25461183666881        0.61643978259585
H          -10.14678789189649       -3.06195202472623       -0.13498544051542
H          -10.00539092902601       -0.84328135976689        0.65557491700661
H           -9.35547561313580        1.39646225564513       -0.11763533185117
H           -6.35227243915522        3.45097068999926       -2.80207529372304
H           -7.44250013218542        5.55051100754402       -3.35047691051856
H          -11.13726061607699        6.38010538300238       -0.85004871982559
H          -11.33101503834137        7.65359160250918       -2.05154253467060
H          -11.05621917547367        5.98682556613115       -2.56599804751949
H           -7.83707898635606        7.78955475035277       -3.23591269750756
H           -9.16152447320025        6.88595235105954       -3.99304238229608
H           -9.44310344191923        8.49889435855697       -3.34941335636778
H           -7.84845225326329        8.18500435377504       -0.72739824534821
H           -9.41449254143004        8.96765244423906       -0.95814320814313
H           -9.23505666490687        7.68948027945181        0.24032872310007
H           -9.49074202580079        5.45564489510270        0.40264370026450
H           -8.35808554698973        3.37481528456507        0.96356105112052
H           -1.64261068432246       -1.74744133179267       -0.78345738630257
H            2.12956322538124       -2.81276777949027       -1.24918290080523
H            4.43630156430784       -3.70808048183103       -1.26777603633125
H            8.36694040458505       -3.36139538559867        0.92644851883872
H            9.50064525590937       -5.43824422121137        0.37844130320717
H            9.69056965534089       -7.68203770072695        0.08550734759198
H           10.65865865866786       -8.42620106874838       -1.18105673703769
H           11.00808119621683       -6.77602018985677       -0.68090936359354
H           10.77775974930318       -6.00488337633196       -3.08977130258112
H           10.53479110138165       -7.70376831710638       -3.50573794273347
H            9.37794216526700       -6.48955147096501       -4.04388743911611
H            7.47858277696781       -7.78787293717365       -2.93691064197687
H            7.58066248477065       -8.19769645137721       -1.22608440834439
H            8.62350942395283       -9.01213556380708       -2.39551730483689
H            7.43646918019944       -5.56540049279909       -3.36494469864893
H            6.33943074422656       -3.45976323038164       -2.82695643627096
H            9.92236993223025        2.23257582932381        2.49283272431827
H           10.66140846182821        4.42846798362728        3.20942385479356

          :  Hamiltonian                  GFN2-xTB          :
         :: gradient norm              0.000040793961 Eh/a0 ::
         :: HOMO-LUMO gap              1.966718642784 eV    ::
         :: SCC energy              -194.515674861468 Eh    ::
         :: -> dispersion             -0.173150004714 Eh    ::
         :: repulsion energy           3.407765937799 Eh    ::

    * Orbital Energies and Occupations

         #    Occupation            Energy/Eh            Energy/eV
      -------------------------------------------------------------
         1        2.0000           -0.6736129             -18.3299
       ...           ...                  ...                  ...
       167        2.0000           -0.4001622             -10.8890
       168        2.0000           -0.3999791             -10.8840
       169        2.0000           -0.3981775             -10.8350
       170        2.0000           -0.3934157             -10.7054
       171        2.0000           -0.3933985             -10.7049
       172        2.0000           -0.3910302             -10.6405
       173        2.0000           -0.3832139             -10.4278
       174        2.0000           -0.3826627             -10.4128
       175        2.0000           -0.3742560             -10.1840
       176        2.0000           -0.3692370             -10.0475
       177        2.0000           -0.3566897              -9.7060
       178        2.0000           -0.3506630              -9.5420
       179        2.0000           -0.3389925              -9.2245 (HOMO)
       180                         -0.2667169              -7.2577 (LUMO)
       181                         -0.2452524              -6.6737
       182                         -0.2416090              -6.5745
       183                         -0.2413672              -6.5679
       184                         -0.2342403              -6.3740
       185                         -0.2337543              -6.3608
       186                         -0.2284109              -6.2154
       187                         -0.2269349              -6.1752
       188                         -0.2267373              -6.1698
       189                         -0.2212232              -6.0198
       190                         -0.2111199              -5.7449
       ...                                ...                  ...
       354                          0.7519833              20.4625
      -------------------------------------------------------------
                  HL-Gap            0.0722756 Eh            1.9667 eV

     #   Z          covCN         q      C6AA      α(0)
     1   6 C        3.762    -0.105    22.543     6.768
     2   6 C        3.903     0.025    20.092     6.372
     3   6 C        3.761    -0.107    22.583     6.774
     4   6 C        3.762    -0.105    22.544     6.768
     5   6 C        2.973     0.006    27.891     8.663
     6   6 C        2.924    -0.041    29.008     8.832
     7   6 C        2.925    -0.038    28.936     8.821
     8   6 C        2.977     0.006    27.885     8.662
     9   6 C        2.976    -0.000    28.028     8.684
    10   6 C        2.929    -0.038    28.950     8.824
    11   6 C        2.908    -0.051    29.274     8.872
    12   6 C        3.079     0.045    26.913     8.505
    13   6 C        3.065    -0.018    28.385     8.737
    14   6 C        2.918    -0.038    28.941     8.822
    15   6 C        3.066    -0.017    28.367     8.734
    16   6 C        2.916    -0.037    28.930     8.820
    17   6 C        2.978    -0.007    28.199     8.711
    18   6 C        2.955     0.079    26.232     8.401
    19   6 C        2.897     0.047    26.946     8.511
    20   7 N        1.847    -0.228    26.821     7.675
    21   6 C        2.955     0.079    26.232     8.401
    22   6 C        2.978    -0.007    28.199     8.711
    23   6 C        2.930    -0.032    28.803     8.802
    24   6 C        2.908    -0.050    29.246     8.868
    25   6 C        3.078     0.048    26.837     8.493
    26   6 C        3.066    -0.017    28.367     8.734
    27   6 C        2.916    -0.037    28.929     8.820
    28   6 C        3.065    -0.018    28.385     8.736
    29   6 C        2.918    -0.038    28.941     8.822
    30   6 C        2.976    -0.000    28.028     8.684
    31   6 C        2.977     0.006    27.886     8.662
    32   6 C        2.925    -0.038    28.936     8.822
    33   6 C        2.924    -0.041    29.008     8.832
    34   6 C        2.973     0.006    27.891     8.663
    35   6 C        3.903     0.025    20.092     6.372
    36   6 C        3.762    -0.105    22.543     6.768
    37   6 C        3.762    -0.105    22.543     6.768
    38   6 C        3.761    -0.107    22.583     6.774
    39   6 C        2.926    -0.036    28.907     8.817
    40   6 C        2.924    -0.038    28.937     8.822
    41   6 C        2.929    -0.038    28.950     8.824
    42   6 C        2.908    -0.051    29.275     8.872
    43   6 C        3.079     0.045    26.913     8.505
    44   7 N        2.802    -0.040    22.007     6.967
    45   6 C        2.913     0.059    26.668     8.468
    46   6 C        2.921    -0.045    29.122     8.850
    47   6 C        2.925    -0.039    28.959     8.825
    48   6 C        2.973     0.007    27.862     8.658
    49   6 C        3.903     0.026    20.083     6.370
    50   6 C        3.762    -0.106    22.571     6.772
    51   6 C        3.761    -0.108    22.618     6.780
    52   6 C        3.762    -0.106    22.574     6.773
    53   6 C        2.928    -0.034    28.856     8.809
    54   6 C        2.921    -0.045    29.113     8.848
    55   6 C        2.897     0.047    26.946     8.511
    56   7 N        1.847    -0.228    26.821     7.675
    57   6 C        2.930    -0.032    28.804     8.802
    58   6 C        2.908    -0.050    29.246     8.868
    59   6 C        3.078     0.048    26.837     8.493
    60   7 N        2.802    -0.040    22.005     6.967
    61   6 C        2.913     0.059    26.668     8.468
    62   6 C        2.921    -0.045    29.120     8.849
    63   6 C        2.925    -0.039    28.962     8.826
    64   6 C        2.973     0.007    27.862     8.658
    65   6 C        3.903     0.026    20.083     6.370
    66   6 C        3.761    -0.108    22.617     6.779
    67   6 C        3.762    -0.106    22.573     6.773
    68   6 C        3.762    -0.106    22.574     6.773
    69   6 C        2.928    -0.034    28.852     8.809
    70   6 C        2.921    -0.045    29.115     8.849
    71   6 C        2.924    -0.038    28.937     8.822
    72   6 C        2.926    -0.036    28.907     8.817
    73   1 H        0.925     0.036     2.505     2.475
    74   1 H        0.925     0.033     2.544     2.494
    75   1 H        0.925     0.036     2.505     2.475
    76   1 H        0.925     0.035     2.513     2.479
    77   1 H        0.925     0.036     2.509     2.477
    78   1 H        0.925     0.035     2.519     2.482
    79   1 H        0.925     0.036     2.504     2.474
    80   1 H        0.925     0.033     2.539     2.492
    81   1 H        0.925     0.036     2.505     2.475
    82   1 H        0.926     0.034     2.536     2.490
    83   1 H        0.926     0.027     2.623     2.533
    84   1 H        0.926     0.032     2.564     2.504
    85   1 H        0.926     0.028     2.614     2.528
    86   1 H        0.926     0.033     2.542     2.493
    87   1 H        0.926     0.033     2.542     2.493
    88   1 H        0.925     0.033     2.550     2.497
    89   1 H        0.926     0.056     2.249     2.345
    90   1 H        0.926     0.032     2.565     2.504
    91   1 H        0.926     0.033     2.542     2.493
    92   1 H        0.926     0.033     2.544     2.494
    93   1 H        0.926     0.028     2.620     2.531
    94   1 H        0.926     0.034     2.535     2.490
    95   1 H        0.925     0.036     2.505     2.475
    96   1 H        0.925     0.033     2.544     2.494
    97   1 H        0.925     0.036     2.505     2.475
    98   1 H        0.925     0.033     2.539     2.492
    99   1 H        0.925     0.036     2.505     2.475
   100   1 H        0.925     0.036     2.504     2.474
   101   1 H        0.925     0.035     2.513     2.479
   102   1 H        0.925     0.035     2.519     2.482
   103   1 H        0.925     0.036     2.509     2.477
   104   1 H        0.926     0.026     2.641     2.542
   105   1 H        0.926     0.027     2.635     2.539
   106   1 H        0.926     0.032     2.563     2.503
   107   1 H        0.926     0.028     2.613     2.528
   108   1 H        0.926     0.038     2.470     2.458
   109   1 H        0.926     0.042     2.422     2.434
   110   1 H        0.925     0.037     2.491     2.468
   111   1 H        0.925     0.039     2.466     2.456
   112   1 H        0.925     0.034     2.526     2.485
   113   1 H        0.925     0.037     2.493     2.469
   114   1 H        0.925     0.036     2.497     2.471
   115   1 H        0.925     0.038     2.479     2.462
   116   1 H        0.925     0.035     2.520     2.482
   117   1 H        0.925     0.039     2.466     2.456
   118   1 H        0.925     0.037     2.489     2.467
   119   1 H        0.926     0.035     2.517     2.481
   120   1 H        0.926     0.038     2.473     2.459
   121   1 H        0.925     0.033     2.548     2.496
   122   1 H        0.926     0.056     2.249     2.345
   123   1 H        0.926     0.032     2.564     2.504
   124   1 H        0.926     0.038     2.473     2.459
   125   1 H        0.926     0.042     2.426     2.436
   126   1 H        0.925     0.037     2.494     2.470
   127   1 H        0.925     0.038     2.480     2.462
   128   1 H        0.925     0.036     2.499     2.472
   129   1 H        0.925     0.034     2.526     2.486
   130   1 H        0.925     0.039     2.466     2.456
   131   1 H        0.925     0.037     2.488     2.467
   132   1 H        0.925     0.037     2.486     2.466
   133   1 H        0.925     0.035     2.520     2.483
   134   1 H        0.925     0.039     2.466     2.455
   135   1 H        0.926     0.035     2.513     2.479
   136   1 H        0.926     0.038     2.471     2.458
   137   1 H        0.926     0.027     2.636     2.539
   138   1 H        0.926     0.026     2.641     2.541

molecular dipole:
                 x           y           z       tot (Debye)
 q only:       -0.001      -0.002      -0.298
   full:       -0.010      -0.007      -0.310       0.789

 projected vibrational frequencies (cm⁻¹)
eigval :       -0.00    -0.00    -0.00     0.00     0.00     0.00
eigval :        2.10     5.95     8.31    15.63    16.76    17.67
eigval :       21.40    21.81    22.25    24.88    25.66    30.43
eigval :       35.31    40.86    46.06    49.49    56.63    60.30
eigval :       63.53    69.50    74.69    79.73    85.79    90.90
eigval :       95.12    98.68   107.25   116.61   120.66   124.33
eigval :      137.60   150.78   157.76   162.51   168.37   172.21
eigval :      174.34   177.72   183.55   186.02   193.22   209.69
eigval :      211.20   214.66   219.76   221.69   225.45   230.00
eigval :      234.75   240.97   249.99   255.25   259.02   263.59
eigval :      269.62   290.43   291.80   300.84   305.57   308.95
eigval :      314.31   314.43   316.40   316.44   320.84   322.01
eigval :      336.60   349.42   355.74   363.54   364.83   365.94
eigval :      367.94   371.50   376.33   378.69   380.39   382.33
eigval :      385.57   385.88   392.36   393.38   396.01   399.58
eigval :      404.68   409.16   415.92   425.38   429.07   431.87
eigval :      438.19   441.80   449.50   452.18   454.78   461.49
eigval :      462.43   467.18   472.73   481.00   496.28   500.41
eigval :      531.57   534.31   537.69   541.46   551.46   557.25
eigval :      569.71   570.92   576.96   577.19   579.89   587.10
eigval :      603.46   605.05   608.45   608.60   618.26   623.95
eigval :      625.61   626.19   630.55   640.98   673.96   681.61
eigval :      682.57   686.05   695.06   697.53   702.11   703.70
eigval :      704.60   708.76   708.89   736.31   746.62   752.28
eigval :      755.97   759.56   784.18   807.22   807.49   818.18
eigval :      818.82   823.73   828.66   831.63   832.35   853.35
eigval :      858.75   866.57   867.82   870.51   870.73   872.21
eigval :      875.03   875.97   879.61   880.11   881.17   881.74
eigval :      887.96   889.60   896.66   908.71   910.13   910.81
eigval :      913.63   914.85   916.48   917.65   918.07   924.40
eigval :      924.79   930.43   930.56   934.12   934.22   941.22
eigval :      942.45   960.58   960.61   960.79   960.82   962.81
eigval :      962.84   963.13   963.15   963.15   963.16   963.65
eigval :      963.66   995.47   997.23  1017.04  1017.97  1018.03
eigval :     1029.86  1034.96  1035.23  1035.29  1035.60  1035.69
eigval :     1035.70  1035.74  1035.76  1037.78  1076.41  1079.89
eigval :     1080.34  1084.47  1133.65  1133.71  1142.84  1142.98
eigval :     1146.49  1146.51  1148.11  1148.37  1152.67  1153.01
eigval :     1158.02  1158.45  1186.72  1186.93  1211.47  1211.57
eigval :     1217.88  1218.99  1219.10  1221.60  1226.47  1227.79
eigval :     1227.81  1228.01  1228.03  1233.37  1234.24  1234.32
eigval :     1234.58  1234.60  1239.05  1239.71  1246.52  1253.05
eigval :     1271.78  1275.95  1278.54  1283.40  1283.93  1284.89
eigval :     1285.84  1288.75  1290.94  1292.45  1299.16  1310.93
eigval :     1312.75  1318.33  1318.53  1322.39  1322.82  1325.30
eigval :     1338.86  1349.59  1351.23  1359.89  1373.44  1382.17
eigval :     1387.14  1396.77  1397.14  1400.30  1400.36  1405.88
eigval :     1405.91  1406.43  1406.51  1408.22  1408.54  1410.84
eigval :     1410.91  1414.21  1418.00  1422.49  1429.52  1429.55
eigval :     1430.02  1430.12  1441.64  1445.96  1471.30  1472.09
eigval :     1482.56  1490.41  1491.81  1491.82  1492.28  1492.28
eigval :     1493.80  1493.94  1494.15  1494.16  1495.01  1495.08
eigval :     1498.10  1498.70  1498.74  1503.39  1503.44  1504.62
eigval :     1504.66  1507.65  1507.79  1512.22  1512.39  1514.81
eigval :     1514.83  1514.85  1514.86  1519.45  1519.49  1520.30
eigval :     1520.33  1557.42  1558.99  1560.16  1567.36  1567.46
eigval :     1572.00  1572.15  1577.29  1577.52  1592.30  1595.91
eigval :     1603.10  1603.55  1605.45  1606.00  1614.39  1615.13
eigval :     3020.89  3020.96  3022.36  3022.38  3024.10  3024.12
eigval :     3025.89  3025.90  3026.83  3026.89  3028.30  3028.33
eigval :     3029.51  3029.59  3030.81  3030.88  3031.85  3031.92
eigval :     3032.98  3033.04  3035.55  3035.77  3036.95  3036.99
eigval :     3037.93  3038.35  3040.12  3040.30  3046.54  3046.55
eigval :     3047.79  3047.95  3049.87  3049.90  3050.60  3051.44
eigval :     3051.57  3052.65  3069.80  3069.91  3073.86  3074.06
eigval :     3079.45  3079.63  3082.36  3082.39  3083.40  3083.60
eigval :     3084.99  3085.93  3086.73  3087.66  3088.22  3088.47
eigval :     3091.74  3091.87  3094.20  3094.53  3096.11  3096.23
eigval :     3108.71  3108.87  3111.13  3111.22  3116.29  3116.73

   temp. (K)  partition function   enthalpy   heat capacity  entropy
                                   cal/mol     cal/K/mol   cal/K/mol   J/K/mol
 298.15  VIB  0.374E+34            40247.613    244.374    253.927
         ROT  0.744E+09              888.752      2.981     43.577
         INT  0.278E+43            41136.366    247.355    297.503
         TR   0.279E+29             1481.254      4.968     46.374
         TOT                       42617.6195   252.3231   343.8771  1438.7819

       T/K    H(0)-H(T)+PV         H(T)/Eh          T*S/Eh         G(T)/Eh
   ------------------------------------------------------------------------
    298.15    0.679155E-01    0.120351E+01    0.163387E+00    0.104012E+01
   ------------------------------------------------------------------------

         :::::::::::::::::::::::::::::::::::::::::::::::::::::
         ::                  THERMODYNAMIC                  ::
         :::::::::::::::::::::::::::::::::::::::::::::::::::::
         :: total free energy        -190.067790311084 Eh   ::
         ::.................................................::
         :: total energy             -191.107908923668 Eh   ::
         :: zero point energy           1.135590236320 Eh   ::
         :: G(RRHO) w/o ZPVE           -0.095471623735 Eh   ::
         :: G(RRHO) contrib.            1.040118612585 Eh   ::
         :::::::::::::::::::::::::::::::::::::::::::::::::::::

           -------------------------------------------------
          | TOTAL ENERGY             -191.107908923668 Eh   |
          | TOTAL ENTHALPY           -189.904403187681 Eh   |
          | TOTAL FREE ENERGY        -190.067790311084 Eh   |
          | GRADIENT NORM               0.000040793302 Eh/α |
          | HOMO-LUMO GAP               1.966718684119 eV   |
           -------------------------------------------------

 * finished run on 2025/09/05 at 02:36:16.748
