   * xtb version 6.7.1 (edcfbbe) compiled by 'albert@albert-system' on 2024-07-22

   ID    Z sym.   atoms
    1    6 C      1-19, 21-43, 45-55, 57-59, 61-72
    2    7 N      20, 44, 56, 60
    3    1 H      73-138

          program call               : xtb data2507/gas/TCz-3PA-TCz/TCz-3PA-TCz.xyz --gfn 2 --ohess vtight --parallel 40 --molden --ceasefiles --namespace data2507/gas/TCz-3PA-TCz/TCz-3PA-TCz_gas_S0_preOpt
          :  Hamiltonian                  GFN2-xTB          :
 * total energy  :  -191.0714981 Eh     change       -0.2932723E-08 Eh
 * total energy  :  -191.0925019 Eh     change       -0.2100382E-01 Eh
 * total energy  :  -191.0982196 Eh     change       -0.5717677E-02 Eh
 * total energy  :  -191.1005224 Eh     change       -0.2302803E-02 Eh
 * total energy  :  -191.1029775 Eh     change       -0.2455131E-02 Eh
 * total energy  :  -191.1043634 Eh     change       -0.1385956E-02 Eh
 * total energy  :  -191.1049702 Eh     change       -0.6067493E-03 Eh
 * total energy  :  -191.1052291 Eh     change       -0.2588769E-03 Eh
 * total energy  :  -191.1054331 Eh     change       -0.2039958E-03 Eh
 * total energy  :  -191.1056563 Eh     change       -0.2232788E-03 Eh
 * total energy  :  -191.1073665 Eh     change       -0.1381934E-05 Eh
 * total energy  :  -191.1073680 Eh     change       -0.1477654E-05 Eh
 * total energy  :  -191.1073694 Eh     change       -0.1457725E-05 Eh
 * total energy  :  -191.1073709 Eh     change       -0.1483759E-05 Eh
 * total energy  :  -191.1073724 Eh     change       -0.1425716E-05 Eh
 * total energy  :  -191.1073736 Eh     change       -0.1220394E-05 Eh
 * total energy  :  -191.1073746 Eh     change       -0.1076642E-05 Eh
 * total energy  :  -191.1073755 Eh     change       -0.8209679E-06 Eh
 * total energy  :  -191.1073755 Eh     change       -0.6516871E-08 Eh
   *** GEOMETRY OPTIMIZATION CONVERGED AFTER 68 ITERATIONS ***

 final structure:
================
138
 xtb: 6.7.1 (edcfbbe)
C            7.26283195213783       -8.03285062979017        2.45052126216617
C            6.95961868255134       -7.69352206666255        0.98421062082615
C            5.55429198896136       -8.18996697996355        0.61579338081062
C            7.97175119290864       -8.43283181601642        0.10483709338692
C            7.01562745105844       -6.18509819518632        0.80242022012201
C            6.15174378136576       -5.37192242997863        1.53277013427864
C            6.16263456317562       -3.99903879121992        1.39751127843706
C            7.04806925859474       -3.37406523761861        0.52303568369045
C            7.05980579041959       -1.91241627838628        0.37171484129094
C            8.27758293239871       -1.22658084772578        0.26454792080540
C            8.33793005434666        0.14365895631362        0.11501804604628
C            7.14250484848939        0.84554569470158        0.05748535127465
C            5.90449613862229        0.17615191284437        0.18684052747633
C            5.86746654813934       -1.20045202262378        0.34176769836615
C            4.88681941420345        1.18922353931802        0.12721517833813
C            3.50369882473364        1.14508064846551        0.17677860850120
C            2.78766082150585        2.33289931620678        0.07110587196867
C            1.32752183503769        2.35661128005988        0.10833062167084
C            0.52389108346122        1.24344127917499       -0.16924416755167
N           -0.78875658386526        1.29387566787480       -0.14089531712742
C           -1.38246728255416        2.45605876515690        0.16343270129463
C           -2.84397334481079        2.46322413238506        0.18092585254164
C           -3.58240513110431        3.64792888957534        0.33148251225098
C           -4.96100377577060        3.65381079590412        0.33087207611142
C           -5.62386230656014        2.44443002617410        0.16774646303815
C           -4.89776259872298        1.23593449758880        0.03890317307859
C           -3.51578501896961        1.24994506032076        0.04145737390368
C           -5.87407200659696        0.18599770908388       -0.06680164003653
C           -5.77780729785448       -1.18657512935712       -0.22906753281471
C           -6.94040349860620       -1.94031739472229       -0.33168104078274
C           -6.86610347492566       -3.39772611875425       -0.50509208738684
C           -5.93434636607724       -4.15583109871700        0.19557322199896
C           -5.85999947607680       -5.52713148759700        0.03336002128566
C           -6.70865886041594       -6.19862626863276       -0.83822713395439
C           -6.66006496538689       -7.70318258234600       -1.05168949506068
C           -5.58385622193656       -8.38585054058045       -0.20318581928242
C           -8.02028127043987       -8.30700262850908       -0.67454207939806
C           -6.35611193121429       -7.98924727429451       -2.52920642871538
C           -7.63856101055832       -5.43419297568242       -1.53943905964420
C           -7.72042665123193       -4.06639713294667       -1.37800241388498
C           -8.18631902761095       -1.30049966883372       -0.27913215964599
C           -8.30501701570032        0.06423493322421       -0.11287451018289
C           -7.14051176057243        0.80858924843828        0.00698114998412
N           -6.97295749511351        2.17284916233260        0.14908669338850
C           -8.00406861815547        3.11933712787748        0.23983847749987
C           -8.00915026305282        4.23931776972851       -0.58144727076649
C           -9.02687978839563        5.17121756309906       -0.48734741337796
C          -10.07256888053974        5.01390962805419        0.41454095423286
C          -11.21418067594073        6.00969411490773        0.54189531777196
C          -11.24325260369870        6.55840643104087        1.97549211281221
C          -12.53660051284057        5.29423312339939        0.23132971670635
C          -11.07482261051317        7.19352091554555       -0.41893896974802
C          -10.05443815350520        3.88267973520341        1.22803895742524
C           -9.03992062635166        2.95036010937505        1.15245804298363
C           -0.57683549084281        3.57024745490120        0.43271191010858
N            0.73733261794800        3.52086651998774        0.40331922184155
C            3.47377433933999        3.54862481264062       -0.08684863291135
C            4.84781334769052        3.61167343379572       -0.14430974894821
C            5.56031252499723        2.42478496008339       -0.02367272287661
N            6.91847201963280        2.20241215868766       -0.06684337124007
C            7.90684756681020        3.18529594583045       -0.22458694297735
C            8.88940314724099        3.04817558877107       -1.19645124035883
C            9.86325222082569        4.01855405037745       -1.34845815444804
C            9.88439229663929        5.15551993462734       -0.54943671269455
C           10.93217570373256        6.24800116038832       -0.68991239086704
C           10.23101714241121        7.57355370791649       -1.01908202343988
C           11.94474932095480        5.95550541018491       -1.80043001661050
C           11.69849308258769        6.37916616645608        0.63399580459967
C            8.88958451609647        5.27889742880149        0.41850494809143
C            7.91796850491505        4.31381883075224        0.58818780566350
C            7.91539716529282       -4.18081056996608       -0.20519192083665
C            7.89676497203513       -5.55698608855375       -0.06919183140018
H            8.24959274988287       -7.66532887981005        2.72496640097255
H            6.53451340710390       -7.58386273241128        3.12007746499220
H            7.24218546582045       -9.11072593109214        2.59813482326583
H            4.79660395671141       -7.74542388249739        1.25501349813948
H            5.32339894920216       -7.93237891756694       -0.41591405331803
H            5.49837164251798       -9.27137623780749        0.72277793944073
H            8.98996996801737       -8.13536551619015        0.34495958377421
H            7.78424403166756       -8.24542913755966       -0.94997874020351
H            7.88603880480250       -9.50422980386088        0.27576296342264
H            5.45210453468360       -5.81325934315641        2.22722295751781
H            5.48934955974661       -3.39949904150443        1.99330943843594
H            9.19766178910018       -1.78894049390294        0.32563637419238
H            9.28866673307341        0.65220664910948        0.05822814260262
H            4.92115383284925       -1.71395721407933        0.42016737846237
H            3.00260448864509        0.19931122050086        0.31235453200204
H            0.94506187747133        0.28585085437338       -0.44531724150698
H           -3.06825310952274        4.58928025278862        0.44536060985512
H           -5.50697942665900        4.57602038934874        0.46197300262409
H           -2.94486300268572        0.34150124326973       -0.06169057104974
H           -4.80955125594843       -1.65766780472814       -0.30208754191500
H           -5.26920341714633       -3.66855884693457        0.89407656181983
H           -5.12257859083472       -6.06624285337227        0.60590227799754
H           -5.76731943206095       -8.23409412597790        0.85806131487634
H           -4.59363381716263       -8.01102387641351       -0.45161008715949
H           -5.59545663955369       -9.45689901045841       -0.39603979492425
H           -8.81795670352175       -7.90351758359243       -1.29205349246641
H           -8.00092660235649       -9.38699026684954       -0.80611681150861
H           -8.25209031957569       -8.08978386812341        0.36622615368930
H           -5.40367964768649       -7.54408154875484       -2.80967119508490
H           -6.29958862079286       -9.06246598939698       -2.69973715082625
H           -7.12606743649492       -7.58180610573672       -3.17847554568010
H           -8.31658301306967       -5.91014117856980       -2.23256376972784
H           -8.44223298850779       -3.50486081956948       -1.95379546498716
H           -9.08220548022187       -1.89899930894715       -0.35464894768368
H           -9.27631885371054        0.53500923587185       -0.08707135803391
H           -7.21958988835243        4.37230441882021       -1.30624190858730
H           -8.99160620002496        6.02503340032055       -1.14381974229657
H          -10.29892886124790        7.04472738676864        2.21129739909166
H          -12.04294176754932        7.28847561277624        2.08020665994854
H          -11.40906222711964        5.76698133169178        2.70097390927792
H          -12.51432555198436        4.88365387409009       -0.77608914911034
H          -12.72052300959549        4.48024008851235        0.92695702506819
H          -13.36612289074757        5.99466241518968        0.30021785710472
H          -11.07856165193850        6.86078915333266       -1.45432675666692
H          -11.91498058307893        7.87124928688103       -0.28196896158011
H          -10.16071538510090        7.74996617758217       -0.22516735030860
H          -10.84351911003845        3.72085322468577        1.94665841608853
H           -9.03809264697285        2.09315848553682        1.80930737120226
H           -0.99041205731566        4.53612890024799        0.68889501513068
H            2.88498354257549        4.44845485046534       -0.17033417288177
H            5.35324286312839        4.55433499528243       -0.29037450256370
H            8.88116164190414        2.18432455587458       -1.84461527018399
H           10.60604899926150        3.87233923652479       -2.11533150757834
H            9.54579290716632        7.86753040690131       -0.22899000433075
H           10.96688676753221        8.36516349363243       -1.14290643071611
H            9.66551341161526        7.48029215271210       -1.94397746141502
H           11.45407139364512        5.87902486660222       -2.76798621166154
H           12.66697939164807        6.76755861452074       -1.85430082594912
H           12.48975090264160        5.03556106565230       -1.60180508051995
H           12.17954684698166        5.43609106177504        0.88519707172879
H           11.03636037639744        6.65171490404709        1.45099552378267
H           12.46565843702043        7.14564615799674        0.54771672307230
H            8.86905533112503        6.14259841505444        1.06562475775473
H            7.17068602680717        4.42341080801774        1.35998664158469
H            8.60189192684541       -3.72805849187869       -0.90647665718294
H            8.58625357627194       -6.13462371891136       -0.66356962855817

          :  Hamiltonian                  GFN2-xTB          :
         :: gradient norm              0.000059262030 Eh/a0 ::
         :: HOMO-LUMO gap              1.947966684777 eV    ::
         :: SCC energy              -194.514839470454 Eh    ::
         :: -> dispersion             -0.173131362264 Eh    ::
         :: repulsion energy           3.407463995050 Eh    ::

    * Orbital Energies and Occupations

         #    Occupation            Energy/Eh            Energy/eV
      -------------------------------------------------------------
         1        2.0000           -0.6734306             -18.3250
       ...           ...                  ...                  ...
       167        2.0000           -0.4000413             -10.8857
       168        2.0000           -0.3994423             -10.8694
       169        2.0000           -0.3968404             -10.7986
       170        2.0000           -0.3932225             -10.7001
       171        2.0000           -0.3923209             -10.6756
       172        2.0000           -0.3907995             -10.6342
       173        2.0000           -0.3828404             -10.4176
       174        2.0000           -0.3818455             -10.3905
       175        2.0000           -0.3740594             -10.1787
       176        2.0000           -0.3692595             -10.0481
       177        2.0000           -0.3561628              -9.6917
       178        2.0000           -0.3502791              -9.5316
       179        2.0000           -0.3383465              -9.2069 (HOMO)
       180                         -0.2667601              -7.2589 (LUMO)
       181                         -0.2450976              -6.6694
       182                         -0.2414629              -6.5705
       183                         -0.2407017              -6.5498
       184                         -0.2339726              -6.3667
       185                         -0.2331748              -6.3450
       186                         -0.2282732              -6.2116
       187                         -0.2271549              -6.1812
       188                         -0.2267334              -6.1697
       189                         -0.2212850              -6.0215
       190                         -0.2109001              -5.7389
       ...                                ...                  ...
       354                          0.7567967              20.5935
      -------------------------------------------------------------
                  HL-Gap            0.0715865 Eh            1.9480 eV

     #   Z          covCN         q      C6AA      α(0)
     1   6 C        3.762    -0.105    22.544     6.768
     2   6 C        3.903     0.025    20.092     6.372
     3   6 C        3.762    -0.105    22.546     6.769
     4   6 C        3.761    -0.106    22.581     6.774
     5   6 C        2.973     0.006    27.891     8.663
     6   6 C        2.926    -0.036    28.903     8.816
     7   6 C        2.924    -0.037    28.931     8.821
     8   6 C        2.977     0.006    27.885     8.662
     9   6 C        2.976    -0.000    28.028     8.684
    10   6 C        2.929    -0.038    28.950     8.824
    11   6 C        2.908    -0.051    29.272     8.872
    12   6 C        3.079     0.045    26.914     8.505
    13   6 C        3.065    -0.018    28.385     8.736
    14   6 C        2.918    -0.038    28.941     8.822
    15   6 C        3.067    -0.017    28.364     8.733
    16   6 C        2.916    -0.037    28.925     8.819
    17   6 C        2.978    -0.007    28.193     8.710
    18   6 C        2.955     0.079    26.229     8.400
    19   6 C        2.895     0.047    26.934     8.509
    20   7 N        1.848    -0.228    26.834     7.677
    21   6 C        2.953     0.079    26.243     8.402
    22   6 C        2.977    -0.008    28.212     8.713
    23   6 C        2.926    -0.038    28.955     8.824
    24   6 C        2.908    -0.051    29.274     8.872
    25   6 C        3.077     0.048    26.836     8.493
    26   6 C        3.065    -0.016    28.343     8.730
    27   6 C        2.920    -0.031    28.763     8.795
    28   6 C        3.065    -0.017    28.359     8.732
    29   6 C        2.918    -0.038    28.935     8.821
    30   6 C        2.976     0.000    28.019     8.683
    31   6 C        2.977     0.006    27.883     8.662
    32   6 C        2.925    -0.038    28.935     8.821
    33   6 C        2.924    -0.040    29.006     8.832
    34   6 C        2.973     0.006    27.892     8.663
    35   6 C        3.903     0.025    20.092     6.372
    36   6 C        3.761    -0.107    22.584     6.775
    37   6 C        3.762    -0.105    22.543     6.768
    38   6 C        3.762    -0.105    22.544     6.768
    39   6 C        2.926    -0.037    28.909     8.817
    40   6 C        2.924    -0.038    28.937     8.822
    41   6 C        2.929    -0.038    28.948     8.824
    42   6 C        2.908    -0.051    29.278     8.873
    43   6 C        3.079     0.045    26.914     8.505
    44   7 N        2.802    -0.040    22.011     6.968
    45   6 C        2.913     0.059    26.668     8.468
    46   6 C        2.921    -0.045    29.126     8.850
    47   6 C        2.925    -0.039    28.962     8.825
    48   6 C        2.973     0.007    27.865     8.659
    49   6 C        3.903     0.026    20.083     6.370
    50   6 C        3.762    -0.106    22.573     6.773
    51   6 C        3.762    -0.106    22.571     6.772
    52   6 C        3.761    -0.108    22.617     6.779
    53   6 C        2.928    -0.034    28.857     8.810
    54   6 C        2.921    -0.045    29.114     8.848
    55   6 C        2.896     0.047    26.943     8.511
    56   7 N        1.846    -0.229    26.862     7.681
    57   6 C        2.930    -0.032    28.791     8.800
    58   6 C        2.908    -0.050    29.248     8.868
    59   6 C        3.078     0.048    26.838     8.493
    60   7 N        2.802    -0.040    22.010     6.968
    61   6 C        2.913     0.059    26.669     8.468
    62   6 C        2.921    -0.045    29.121     8.849
    63   6 C        2.925    -0.039    28.963     8.826
    64   6 C        2.973     0.007    27.863     8.658
    65   6 C        3.903     0.026    20.083     6.370
    66   6 C        3.762    -0.106    22.574     6.773
    67   6 C        3.761    -0.108    22.616     6.779
    68   6 C        3.762    -0.106    22.573     6.773
    69   6 C        2.928    -0.034    28.853     8.809
    70   6 C        2.921    -0.045    29.116     8.849
    71   6 C        2.925    -0.038    28.943     8.822
    72   6 C        2.924    -0.041    29.013     8.833
    73   1 H        0.925     0.033     2.545     2.495
    74   1 H        0.925     0.036     2.500     2.473
    75   1 H        0.925     0.036     2.505     2.475
    76   1 H        0.925     0.036     2.498     2.472
    77   1 H        0.925     0.033     2.540     2.492
    78   1 H        0.925     0.036     2.505     2.475
    79   1 H        0.925     0.035     2.517     2.481
    80   1 H        0.925     0.035     2.513     2.479
    81   1 H        0.925     0.035     2.519     2.482
    82   1 H        0.926     0.027     2.632     2.537
    83   1 H        0.926     0.028     2.621     2.532
    84   1 H        0.926     0.032     2.564     2.504
    85   1 H        0.926     0.028     2.616     2.529
    86   1 H        0.926     0.033     2.541     2.493
    87   1 H        0.926     0.033     2.541     2.493
    88   1 H        0.925     0.033     2.549     2.497
    89   1 H        0.926     0.031     2.576     2.510
    90   1 H        0.926     0.029     2.594     2.519
    91   1 H        0.926     0.060     2.204     2.321
    92   1 H        0.926     0.037     2.487     2.466
    93   1 H        0.926     0.029     2.606     2.524
    94   1 H        0.926     0.034     2.534     2.489
    95   1 H        0.925     0.035     2.513     2.479
    96   1 H        0.925     0.036     2.507     2.476
    97   1 H        0.925     0.035     2.521     2.483
    98   1 H        0.925     0.036     2.506     2.476
    99   1 H        0.925     0.036     2.507     2.476
   100   1 H        0.925     0.033     2.545     2.495
   101   1 H        0.925     0.034     2.537     2.491
   102   1 H        0.925     0.036     2.507     2.476
   103   1 H        0.925     0.036     2.504     2.475
   104   1 H        0.926     0.026     2.645     2.543
   105   1 H        0.926     0.026     2.637     2.540
   106   1 H        0.926     0.032     2.563     2.504
   107   1 H        0.926     0.028     2.619     2.531
   108   1 H        0.926     0.038     2.475     2.460
   109   1 H        0.926     0.042     2.426     2.435
   110   1 H        0.925     0.034     2.524     2.484
   111   1 H        0.925     0.039     2.466     2.456
   112   1 H        0.925     0.037     2.488     2.467
   113   1 H        0.925     0.034     2.524     2.485
   114   1 H        0.925     0.037     2.490     2.467
   115   1 H        0.925     0.039     2.465     2.455
   116   1 H        0.925     0.037     2.496     2.470
   117   1 H        0.925     0.038     2.479     2.462
   118   1 H        0.925     0.036     2.496     2.471
   119   1 H        0.926     0.035     2.517     2.481
   120   1 H        0.926     0.038     2.471     2.458
   121   1 H        0.925     0.031     2.566     2.505
   122   1 H        0.926     0.054     2.270     2.356
   123   1 H        0.926     0.032     2.565     2.504
   124   1 H        0.926     0.038     2.476     2.461
   125   1 H        0.926     0.042     2.427     2.436
   126   1 H        0.925     0.037     2.486     2.466
   127   1 H        0.925     0.039     2.466     2.456
   128   1 H        0.925     0.035     2.522     2.484
   129   1 H        0.925     0.037     2.496     2.470
   130   1 H        0.925     0.038     2.480     2.463
   131   1 H        0.925     0.036     2.498     2.472
   132   1 H        0.925     0.034     2.526     2.485
   133   1 H        0.925     0.037     2.487     2.466
   134   1 H        0.925     0.039     2.466     2.456
   135   1 H        0.926     0.035     2.512     2.478
   136   1 H        0.926     0.039     2.461     2.453
   137   1 H        0.926     0.026     2.637     2.539
   138   1 H        0.926     0.033     2.544     2.494

molecular dipole:
                 x           y           z       tot (Debye)
 q only:       -0.044       0.660      -0.070
   full:       -0.067       0.783      -0.061       2.004

 projected vibrational frequencies (cm⁻¹)
eigval :       -0.00    -0.00    -0.00    -0.00     0.00     0.00
eigval :       -3.01     5.76     8.72    15.13    17.70    18.26
eigval :       19.93    21.41    22.42    23.24    24.52    27.46
eigval :       30.36    36.19    39.78    50.63    54.48    60.73
eigval :       64.09    69.23    73.76    78.66    88.19    89.82
eigval :       91.72   100.58   109.71   116.10   118.75   124.83
eigval :      134.97   152.34   153.86   165.07   166.36   172.06
eigval :      174.60   177.39   184.37   188.55   197.86   200.74
eigval :      211.88   212.82   220.66   221.22   223.28   226.22
eigval :      237.60   246.95   251.66   254.13   256.94   262.73
eigval :      273.12   283.54   295.53   296.38   307.78   313.44
eigval :      314.51   314.55   316.37   316.54   318.04   323.12
eigval :      337.82   350.23   357.56   362.69   363.41   364.61
eigval :      367.40   369.17   376.28   378.90   379.90   382.51
eigval :      385.20   385.82   387.04   394.19   395.74   397.74
eigval :      408.81   411.37   415.02   423.05   429.54   435.06
eigval :      437.55   444.99   448.40   452.49   454.84   460.54
eigval :      462.95   464.96   472.85   481.22   494.66   505.52
eigval :      531.47   534.11   537.04   541.49   550.37   556.98
eigval :      567.36   570.46   575.40   576.77   579.88   587.07
eigval :      603.19   604.98   607.97   608.74   618.37   623.28
eigval :      625.12   627.60   629.47   640.68   674.05   681.74
eigval :      682.67   686.22   694.71   697.58   701.87   703.61
eigval :      704.41   708.95   709.10   735.67   746.77   752.24
eigval :      755.99   759.74   784.05   807.24   807.45   814.37
eigval :      818.44   821.84   825.94   831.79   832.53   848.57
eigval :      859.62   867.05   870.10   870.66   871.95   873.89
eigval :      875.98   880.02   880.39   881.31   881.71   882.10
eigval :      885.33   889.30   896.42   902.65   908.72   910.02
eigval :      911.23   913.46   915.79   917.98   918.59   923.74
eigval :      924.57   930.27   930.46   934.03   934.31   941.05
eigval :      942.35   960.60   960.61   960.80   960.80   962.75
eigval :      962.82   963.11   963.12   963.14   963.15   963.63
eigval :      963.65   995.65   997.18  1016.66  1017.93  1018.26
eigval :     1029.23  1034.35  1035.21  1035.23  1035.58  1035.70
eigval :     1035.71  1035.74  1035.76  1036.35  1075.87  1079.50
eigval :     1080.10  1086.57  1133.86  1137.14  1142.82  1143.14
eigval :     1146.56  1146.67  1148.34  1148.63  1153.06  1154.71
eigval :     1157.94  1161.52  1186.95  1188.85  1203.09  1211.56
eigval :     1212.41  1218.95  1219.09  1221.99  1225.12  1227.79
eigval :     1227.82  1227.98  1227.99  1233.11  1234.21  1234.23
eigval :     1234.63  1234.73  1237.58  1244.66  1247.42  1257.87
eigval :     1274.88  1276.96  1280.69  1283.60  1284.31  1284.74
eigval :     1285.60  1289.67  1291.09  1296.71  1298.10  1312.92
eigval :     1313.70  1317.47  1318.49  1319.80  1322.86  1323.88
eigval :     1340.78  1348.37  1352.42  1364.20  1370.77  1380.80
eigval :     1384.96  1396.69  1397.27  1400.23  1400.35  1405.88
eigval :     1405.95  1406.47  1406.48  1407.99  1408.56  1410.78
eigval :     1410.97  1415.55  1419.84  1425.73  1429.47  1429.50
eigval :     1430.02  1430.09  1440.76  1445.13  1467.45  1471.88
eigval :     1473.64  1487.75  1491.82  1491.85  1492.21  1492.26
eigval :     1493.54  1493.85  1494.12  1494.13  1494.99  1495.11
eigval :     1498.17  1498.51  1503.38  1503.46  1504.28  1504.37
eigval :     1505.09  1507.67  1507.84  1511.92  1512.19  1514.79
eigval :     1514.86  1514.87  1514.87  1519.44  1519.50  1520.36
eigval :     1520.38  1556.68  1559.44  1563.30  1567.60  1568.49
eigval :     1572.02  1573.18  1577.36  1578.99  1592.60  1596.05
eigval :     1603.10  1603.56  1605.53  1606.13  1614.70  1615.72
eigval :     3020.83  3020.90  3022.19  3022.40  3024.02  3024.07
eigval :     3025.74  3025.81  3026.68  3026.90  3028.25  3028.25
eigval :     3029.33  3029.50  3030.65  3030.98  3031.76  3031.77
eigval :     3032.93  3033.00  3035.39  3035.66  3036.88  3036.90
eigval :     3037.86  3038.20  3040.11  3040.25  3046.55  3046.92
eigval :     3047.73  3048.00  3049.79  3049.85  3050.29  3051.42
eigval :     3051.65  3054.14  3069.84  3070.70  3072.93  3075.09
eigval :     3079.14  3079.47  3082.27  3082.61  3083.19  3083.46
eigval :     3083.89  3085.93  3086.40  3086.86  3088.97  3091.16
eigval :     3091.45  3093.52  3094.02  3094.78  3096.19  3102.98
eigval :     3108.28  3108.99  3109.66  3115.13  3116.27  3116.29

   temp. (K)  partition function   enthalpy   heat capacity  entropy
                                   cal/mol     cal/K/mol   cal/K/mol   J/K/mol
 298.15  VIB  0.496E+34            40289.576    244.032    253.866
         ROT  0.687E+09              888.752      2.981     43.418
         INT  0.341E+43            41178.329    247.013    297.284
         TR   0.279E+29             1481.254      4.968     46.374
         TOT                       42659.5827   251.9811   343.6583  1437.8661

       T/K    H(0)-H(T)+PV         H(T)/Eh          T*S/Eh         G(T)/Eh
   ------------------------------------------------------------------------
    298.15    0.679824E-01    0.120351E+01    0.163283E+00    0.104023E+01
   ------------------------------------------------------------------------

         :::::::::::::::::::::::::::::::::::::::::::::::::::::
         ::                  THERMODYNAMIC                  ::
         :::::::::::::::::::::::::::::::::::::::::::::::::::::
         :: total free energy        -190.067147627058 Eh   ::
         ::.................................................::
         :: total energy             -191.107375475405 Eh   ::
         :: zero point energy           1.135528600038 Eh   ::
         :: G(RRHO) w/o ZPVE           -0.095300751691 Eh   ::
         :: G(RRHO) contrib.            1.040227848347 Eh   ::
         :::::::::::::::::::::::::::::::::::::::::::::::::::::

           -------------------------------------------------
          | TOTAL ENERGY             -191.107375475405 Eh   |
          | TOTAL ENTHALPY           -189.903864503081 Eh   |
          | TOTAL FREE ENERGY        -190.067147627058 Eh   |
          | GRADIENT NORM               0.000059258050 Eh/α |
          | HOMO-LUMO GAP               1.947966648592 eV   |
           -------------------------------------------------

 * finished run on 2025/09/05 at 02:09:32.759
