   * xtb version 6.7.1 (edcfbbe) compiled by 'albert@albert-system' on 2024-07-22

   ID    Z sym.   atoms
    1    6 C      1-19, 21-43, 45-55, 57-59, 61-72
    2    7 N      20, 44, 56, 60
    3    1 H      73-138

          program call               : xtb data2507/gas/TCz-3PA-TCz/TCz-3PA-TCz_gas_T1_crest.xyz --gfn 2 --spinpol --tblite --uhf 2 --ohess vtight --parallel 40 --molden --ceasefiles --namespace data2507/gas/TCz-3PA-TCz/TCz-3PA-TCz_gas_T1_finalOpt
 * total energy  :  -191.0389891 Eh     change       -0.1297926E-07 Eh
 * total energy  :  -191.0391563 Eh     change       -0.1672052E-03 Eh
 * total energy  :  -191.0392547 Eh     change       -0.9846814E-04 Eh
 * total energy  :  -191.0392664 Eh     change       -0.1161811E-04 Eh
 * total energy  :  -191.0392733 Eh     change       -0.6980996E-05 Eh
 * total energy  :  -191.0392755 Eh     change       -0.2180179E-05 Eh
 * total energy  :  -191.0392769 Eh     change       -0.1356829E-05 Eh
 * total energy  :  -191.0392792 Eh     change       -0.2273677E-05 Eh
 * total energy  :  -191.0392815 Eh     change       -0.2302743E-05 Eh
 * total energy  :  -191.0392835 Eh     change       -0.2079279E-05 Eh
 * total energy  :  -191.0393287 Eh     change       -0.1364302E-05 Eh
 * total energy  :  -191.0393304 Eh     change       -0.1714180E-05 Eh
 * total energy  :  -191.0393323 Eh     change       -0.1829145E-05 Eh
 * total energy  :  -191.0393340 Eh     change       -0.1713470E-05 Eh
 * total energy  :  -191.0393356 Eh     change       -0.1666450E-05 Eh
 * total energy  :  -191.0393372 Eh     change       -0.1579074E-05 Eh
 * total energy  :  -191.0393388 Eh     change       -0.1538456E-05 Eh
 * total energy  :  -191.0393387 Eh     change        0.6276778E-07 Eh
 * total energy  :  -191.0393388 Eh     change       -0.6773433E-07 Eh
   *** GEOMETRY OPTIMIZATION CONVERGED AFTER 45 ITERATIONS ***

 final structure:
================
138
 xtb: 6.7.1 (edcfbbe)
C           11.70801325872805        6.97537742998487       -0.76037601690813
C           10.22879117936415        7.02447829624329       -0.35224781659455
C            9.48977746479128        7.92395321988381       -1.34676202219305
C           10.09551177251019        7.64658185974838        1.04506686546530
C            9.67604612369387        5.60858785757684       -0.31866181460244
C            8.61064331208149        5.18992455306225       -1.10645735678769
C            8.13570203496539        3.89283540605831       -1.04291709412813
C            8.71115883405354        2.95608999589897       -0.19086249072504
C            8.20406348792077        1.57915020640404       -0.12684213510601
C            9.09644559912112        0.50375540730362       -0.02331617610362
C            8.66488965513853       -0.80581970669334        0.02990710656413
C            7.29904052884777       -1.04558469246745       -0.02469071727922
C            6.38019483190635        0.02723752372951       -0.09906732504830
C            6.83567070174230        1.33306079107476       -0.15854506707029
C            5.06570066523039       -0.55850625689503       -0.07915865981164
C            3.79469809322761       -0.02063368444647       -0.13385163245265
C            2.68600617948122       -0.87796001261410       -0.11250367035779
C            1.33326971281663       -0.40780530521203       -0.14890136248989
C            0.94408955985865        0.93360804712472        0.01062393506619
N           -0.29191696270912        1.31305811591370        0.06105974453488
C           -1.32179357368021        0.41761339817504       -0.05433692420864
C           -2.67584538967748        0.88578292406152       -0.04112101983935
C           -2.89860365989506        2.28272774396375        0.01026131872044
C           -4.15790777582717        2.82778080056329        0.06151125472653
C           -5.24856157473723        1.96402104814616        0.06287366627983
C           -5.05585180365010        0.56484610200466       -0.02583100571530
C           -3.78392989042332        0.02829100496576       -0.07405947746818
C           -6.36912349884157       -0.02324114592180       -0.05008724882445
C           -6.82271766854335       -1.33006080487162       -0.10575763262776
C           -8.19107310591960       -1.57710504059717       -0.09121509437134
C           -8.69935936211158       -2.95351027063441       -0.15546061220913
C           -8.07683316746023       -3.98336009293423        0.54197822103519
C           -8.55742128466551       -5.27870848815195        0.48602174051216
C           -9.67620688547108       -5.60231654999012       -0.27196551758980
C          -10.23927555047602       -7.01157109091655       -0.36326043177692
C           -9.44553994146471       -8.02030152619780        0.47142274728830
C          -11.68790964633766       -7.00575783219157        0.14527995489500
C          -10.20440455813320       -7.47062321571554       -1.82791263663125
C          -10.29367090544793       -4.56815511210475       -0.97221156989079
C           -9.82158669517724       -3.27312927867792       -0.91601049559829
C           -9.08573256812033       -0.50211491620736       -0.00023936681534
C           -8.65583095115597        0.80731492837127        0.06307495104009
C           -7.28973671859398        1.04829025084515        0.01857532060297
N           -6.60019388502474        2.24091234238930        0.08624093253918
C           -7.17562238704357        3.51420959948415        0.18377935063636
C           -8.17981868144282        3.90675763698944       -0.69254372393358
C           -8.75191862652907        5.16125865727541       -0.58469590234970
C           -8.33950631379698        6.06526928085286        0.38716461387908
C           -8.94099488694491        7.45322161464696        0.53760607640694
C           -9.56224531965607        7.57924161583884        1.93603959034468
C          -10.03277358711256        7.73877063086391       -0.49707322351697
C           -7.83219359336732        8.50085854596834        0.36442220712433
C           -7.32715194258791        5.65829865436762        1.25430891921784
C           -6.75356766052185        4.40693525231168        1.16422792570429
C           -0.93216003802890       -0.92301659422459       -0.21813313743516
N            0.30382187094697       -1.30253719716336       -0.27047819812716
C            2.90649702661889       -2.27525435245976       -0.06248007583973
C            4.16504270274822       -2.82155786731862       -0.01100683038399
C            5.25611966420473       -1.95823883645131        0.00676202018016
N            6.60696247391670       -2.23737433336418        0.03817820468817
C            7.17615763190882       -3.51209995941990        0.14919563235699
C            6.73249198216785       -4.40040326321956        1.12427318652129
C            7.29749740808797       -5.65466117491402        1.22712921451276
C            8.32275444794972       -6.06897571133392        0.37892051136164
C            8.91474301943710       -7.45935449999924        0.54384103738434
C            9.50764327822889       -7.58543199810194        1.95454068270015
C           10.02553709178818       -7.75195923071012       -0.46835498345051
C            7.80468768215818       -8.50220349787677        0.35084077158996
C            8.75612329060538       -5.16972496029482       -0.58833721421792
C            8.19264312335301       -3.91254700955014       -0.70935149383442
C            9.78074347824606        3.37058702452475        0.59905131291523
C           10.24696815430173        4.66742308646458        0.53538169899460
H           12.29647019219044        6.40148097024218       -0.04992489876513
H           11.81214741162619        6.51400641711383       -1.74036467385127
H           12.11792659918099        7.98226349383847       -0.80717618548007
H            9.57482402996035        7.53923345423162       -2.36049674087160
H            8.43775055911092        8.01413147791405       -1.08611086609084
H            9.92665921130298        8.92056960907469       -1.32816544080457
H           10.65528022743394        7.08185537742507        1.78542728751677
H            9.05106242970001        7.66557231861369        1.34969259303292
H           10.47230090944152        8.66737675397213        1.03883959080114
H            8.13161412061059        5.87255633601845       -1.78973485677275
H            7.31656068279777        3.59723295877351       -1.68291907063724
H           10.15688348825363        0.70753532816809       -0.00311421742186
H            9.37254444259160       -1.61603117212267        0.12121475651599
H            6.13462003924780        2.15299365287706       -0.20138211819079
H            3.67246538131768        1.04914785540376       -0.20137215176499
H            1.69432580676018        1.69646620066633        0.15796348874397
H           -2.03181842993785        2.92540759579574        0.01542898417600
H           -4.29373946537648        3.89847759898220        0.09257186231090
H           -3.66209784352464       -1.04165501452246       -0.13865329711237
H           -6.12087564497252       -2.14723535175897       -0.17773574610803
H           -7.21552414936525       -3.76500573928388        1.15706828805191
H           -8.04026458326822       -6.03637462047243        1.05243971512704
H           -9.45995816413452       -7.75326337065116        1.52565167158341
H           -8.41386700496022       -8.08282465235810        0.13293140089813
H           -9.89266238837101       -9.00723647375779        0.36893270997410
H          -12.31656695405080       -6.35488824851878       -0.45600332632460
H          -12.10320319314209       -8.01078315541565        0.10667679936240
H          -11.72295631161571       -6.65670702557694        1.17534608531196
H           -9.18230505065855       -7.45881183014219       -2.20101479094087
H          -10.59164830545437       -8.48396494767688       -1.91287658182991
H          -10.80471484855806       -6.82283516137784       -2.46068216371820
H          -11.16323014174610       -4.77109142316230       -1.57994081224795
H          -10.31688184286919       -2.50058951058817       -1.48673545630752
H          -10.14455684336015       -0.70962106304939        0.04846383079718
H           -9.36393546034444        1.61658893386418        0.15996135409676
H           -8.50214650039586        3.23090680473361       -1.47079960561494
H           -9.52716630735103        5.42422735551737       -1.28551903665628
H           -8.81615775013656        7.45047861534822        2.71515171595350
H          -10.01489835347197        8.56104589158840        2.05726133927965
H          -10.33335999770622        6.82416724535742        2.07449541811594
H           -9.63732409884403        7.68556390296430       -1.50879057975527
H          -10.85906862514311        7.03855095006401       -0.39853692992772
H          -10.42400346150041        8.74228170752755       -0.34249595260638
H           -7.37078398641939        8.40138079516351       -0.61593668417070
H           -8.24742874360476        9.50270889512787        0.45041194989575
H           -7.05805284567611        8.38842308320246        1.11825960883579
H           -6.97774813980150        6.32496478128079        2.02808580940299
H           -5.98669192879642        4.10788947758173        1.86322290068693
H           -1.68217108358338       -1.68734296669378       -0.35884087854993
H            2.03902559815748       -2.91695149775432       -0.07618644094369
H            4.30124974958486       -3.89267474444000        0.00148744496788
H            5.95543551339427       -4.09550089511829        1.80935994731016
H            6.93062294380201       -6.31774599406838        1.99587480899801
H            8.74726286402362       -7.45025015223775        2.71859205466199
H            9.95192295287013       -8.56958351695301        2.08706569726850
H           10.28042284992043       -6.83460012405156        2.10620627187535
H           10.85199694081302       -7.05400393459727       -0.35605900460439
H           10.41041504596750       -8.75616246126884       -0.30273388430503
H            9.65015963178041       -7.70102621378655       -1.48779467376015
H            7.36283647419527       -8.40235680655433       -0.63845200053872
H            7.01661092877934       -8.38489462081884        1.08934787125570
H            8.21358509121437       -9.50578323615931        0.44650036332577
H            9.54138437437051       -5.43883973492252       -1.27554788218586
H            8.53097517040018       -3.24134387302973       -1.48478931819332
H           10.23737473472372        2.67391830526921        1.28748345059203
H           11.07405670648025        4.94670023451269        1.17143596923082

 projected vibrational frequencies (cm⁻¹)
eigval :       -0.00    -0.00    -0.00     0.00     0.00     0.00
eigval :        2.29     6.89     9.36    14.85    17.04    18.01
eigval :       21.20    21.47    21.61    24.41    25.04    30.32
eigval :       33.19    40.10    43.46    50.69    55.27    60.87
eigval :       61.20    71.80    74.94    78.70    83.57    93.13
eigval :       97.10   101.94   105.11   114.84   122.43   124.24
eigval :      136.83   149.87   155.10   160.00   168.52   170.09
eigval :      172.38   175.43   183.39   188.64   192.03   209.06
eigval :      211.61   214.14   219.20   222.55   224.43   229.25
eigval :      230.85   236.78   247.52   251.49   254.52   262.56
eigval :      267.53   289.06   296.31   297.81   305.49   312.01
eigval :      314.20   314.23   315.59   316.15   316.34   325.60
eigval :      329.46   341.18   351.38   355.58   357.12   363.34
eigval :      365.36   366.70   372.90   376.18   378.30   380.65
eigval :      383.82   384.89   386.52   390.91   391.15   395.66
eigval :      403.83   408.02   412.59   418.34   425.61   428.76
eigval :      433.78   441.60   447.41   450.49   454.84   459.35
eigval :      461.92   463.72   468.71   478.17   484.20   500.70
eigval :      530.12   533.13   535.03   540.12   548.79   552.76
eigval :      556.88   567.84   569.28   576.50   577.48   588.02
eigval :      591.14   602.98   605.30   607.19   607.75   608.78
eigval :      622.08   623.34   625.26   627.50   633.72   672.06
eigval :      673.56   674.52   684.03   693.18   696.42   699.59
eigval :      701.45   702.15   704.40   704.95   727.26   749.58
eigval :      750.78   757.12   758.89   771.01   803.04   804.28
eigval :      804.98   807.06   807.32   818.51   819.00   830.49
eigval :      831.42   836.69   838.64   850.92   866.42   869.48
eigval :      869.76   873.31   873.35   878.14   878.78   880.74
eigval :      880.85   884.34   891.37   902.91   903.08   906.18
eigval :      907.73   909.06   909.87   917.00   917.21   923.25
eigval :      923.29   929.48   929.87   931.75   933.40   934.24
eigval :      940.06   940.75   960.19   960.22   960.25   960.26
eigval :      962.35   962.37   962.68   962.69   962.70   962.70
eigval :      963.08   963.10   996.48   997.43  1016.78  1017.36
eigval :     1027.70  1029.91  1034.71  1034.71  1035.01  1035.09
eigval :     1035.14  1035.14  1035.17  1035.23  1045.08  1052.54
eigval :     1079.20  1079.75  1102.09  1131.46  1140.68  1142.42
eigval :     1144.24  1145.98  1146.41  1148.10  1148.65  1152.03
eigval :     1155.35  1157.75  1160.15  1185.38  1185.76  1199.84
eigval :     1211.04  1211.66  1217.58  1218.65  1219.61  1224.28
eigval :     1227.50  1227.51  1227.55  1227.59  1232.03  1233.36
eigval :     1233.82  1233.92  1234.26  1234.41  1244.17  1245.07
eigval :     1261.22  1266.77  1275.40  1276.94  1283.10  1283.55
eigval :     1284.61  1285.04  1287.94  1290.17  1291.00  1293.06
eigval :     1309.78  1310.44  1318.57  1318.63  1321.90  1322.09
eigval :     1338.40  1338.65  1345.23  1345.70  1353.78  1353.98
eigval :     1380.30  1382.92  1397.05  1397.19  1400.13  1400.19
eigval :     1404.71  1404.78  1405.18  1405.20  1407.98  1408.00
eigval :     1410.65  1410.68  1419.92  1420.64  1426.98  1427.00
eigval :     1427.34  1427.37  1428.01  1430.71  1455.53  1455.69
eigval :     1470.43  1470.69  1473.12  1479.15  1490.54  1490.56
eigval :     1491.15  1491.15  1491.84  1492.06  1492.80  1492.82
eigval :     1493.54  1493.61  1497.29  1497.37  1502.14  1502.22
eigval :     1503.26  1503.35  1506.02  1506.13  1510.83  1510.93
eigval :     1513.46  1513.49  1513.75  1513.84  1518.38  1518.40
eigval :     1519.30  1519.31  1533.47  1535.07  1563.38  1563.42
eigval :     1567.56  1567.78  1573.29  1573.45  1580.94  1583.80
eigval :     1595.70  1596.55  1601.50  1601.73  1609.98  1610.16
eigval :     3020.03  3020.07  3021.34  3021.38  3023.09  3023.15
eigval :     3024.84  3024.90  3025.90  3025.96  3027.25  3027.27
eigval :     3028.45  3028.53  3029.33  3029.37  3030.52  3030.55
eigval :     3031.42  3031.54  3034.65  3034.71  3035.88  3035.91
eigval :     3036.35  3036.41  3038.15  3038.21  3045.18  3045.23
eigval :     3046.33  3046.34  3048.72  3048.77  3050.13  3050.14
eigval :     3061.22  3062.31  3069.32  3069.58  3073.16  3073.47
eigval :     3078.59  3079.29  3079.88  3080.92  3082.42  3082.87
eigval :     3082.95  3083.22  3085.92  3086.26  3086.60  3086.73
eigval :     3090.61  3090.99  3091.31  3091.55  3093.89  3093.93
eigval :     3098.89  3099.58  3107.92  3108.01  3115.14  3115.22

   temp. (K)  partition function   enthalpy   heat capacity  entropy
                                   cal/mol     cal/K/mol   cal/K/mol   J/K/mol
 298.15  VIB  0.449E+34            40537.234    246.192    255.207
         ROT  0.748E+09              888.752      2.981     43.587
         INT  0.336E+43            41425.987    249.173    298.794
         TR   0.279E+29             1481.254      4.968     46.374
         TOT                       42907.2405   254.1412   345.1673  1444.1800

       T/K    H(0)-H(T)+PV         H(T)/Eh          T*S/Eh         G(T)/Eh
   ------------------------------------------------------------------------
    298.15    0.683770E-01    0.119978E+01    0.164000E+00    0.103578E+01
   ------------------------------------------------------------------------

         :::::::::::::::::::::::::::::::::::::::::::::::::::::
         ::                  THERMODYNAMIC                  ::
         :::::::::::::::::::::::::::::::::::::::::::::::::::::
         :: total free energy        -190.003558606962 Eh   ::
         ::.................................................::
         :: total energy             -191.039338761934 Eh   ::
         :: zero point energy           1.131403236174 Eh   ::
         :: G(RRHO) w/o ZPVE           -0.095623081203 Eh   ::
         :: G(RRHO) contrib.            1.035780154972 Eh   ::
         :::::::::::::::::::::::::::::::::::::::::::::::::::::

           -------------------------------------------------
          | TOTAL ENERGY             -191.039338761934 Eh   |
          | TOTAL ENTHALPY           -189.839558485561 Eh   |
          | TOTAL FREE ENERGY        -190.003558606962 Eh   |
          | GRADIENT NORM               0.000087248023 Eh/α |
           -------------------------------------------------

 * finished run on 2025/09/05 at 03:08:46.538
