   * xtb version 6.7.1 (edcfbbe) compiled by 'albert@albert-system' on 2024-07-22

   ID    Z sym.   atoms
    1    6 C      1-19, 21-43, 45-55, 57-59, 61-72
    2    7 N      20, 44, 56, 60
    3    1 H      73-138

          program call               : xtb data2507/gas/TCz-3PA-TCz/TCz-3PA-TCz_gas_S0_finalOpt.xtbopt.xyz --gfn 2 --spinpol --tblite --uhf 2 --ohess vtight --parallel 40 --molden --ceasefiles --namespace data2507/gas/TCz-3PA-TCz/TCz-3PA-TCz_gas_T1_preOpt
 * total energy  :  -191.0345893 Eh     change       -0.1087199E-07 Eh
 * total energy  :  -191.0374431 Eh     change       -0.2853809E-02 Eh
 * total energy  :  -191.0381547 Eh     change       -0.7115793E-03 Eh
 * total energy  :  -191.0383587 Eh     change       -0.2040161E-03 Eh
 * total energy  :  -191.0384759 Eh     change       -0.1172064E-03 Eh
 * total energy  :  -191.0385029 Eh     change       -0.2698031E-04 Eh
 * total energy  :  -191.0385247 Eh     change       -0.2185096E-04 Eh
 * total energy  :  -191.0385427 Eh     change       -0.1797643E-04 Eh
 * total energy  :  -191.0385575 Eh     change       -0.1478746E-04 Eh
 * total energy  :  -191.0385675 Eh     change       -0.1004656E-04 Eh
 * total energy  :  -191.0387736 Eh     change       -0.1750056E-05 Eh
 * total energy  :  -191.0387752 Eh     change       -0.1641655E-05 Eh
 * total energy  :  -191.0387770 Eh     change       -0.1785663E-05 Eh
 * total energy  :  -191.0387784 Eh     change       -0.1381556E-05 Eh
 * total energy  :  -191.0387796 Eh     change       -0.1163851E-05 Eh
 * total energy  :  -191.0387805 Eh     change       -0.9880756E-06 Eh
 * total energy  :  -191.0387814 Eh     change       -0.8814496E-06 Eh
 * total energy  :  -191.0387823 Eh     change       -0.8469956E-06 Eh
 * total energy  :  -191.0387823 Eh     change       -0.5946731E-07 Eh
   *** GEOMETRY OPTIMIZATION CONVERGED AFTER 94 ITERATIONS ***

 final structure:
================
138
 xtb: 6.7.1 (edcfbbe)
C           11.35007018535280        7.16457809246192        1.90043158653355
C            9.86008537407258        7.01017295847093        2.23670267272139
C            9.10012790576937        8.16253025627292        1.57434418935452
C            9.65655122539981        7.11388467373469        3.75502096382325
C            9.38317237754024        5.64543552081097        1.76615323163223
C            8.36140583535000        5.47496502595168        0.83989288710125
C            7.95168521599419        4.21471919137944        0.44476609129068
C            8.55182970439045        3.06916896342946        0.95651718830213
C            8.11106475586266        1.72947911169313        0.54674098656757
C            9.05366679762667        0.71731518550516        0.32006346454336
C            8.68480678141585       -0.56088882021970       -0.04544119880188
C            7.33067020216149       -0.83858292323562       -0.17108668882809
C            6.36501805632451        0.17701983820081        0.02101028864251
C            6.75818879677033        1.45504919632984        0.37983114101342
C            5.08269071504604       -0.42599265312013       -0.22906821349846
C            3.78934371106548        0.05848627727285       -0.18687355680452
C            2.72437763395323       -0.81013367289637       -0.45540755400770
C            1.35332846334739       -0.38696265360683       -0.44691706386262
C            0.93192527476122        0.95072099257727       -0.47143317567382
N           -0.31563621581860        1.30294396515256       -0.47246316113492
C           -1.31852202260218        0.37166701678139       -0.44581787737379
C           -2.68919312740024        0.79601871246337       -0.45477278399197
C           -2.96680475171823        2.15239023114883       -0.74287447427616
C           -4.24760527351067        2.64573573327057       -0.79657250062478
C           -5.30003684773770        1.76839752428466       -0.55717230184388
C           -5.04756696791858        0.41795153511893       -0.21850304449566
C           -3.75489685807649       -0.06849371618846       -0.17596948525562
C           -6.33027049090005       -0.17896301146120        0.04469489858437
C           -6.72531063725084       -1.45123188606573        0.42134751461527
C           -8.07913155299508       -1.72322805124281        0.58595486013196
C           -8.52315227040476       -3.05748027327771        1.00996271684242
C           -7.82762210388770       -3.76563344532604        1.98448389220413
C           -8.24905182322715       -5.01551282277758        2.39929746120703
C           -9.37938888102378       -5.61388940322410        1.85594420455835
C           -9.88259347646797       -6.98286602955270        2.28497420758639
C          -11.30840878403574       -6.84072991420469        2.83647963242919
C           -9.88669791167587       -7.91958793701584        1.06861648867432
C           -9.01234909636207       -7.61810562652532        3.37284055009007
C          -10.06811537802117       -4.90403340729977        0.87465283563726
C           -9.65504359057093       -3.65459864246912        0.46039278005590
C           -9.02006099246202       -0.71245738987409        0.34717386799147
C           -8.64869268337917        0.56363911250766       -0.02332894509837
C           -7.29430386577337        0.83694218364301       -0.15457303808619
N           -6.65913433477061        2.00561958213273       -0.51919040226051
C           -7.28521150899563        3.22002196470865       -0.82651358927573
C           -6.96373641531941        3.90364901318873       -1.99285969917087
C           -7.58230965645027        5.10296796440358       -2.29458285399185
C           -8.54304926856631        5.65464880945489       -1.45512475286574
C           -9.25269232389810        6.96493348769598       -1.75573582483735
C          -10.76227186595500        6.70323767482173       -1.85530142736903
C           -8.79049858694998        7.59824244214339       -3.07079350664345
C           -8.97047889814315        7.95957084005559       -0.62075147102850
C           -8.85488643441838        4.95623246460974       -0.29014660358129
C           -8.23894262576841        3.76350635613652        0.02858252004006
C           -0.89723398430759       -0.96619642627446       -0.46064718934070
N            0.35041651037937       -1.31838617615913       -0.46292374693256
C            3.00369094441249       -2.16846432669472       -0.73222859476172
C            4.28533316710874       -2.65992631356737       -0.78551234096696
C            5.33698449913109       -1.77857585708485       -0.55747303912473
N            6.69696103544854       -2.01214144972442       -0.52244704347335
C            7.32429911209407       -3.22852838787738       -0.81885399294715
C            8.28262220171452       -3.76069133148403        0.03490024261336
C            8.90295255907564       -4.95876605314770       -0.26942117286694
C            8.58495455375288       -5.66835334881621       -1.42149403986530
C            9.24021503241681       -6.98965366723046       -1.78971410034706
C           10.28008017850598       -7.44004904649206       -0.76024157040199
C            9.94427802670661       -6.83828074029489       -3.14573977434163
C            8.15816012552333       -8.07474328398097       -1.88350563519515
C            7.61675285550527       -5.12453080034373       -2.26359852021520
C            6.99677157633366       -3.92588463257192       -1.97783640105891
C            9.58034061927598        3.23538302298763        1.88099885273508
C            9.98132911334416        4.49490605030741        2.27561617176552
H           11.94949240984017        6.40780087530136        2.39878226396531
H           11.50482743468364        7.06975650171605        0.82752099673431
H           11.70638061083257        8.14315098140497        2.21583581158072
H            9.23174189251036        8.14887455116627        0.49480630627277
H            8.03842294318203        8.11509157684000        1.80534630509282
H            9.48257933584406        9.11076482734868        1.94722780445549
H           10.22721623744884        6.35573339039246        4.28412363567596
H            8.60511139688037        6.98316098588278        4.00286600404758
H            9.97652838970827        8.09120167193485        4.11068704764009
H            7.86539806803439        6.32857730773204        0.40667564499021
H            7.16495649520152        4.12054645663296       -0.29013878678266
H           10.10335939855027        0.95422832572670        0.41280891555064
H            9.43145283100503       -1.31654855606364       -0.23818050726906
H            6.01964773647055        2.22363935866880        0.55111065810502
H            3.61456497612703        1.09069622437312        0.07431079964183
H            1.66474228576767        1.74313778236874       -0.50838160553098
H           -2.12771615037093        2.80639918026359       -0.92365580625968
H           -4.42827165007433        3.68967571091534       -1.00512958176659
H           -3.58102088162329       -1.09920471253116        0.09175598804015
H           -5.99079802764176       -2.22950382205242        0.56419290369294
H           -6.95538567767292       -3.32223729989615        2.44332497636029
H           -7.67672492845411       -5.51579605305824        3.16380241264755
H          -11.98827861819800       -6.45363358376730        2.08259955065482
H          -11.31669384335264       -6.15927044822382        3.68480700703864
H          -11.68123085911443       -7.80816628821323        3.16677900444073
H           -8.88223581034861       -8.00873680185652        0.65980499445217
H          -10.23074637712100       -8.91017073541051        1.35915258433642
H          -10.54112358144801       -7.54858934111969        0.28473667352319
H           -8.99653428624119       -7.00343879729069        4.26997125432849
H           -9.41914103790878       -8.59153181903779        3.64008140891224
H           -7.99320930391869       -7.76518211244664        3.02276035401994
H          -10.94864644316804       -5.33069865889610        0.41717767030359
H          -10.20584944057928       -3.14204246048922       -0.31530546576972
H          -10.06848803172653       -0.93573666216072        0.47897453962030
H           -9.39383295013553        1.32227463087599       -0.20989167339536
H           -6.23705210120382        3.48403377513081       -2.67269767016820
H           -7.30353405717961        5.59806126797432       -3.21021701381608
H          -11.15981944491585        6.31214650092953       -0.92293463499409
H          -11.28766036598780        7.62692855843801       -2.08824765199622
H          -10.96747191364096        5.98133192529563       -2.64316949505674
H           -7.72767689248717        7.82711026862498       -3.04322860400874
H           -8.99354279301336        6.94252828975468       -3.91435667621726
H           -9.32962472020815        8.52939372562359       -3.23293039200992
H           -7.89997270019302        8.13082201200908       -0.52839558034347
H           -9.45560756420949        8.91099558610687       -0.82801789247709
H           -9.33960137352058        7.59062816273512        0.33205244106113
H           -9.58988473223125        5.34977081248978        0.39560174754124
H           -8.48178446643712        3.25500724016427        0.94977083245093
H           -1.63021090051353       -1.75881641550933       -0.49009104753004
H            2.16536129523613       -2.82564618044483       -0.90488643685468
H            4.46694811068733       -3.70534495748846       -0.98564332262254
H            8.52997993842097       -3.24120112704155        0.94876947796388
H            9.63975493728898       -5.33502020830477        0.42114645696024
H            9.82555710436081       -7.58964341722708        0.21637050653783
H           10.71515284280860       -8.38617970660545       -1.07573962107019
H           11.08499748292141       -6.71390408393156       -0.67291977515444
H           10.69608577293417       -6.05342996262602       -3.09369878265935
H           10.43604600621420       -7.76974212308873       -3.41789183032144
H            9.24023909066411       -6.58345858219189       -3.93287657138792
H            7.42430863851666       -7.83855293333689       -2.64897130801762
H            7.63940891330571       -8.17162724398050       -0.93196873628234
H            8.60985506579140       -9.03336238717791       -2.12955914640094
H            7.33964980849042       -5.63831618822682       -3.17161482046820
H            6.26632564682122       -3.51484099370291       -2.65875832633531
H           10.05501864530366        2.36580698517673        2.31268816165435
H           10.77728560535606        4.57581087606037        3.00124477519741

 projected vibrational frequencies (cm⁻¹)
eigval :       -0.00    -0.00    -0.00     0.00     0.00     0.00
eigval :        2.50     6.69     7.95    15.47    17.15    17.60
eigval :       21.05    21.55    21.96    24.75    25.10    30.52
eigval :       31.01    40.52    42.65    49.88    56.67    59.38
eigval :       62.93    69.70    75.44    77.96    86.10    93.85
eigval :       95.34    99.07   106.49   115.77   122.50   124.33
eigval :      138.09   145.28   155.89   161.30   167.57   169.21
eigval :      171.92   174.93   183.34   186.50   192.78   207.24
eigval :      212.39   214.53   219.44   219.84   224.71   229.21
eigval :      232.83   238.30   245.65   250.14   257.31   260.46
eigval :      264.55   289.94   296.70   299.27   300.81   311.23
eigval :      314.04   314.29   315.41   316.04   316.57   324.30
eigval :      332.48   338.78   349.76   351.61   356.35   363.44
eigval :      364.98   367.14   372.69   375.65   378.20   380.12
eigval :      384.13   385.18   385.85   391.06   392.54   396.01
eigval :      401.84   408.36   412.98   420.30   425.31   428.96
eigval :      434.42   440.99   449.20   449.54   453.77   460.56
eigval :      462.12   465.54   468.79   477.33   486.28   499.14
eigval :      530.15   533.52   535.70   540.23   547.23   554.01
eigval :      556.50   567.39   570.95   576.32   577.60   586.61
eigval :      588.88   602.81   604.07   607.12   607.65   608.02
eigval :      621.83   623.28   624.74   627.01   632.37   672.15
eigval :      673.88   674.38   683.85   693.19   696.33   699.35
eigval :      700.74   702.34   704.06   705.02   727.44   728.56
eigval :      750.73   753.89   758.92   771.33   803.85   805.62
eigval :      806.54   807.82   808.75   818.90   819.29   830.67
eigval :      831.43   839.91   841.39   850.93   866.43   869.57
eigval :      869.84   873.22   873.43   878.19   879.39   880.82
eigval :      881.13   884.59   891.63   901.95   902.90   906.35
eigval :      908.03   909.82   910.39   917.05   917.52   922.81
eigval :      923.60   928.76   929.99   931.32   933.66   933.79
eigval :      940.30   940.57   960.28   960.38   960.42   960.47
eigval :      962.44   962.51   962.77   962.77   962.78   962.86
eigval :      963.22   963.29   996.39   997.10  1016.85  1017.27
eigval :     1027.68  1029.79  1034.82  1034.88  1035.18  1035.23
eigval :     1035.25  1035.28  1035.33  1035.41  1046.69  1053.92
eigval :     1079.27  1079.48  1107.28  1131.50  1141.01  1142.58
eigval :     1144.15  1146.09  1146.50  1148.16  1148.96  1152.14
eigval :     1155.20  1157.80  1159.67  1185.47  1185.78  1201.49
eigval :     1211.23  1212.37  1218.02  1218.78  1219.97  1223.97
eigval :     1227.56  1227.60  1227.64  1227.72  1231.76  1232.60
eigval :     1233.95  1234.01  1234.31  1234.38  1244.38  1244.88
eigval :     1260.25  1263.21  1275.55  1276.95  1283.25  1283.75
eigval :     1284.79  1285.29  1288.32  1290.27  1290.98  1292.70
eigval :     1309.74  1310.20  1318.72  1318.73  1322.30  1322.35
eigval :     1338.56  1338.78  1344.47  1345.52  1352.88  1353.99
eigval :     1379.90  1382.56  1396.99  1397.07  1400.17  1400.25
eigval :     1405.02  1405.17  1405.48  1405.55  1407.85  1407.97
eigval :     1410.63  1410.75  1415.58  1418.93  1427.14  1427.45
eigval :     1427.54  1427.70  1427.90  1428.00  1449.46  1453.72
eigval :     1464.89  1468.46  1472.16  1477.37  1490.89  1490.98
eigval :     1491.39  1491.42  1492.16  1492.30  1493.13  1493.27
eigval :     1494.03  1494.19  1497.58  1497.70  1502.39  1502.47
eigval :     1503.60  1503.71  1506.42  1506.51  1510.98  1511.03
eigval :     1513.73  1513.79  1513.93  1514.12  1518.70  1518.83
eigval :     1519.59  1519.69  1535.52  1536.68  1563.31  1563.35
eigval :     1567.63  1567.71  1573.18  1573.27  1582.27  1582.88
eigval :     1595.51  1596.79  1601.57  1601.72  1609.99  1610.19
eigval :     3020.33  3020.35  3021.64  3021.72  3023.34  3023.41
eigval :     3025.03  3025.13  3026.41  3026.84  3027.56  3027.77
eigval :     3028.84  3028.92  3030.24  3030.79  3030.93  3031.33
eigval :     3031.81  3032.18  3035.13  3035.44  3036.19  3036.47
eigval :     3037.10  3037.72  3038.81  3039.28  3045.79  3045.95
eigval :     3046.77  3046.86  3049.12  3049.17  3050.39  3050.52
eigval :     3062.51  3063.28  3069.74  3069.75  3073.61  3073.73
eigval :     3078.85  3079.30  3080.39  3080.65  3081.96  3082.67
eigval :     3083.31  3083.39  3085.97  3086.34  3086.94  3086.98
eigval :     3089.88  3090.23  3090.97  3091.41  3093.87  3094.00
eigval :     3099.11  3099.24  3108.05  3108.28  3115.32  3115.93

   temp. (K)  partition function   enthalpy   heat capacity  entropy
                                   cal/mol     cal/K/mol   cal/K/mol   J/K/mol
 298.15  VIB  0.530E+34            40561.590    246.211    255.447
         ROT  0.750E+09              888.752      2.981     43.591
         INT  0.398E+43            41450.342    249.192    299.038
         TR   0.279E+29             1481.254      4.968     46.374
         TOT                       42931.5960   254.1599   345.4117  1445.2025

       T/K    H(0)-H(T)+PV         H(T)/Eh          T*S/Eh         G(T)/Eh
   ------------------------------------------------------------------------
    298.15    0.684159E-01    0.119978E+01    0.164116E+00    0.103566E+01
   ------------------------------------------------------------------------

         :::::::::::::::::::::::::::::::::::::::::::::::::::::
         ::                  THERMODYNAMIC                  ::
         :::::::::::::::::::::::::::::::::::::::::::::::::::::
         :: total free energy        -190.003120233921 Eh   ::
         ::.................................................::
         :: total energy             -191.038782334722 Eh   ::
         :: zero point energy           1.131362489745 Eh   ::
         :: G(RRHO) w/o ZPVE           -0.095700388944 Eh   ::
         :: G(RRHO) contrib.            1.035662100801 Eh   ::
         :::::::::::::::::::::::::::::::::::::::::::::::::::::

           -------------------------------------------------
          | TOTAL ENERGY             -191.038782334722 Eh   |
          | TOTAL ENTHALPY           -189.839003991846 Eh   |
          | TOTAL FREE ENERGY        -190.003120233921 Eh   |
          | GRADIENT NORM               0.000083251841 Eh/α |
           -------------------------------------------------

 * finished run on 2025/09/05 at 02:36:54.550
