   * xtb version 6.7.1 (edcfbbe) compiled by 'albert@albert-system' on 2024-07-22

   ID    Z sym.   atoms
    1    6 C      1-6, 8-13, 15-20, 22-26, 28-33, 35-42, 44-46
    2    8 O      7, 34
    3    7 N      14, 21, 27, 43
    4    1 H      47-72

          program call               : xtb data2507/toluene/PxPYM/PxPYM_toluene_T1_crest.xyz --gfn 2 --uhf 2 --gbsa toluene --ohess vtight --parallel 40 --molden --ceasefiles --namespace data2507/toluene/PxPYM/PxPYM_toluene_T1_finalOpt
      * Solvation model:               GBSA
        Solvent                        toluene
        Solvent mass                       9.2140E+01 g/mol
          :  Hamiltonian                  GFN2-xTB          :
 * total energy  :  -118.7699382 Eh     change       -0.1119730E-08 Eh
 * total energy  :  -118.7700094 Eh     change       -0.7119575E-04 Eh
 * total energy  :  -118.7700359 Eh     change       -0.2651557E-04 Eh
 * total energy  :  -118.7700407 Eh     change       -0.4807581E-05 Eh
 * total energy  :  -118.7700454 Eh     change       -0.4761151E-05 Eh
 * total energy  :  -118.7700507 Eh     change       -0.5300241E-05 Eh
 * total energy  :  -118.7700567 Eh     change       -0.6008086E-05 Eh
 * total energy  :  -118.7700622 Eh     change       -0.5455819E-05 Eh
 * total energy  :  -118.7700671 Eh     change       -0.4868792E-05 Eh
 * total energy  :  -118.7700723 Eh     change       -0.5261923E-05 Eh
 * total energy  :  -118.7700994 Eh     change       -0.4274624E-06 Eh
 * total energy  :  -118.7700997 Eh     change       -0.2925859E-06 Eh
 * total energy  :  -118.7700999 Eh     change       -0.1966331E-06 Eh
 * total energy  :  -118.7701001 Eh     change       -0.1997344E-06 Eh
 * total energy  :  -118.7701003 Eh     change       -0.2001239E-06 Eh
 * total energy  :  -118.7701004 Eh     change       -0.1699789E-06 Eh
 * total energy  :  -118.7701006 Eh     change       -0.1266823E-06 Eh
 * total energy  :  -118.7701007 Eh     change       -0.1401059E-06 Eh
 * total energy  :  -118.7701007 Eh     change       -0.9399912E-09 Eh
   *** GEOMETRY OPTIMIZATION CONVERGED AFTER 44 ITERATIONS ***

 final structure:
================
72
 xtb: 6.7.1 (edcfbbe)
C            9.15209153929812        3.54177696902593        0.77022850744750
C            7.76800068196156        3.54667991720660        0.78337799239873
C            7.05943268887830        2.38452196863497        0.53367808412955
C            7.72511969964029        1.19235484481037        0.25731069691313
C            9.13025731779450        1.19375959018520        0.26990317473193
C            9.83221727872349        2.36055557152806        0.51944369670767
O            9.86292644683634        0.05605852021752        0.05329504369575
C            9.17729117991783       -1.10632895097763       -0.18502992348822
C            9.92643864105814       -2.24956580729150       -0.40452455542520
C            9.29568347655779       -3.45374294361134       -0.67454330056296
C            7.91386380292740       -3.50536728541874       -0.73714143862448
C            7.15830510572219       -2.36704748623062       -0.51725528143340
C            7.77337962930699       -1.15230815489943       -0.22253804542112
N            7.04574638673030        0.00839723646934        0.00321767921528
C            5.62893384654579       -0.01638671066112       -0.01659408635389
C            4.92348305923960        0.63383293102383       -1.03122147240122
C            3.55099261055505        0.61301801211340       -1.04601870760650
C            2.80990738521260       -0.05569577474860       -0.04686073218685
C            1.37944218908514       -0.06719247252794       -0.05532215441099
C            0.58363885682059        0.20122022545526       -1.20292572692150
N           -0.71108247174117        0.19684915474522       -1.20701770988574
C           -1.39186911029490       -0.06932980283102       -0.06192334343324
C           -2.81151904034725       -0.05980229914822       -0.05882681159301
C           -3.53470279076419       -0.33540246113584        1.12248063368543
C           -4.90548764768801       -0.31771635168707        1.12964650386046
C           -5.61174402138168       -0.02453488005979       -0.04142961603277
N           -7.03096682012181        0.00223598512560       -0.02601798951773
C           -7.75277125670422       -1.17023439807782        0.13462623498337
C           -7.13240605905642       -2.41594091258634        0.21442667821933
C           -7.88246621336820       -3.56633723375817        0.37886297409444
C           -9.26364011376138       -3.49954565382950        0.46087702882800
C           -9.90001290246499       -2.27258747327193        0.36359216859189
C           -9.15646220224157       -1.11637190998118        0.19656787582445
O           -9.84436389985441        0.06224328194228        0.08608312067587
C           -9.11776555684710        1.20997071228166       -0.08578274506459
C           -9.82328340829644        2.39662686273564       -0.19483628561421
C           -9.14630192527494        3.59548013192408       -0.34998971602924
C           -7.76164116559046        3.60344563298984       -0.38424032195634
C           -7.04936964484491        2.42266701263945       -0.27581111765920
C           -7.71258441326591        1.20443172049442       -0.13781670428995
C           -4.91336425055416        0.24630724773655       -1.22215129846818
C           -3.54200815178256        0.22866289895739       -1.23238070181586
N           -0.71555656558387       -0.34136712637895        1.08478344583835
C            0.57876895380473       -0.34391394228385        1.08691098041369
C            3.54804264927808       -0.70858023760621        0.96493456819059
C            4.92030692670267       -0.69038396988042        0.98014109376248
H            9.70527675162512        4.44734306597348        0.96226559712787
H            7.22949546959370        4.45805551162315        0.99225991079512
H            5.98132590025901        2.39207369357576        0.55674853201019
H           10.90992760420840        2.31995777037868        0.51688580966632
H           11.00138423012224       -2.17285202932729       -0.36323501641365
H            9.88549093905662       -4.34075147623525       -0.84283897995421
H            7.41416947256718       -4.43511502927299       -0.96114067516248
H            6.08248709722607       -2.41042045695154       -0.57778293033375
H            5.46981133617248        1.15198417346227       -1.80670206129362
H            3.02901485539858        1.13289903222113       -1.83499340975923
H            1.04880878359373        0.38536037478377       -2.16480524133671
H           -2.97872681385152       -0.55152297348014        2.02175438249056
H           -5.45342249609545       -0.52120035876062        2.03899248246719
H           -6.05793256992088       -2.47149823824708        0.14266004033366
H           -7.38040379254657       -4.51939592329523        0.44049390451197
H           -9.84802589381175       -4.39627617950850        0.59252721512418
H          -10.97416256476598       -2.18882850881678        0.41079131409041
H          -10.90017592069370        2.35802969839345       -0.15166104638570
H           -9.70134260305604        4.51609767359490       -0.43577638665508
H           -7.22663037238960        4.53410273524032       -0.49284502262697
H           -5.97125462429546        2.43437425659143       -0.29187810543780
H           -5.46719781241178        0.46232915542705       -2.12495716556497
H           -2.99223619157066        0.43033166298680       -2.13884966666367
H            1.03907425693071       -0.53257420593513        2.05017982729396
H            3.02436940713496       -1.24504418839566        1.74152131580178
H            5.46381660324835       -1.19385907878105        1.76716529826241

          :  Hamiltonian                  GFN2-xTB          :
         :: gradient norm              0.000050809824 Eh/a0 ::
         :: HOMO-LUMO gap              0.706208959172 eV    ::
         :: SCC energy              -120.812950540336 Eh    ::
         :: -> dispersion             -0.097125980208 Eh    ::
         :: -> Gsolv                  -0.051893639489 Eh    ::
         :: repulsion energy           2.042849836748 Eh    ::

    * Orbital Energies and Occupations

         #    Occupation            Energy/Eh            Energy/eV
      -------------------------------------------------------------
         1        2.0000           -0.7448726             -20.2690
       ...           ...                  ...                  ...
        98        2.0000           -0.4225385             -11.4979
        99        2.0000           -0.4181380             -11.3781
       100        2.0000           -0.4091465             -11.1334
       101        2.0000           -0.4051536             -11.0248
       102        2.0000           -0.4022872             -10.9468
       103        2.0000           -0.4008898             -10.9088
       104        2.0000           -0.3990336             -10.8583
       105        2.0000           -0.3976524             -10.8207
       106        2.0000           -0.3739049             -10.1745
       107        1.9549           -0.3535893              -9.6217
       108        1.8051           -0.3520357              -9.5794
       109        1.2400           -0.3495930              -9.5129
       110        1.0000           -0.2760169              -7.5108 (HOMO)
       111        0.0000           -0.2500640              -6.8046 (LUMO)
       112        0.0000           -0.2499410              -6.8012
       113                         -0.2439441              -6.6381
       114                         -0.2394624              -6.5161
       115                         -0.2387575              -6.4969
       116                         -0.2343614              -6.3773
       117                         -0.2248476              -6.1184
       118                         -0.2238816              -6.0921
       119                         -0.2229518              -6.0668
       120                         -0.2160254              -5.8783
       121                         -0.2066860              -5.6242
       ...                                ...                  ...
       210                          0.6869408              18.6926
      -------------------------------------------------------------
                  HL-Gap            0.0259529 Eh            0.7062 eV

     #   Z          covCN         q      C6AA      α(0)
     1   6 C        2.919    -0.035    28.865     8.810
     2   6 C        2.918    -0.034    28.842     8.807
     3   6 C        2.922    -0.054    29.341     8.883
     4   6 C        2.925     0.046    26.972     8.517
     5   6 C        2.884     0.126    25.227     8.234
     6   6 C        2.918    -0.055    29.361     8.886
     7   8 O        1.709    -0.248    18.101     5.744
     8   6 C        2.884     0.126    25.227     8.234
     9   6 C        2.918    -0.055    29.361     8.886
    10   6 C        2.919    -0.035    28.865     8.810
    11   6 C        2.918    -0.034    28.842     8.807
    12   6 C        2.922    -0.054    29.341     8.883
    13   6 C        2.925     0.046    26.972     8.517
    14   7 N        2.751    -0.043    22.072     6.978
    15   6 C        2.922     0.038    27.160     8.546
    16   6 C        2.915    -0.042    29.049     8.838
    17   6 C        2.923    -0.045    29.115     8.849
    18   6 C        2.967    -0.005    28.134     8.700
    19   6 C        2.962    -0.049    29.206     8.864
    20   6 C        2.904     0.069    26.447     8.432
    21   7 N        1.837    -0.260    27.612     7.787
    22   6 C        2.926     0.140    24.951     8.192
    23   6 C        2.976    -0.013    28.326     8.730
    24   6 C        2.922    -0.043    29.076     8.843
    25   6 C        2.915    -0.042    29.055     8.839
    26   6 C        2.922     0.033    27.256     8.561
    27   7 N        2.751    -0.035    21.910     6.952
    28   6 C        2.925     0.047    26.956     8.514
    29   6 C        2.921    -0.052    29.298     8.876
    30   6 C        2.918    -0.032    28.810     8.802
    31   6 C        2.919    -0.033    28.834     8.806
    32   6 C        2.917    -0.054    29.346     8.883
    33   6 C        2.884     0.127    25.206     8.231
    34   8 O        1.709    -0.242    18.005     5.729
    35   6 C        2.884     0.127    25.205     8.231
    36   6 C        2.917    -0.054    29.345     8.883
    37   6 C        2.919    -0.033    28.833     8.805
    38   6 C        2.918    -0.032    28.810     8.802
    39   6 C        2.921    -0.052    29.304     8.877
    40   6 C        2.925     0.047    26.955     8.514
    41   6 C        2.915    -0.043    29.058     8.839
    42   6 C        2.922    -0.043    29.078     8.843
    43   7 N        1.837    -0.260    27.611     7.787
    44   6 C        2.904     0.069    26.446     8.432
    45   6 C        2.923    -0.045    29.117     8.849
    46   6 C        2.915    -0.042    29.049     8.838
    47   1 H        0.926     0.051     2.302     2.372
    48   1 H        0.926     0.049     2.330     2.387
    49   1 H        0.926     0.048     2.346     2.395
    50   1 H        0.926     0.057     2.234     2.337
    51   1 H        0.926     0.057     2.234     2.337
    52   1 H        0.926     0.051     2.302     2.373
    53   1 H        0.926     0.049     2.330     2.387
    54   1 H        0.926     0.048     2.345     2.395
    55   1 H        0.926     0.033     2.550     2.497
    56   1 H        0.926     0.027     2.632     2.537
    57   1 H        0.925     0.027     2.636     2.539
    58   1 H        0.926     0.040     2.449     2.447
    59   1 H        0.926     0.032     2.554     2.499
    60   1 H        0.926     0.051     2.306     2.375
    61   1 H        0.926     0.051     2.307     2.375
    62   1 H        0.926     0.053     2.281     2.362
    63   1 H        0.926     0.059     2.213     2.326
    64   1 H        0.926     0.059     2.212     2.326
    65   1 H        0.926     0.053     2.281     2.362
    66   1 H        0.926     0.051     2.307     2.375
    67   1 H        0.926     0.051     2.303     2.373
    68   1 H        0.926     0.033     2.541     2.493
    69   1 H        0.926     0.040     2.453     2.449
    70   1 H        0.925     0.027     2.634     2.538
    71   1 H        0.926     0.027     2.632     2.537
    72   1 H        0.926     0.032     2.552     2.498

molecular dipole:
                 x           y           z       tot (Debye)
 q only:       -0.305       0.046       0.031
   full:        0.146       0.044       0.035       0.398

 projected vibrational frequencies (cm⁻¹)
eigval :       -0.00    -0.00    -0.00     0.00     0.00     0.00
eigval :        5.52     6.74    16.16    22.46    29.00    34.56
eigval :       41.92    45.48    56.32    60.99    70.36    85.63
eigval :       91.48    99.73   112.02   113.13   119.99   149.38
eigval :      173.37   190.92   207.89   231.68   238.03   245.84
eigval :      248.08   270.67   276.04   280.29   296.36   346.17
eigval :      353.71   366.60   375.21   376.77   377.29   389.89
eigval :      398.44   403.66   405.78   412.75   425.84   430.09
eigval :      431.17   435.40   446.26   461.37   470.71   473.21
eigval :      480.47   493.07   501.11   502.12   525.94   527.79
eigval :      542.61   544.83   562.15   583.95   584.54   600.65
eigval :      603.60   607.12   621.37   626.81   653.41   661.28
eigval :      663.49   664.51   665.82   667.21   668.75   680.88
eigval :      681.06   716.92   762.06   775.40   775.97   777.06
eigval :      777.47   790.94   797.29   801.20   801.92   818.64
eigval :      836.87   847.74   853.60   854.06   858.87   865.09
eigval :      865.95   866.12   867.63   896.67   898.84   899.65
eigval :      899.94   900.81   902.82   903.50   909.10   911.58
eigval :      913.18   914.00   914.08   916.01   916.60   917.00
eigval :      917.31   949.92   992.48   998.11  1048.16  1071.71
eigval :     1082.40  1083.79  1085.04  1085.24  1109.30  1110.48
eigval :     1114.82  1117.20  1118.22  1129.92  1151.94  1163.36
eigval :     1167.62  1170.75  1170.99  1172.86  1178.45  1184.46
eigval :     1193.48  1201.74  1203.64  1209.52  1212.37  1222.58
eigval :     1235.77  1236.26  1251.95  1252.85  1253.95  1265.51
eigval :     1283.72  1290.54  1300.14  1306.45  1307.27  1307.96
eigval :     1315.13  1315.79  1325.72  1331.41  1340.06  1345.90
eigval :     1372.52  1384.14  1415.34  1415.66  1420.64  1422.66
eigval :     1438.68  1439.67  1443.58  1449.72  1456.56  1459.89
eigval :     1469.33  1475.37  1485.92  1486.62  1494.62  1553.85
eigval :     1555.07  1557.38  1562.82  1565.27  1569.71  1573.23
eigval :     1578.02  1581.99  1585.68  1595.35  3013.31  3017.95
eigval :     3068.84  3069.25  3070.97  3071.17  3086.65  3090.24
eigval :     3091.07  3092.36  3092.62  3093.65  3094.43  3096.62
eigval :     3099.88  3100.37  3100.85  3101.28  3108.54  3108.99
eigval :     3109.67  3110.11  3112.32  3112.52  3113.23  3113.55

   temp. (K)  partition function   enthalpy   heat capacity  entropy
                                   cal/mol     cal/K/mol   cal/K/mol   J/K/mol
 298.15  VIB  0.843E+17            20890.770    133.290    130.523
         ROT  0.115E+09              888.752      2.981     39.872
         INT  0.973E+25            21779.522    136.271    170.395
         TR   0.140E+29             1481.254      4.968     45.012
         TOT                       23260.7762   141.2388   215.4070   901.2629

       T/K    H(0)-H(T)+PV         H(T)/Eh          T*S/Eh         G(T)/Eh
   ------------------------------------------------------------------------
    298.15    0.370684E-01    0.573516E+00    0.102347E+00    0.471169E+00
   ------------------------------------------------------------------------

         :::::::::::::::::::::::::::::::::::::::::::::::::::::
         ::                  THERMODYNAMIC                  ::
         :::::::::::::::::::::::::::::::::::::::::::::::::::::
         :: total free energy        -118.298931326991 Eh   ::
         ::.................................................::
         :: total energy             -118.770100703991 Eh   ::
         :: zero point energy           0.536447785833 Eh   ::
         :: G(RRHO) w/o ZPVE           -0.065278408832 Eh   ::
         :: G(RRHO) contrib.            0.471169377001 Eh   ::
         :::::::::::::::::::::::::::::::::::::::::::::::::::::

           -------------------------------------------------
          | TOTAL ENERGY             -118.770100703991 Eh   |
          | TOTAL ENTHALPY           -118.196584511830 Eh   |
          | TOTAL FREE ENERGY        -118.298931326991 Eh   |
          | GRADIENT NORM               0.000049826481 Eh/α |
          | HOMO-LUMO GAP               0.706214228511 eV   |
           -------------------------------------------------

 * finished run on 2025/09/04 at 22:30:27.963
