   * xtb version 6.7.1 (edcfbbe) compiled by 'albert@albert-system' on 2024-07-22

   ID    Z sym.   atoms
    1    6 C      1-6, 8-13, 15-20, 22-26, 28-33, 35-42, 44-46
    2    8 O      7, 34
    3    7 N      14, 21, 27, 43
    4    1 H      47-72

          program call               : xtb data2507/toluene/PxPYM/PxPYM.xyz --gfn 2 --gbsa toluene --ohess vtight --parallel 40 --molden --ceasefiles --namespace data2507/toluene/PxPYM/PxPYM_toluene_S0_preOpt
      * Solvation model:               GBSA
        Solvent                        toluene
        Solvent mass                       9.2140E+01 g/mol
          :  Hamiltonian                  GFN2-xTB          :
 * total energy  :  -118.8171473 Eh     change       -0.5066696E-08 Eh
 * total energy  :  -118.8282176 Eh     change       -0.1107029E-01 Eh
 * total energy  :  -118.8317797 Eh     change       -0.3562067E-02 Eh
 * total energy  :  -118.8331818 Eh     change       -0.1402084E-02 Eh
 * total energy  :  -118.8341702 Eh     change       -0.9883861E-03 Eh
 * total energy  :  -118.8348678 Eh     change       -0.6976067E-03 Eh
 * total energy  :  -118.8353401 Eh     change       -0.4723677E-03 Eh
 * total energy  :  -118.8356467 Eh     change       -0.3065926E-03 Eh
 * total energy  :  -118.8358247 Eh     change       -0.1779814E-03 Eh
 * total energy  :  -118.8359384 Eh     change       -0.1137221E-03 Eh
 * total energy  :  -118.8374963 Eh     change       -0.2971195E-06 Eh
 * total energy  :  -118.8374966 Eh     change       -0.3237491E-06 Eh
 * total energy  :  -118.8374970 Eh     change       -0.3356026E-06 Eh
 * total energy  :  -118.8374973 Eh     change       -0.3003469E-06 Eh
 * total energy  :  -118.8374975 Eh     change       -0.2751893E-06 Eh
 * total energy  :  -118.8374978 Eh     change       -0.2426853E-06 Eh
 * total energy  :  -118.8374980 Eh     change       -0.2186340E-06 Eh
 * total energy  :  -118.8374982 Eh     change       -0.1971886E-06 Eh
 * total energy  :  -118.8374982 Eh     change       -0.1840633E-08 Eh
   *** GEOMETRY OPTIMIZATION CONVERGED AFTER 94 ITERATIONS ***

 final structure:
================
72
 xtb: 6.7.1 (edcfbbe)
C            9.18158746852683       -3.47860109913739       -0.83102175308614
C            7.80268147657162       -3.50631514494514       -0.88319965230631
C            7.06716198944845       -2.36158656117291       -0.61441549484091
C            7.69875717914525       -1.17031197425123       -0.27770281112680
C            9.09998863272750       -1.14552486879073       -0.26111256272155
C            9.82920247378900       -2.28930561437516       -0.52782718516540
O            9.81522814179002        0.00068567322348        0.00039401946221
C            9.09949579077869        1.14661413597586        0.26178799283338
C            9.82821530910305        2.29067270168406        0.52866220144847
C            9.18008200068591        3.47971333487615        0.83174888827319
C            7.80115529261934        3.50689351205057        0.88365702180148
C            7.06613108015712        2.36188384407630        0.61471825395060
C            7.69825231875680        1.17085880606346        0.27810984600890
N            6.98812959549758        0.00013880195198        0.00013922120539
C            5.57549199693326       -0.00012394281245       -0.00002047809082
C            4.87319975749960       -0.77075083570603        0.92276255240840
C            3.49290240358010       -0.77092398970323        0.92031080434370
C            2.78188710479567       -0.00059681797578       -0.00027948468621
C            1.31994361811128       -0.00084752018206       -0.00043831173417
C            0.56082535063032        0.06415307260373       -1.17347167904426
N           -0.75478884252661        0.07135907941764       -1.17690049335507
C           -1.38147708248932       -0.00104397652714       -0.00063020365990
C           -2.84155698080442       -0.00098944811141       -0.00068026164720
C           -3.54719993090141        0.07554234500898       -1.20264722557146
C           -4.92613963755881        0.07608534164434       -1.20326775558057
C           -5.62680093433520       -0.00055313831512       -0.00065675311201
N           -7.03848968012255       -0.00016313172003       -0.00052755041062
C           -7.74887410992615        1.11182939049401       -0.46004923973732
C           -7.11589804021192        2.27495148644066       -0.88210498441414
C           -7.85109306791405        3.36306735024386       -1.32800069926032
C           -9.23033254018332        3.31253159864798       -1.35035388860478
C           -9.87893753862049        2.17017193393245       -0.90338807647608
C           -9.15008300824259        1.08405731042101       -0.45542481532678
O           -9.86563168162093        0.00118690883988        0.00139013773228
C           -9.15051070575676       -1.08244631662627        0.45705516233480
C           -9.87977050947000       -2.16793621113684        0.90587185065566
C           -9.23161753733355       -3.31096657925865        1.35178156572168
C           -7.85245901625269       -3.36282522665607        1.32746552008068
C           -7.11685701708375       -2.27533629389576        0.88071636356703
C           -7.74932903310014       -1.11154063706698        0.45976282674898
C           -4.92612859976604       -0.07750076078988        1.20192733984787
C           -3.54720337674306       -0.07738550280172        1.20129785624039
N           -0.75494194316604       -0.07344127025914        1.17572640338791
C            0.56066531288632       -0.06604548073914        1.17248659586699
C            3.49281578564686        0.76996435116214       -0.92074351152108
C            4.87311326530816        0.77026764563135       -0.92293073535734
H            9.75951221364876       -4.36648535164904       -1.03377924875073
H            7.28384817566862       -4.41842768408240       -1.13578359396516
H            5.99073359573784       -2.39414646345819       -0.67368583519882
H           10.90577892287471       -2.22693291258115       -0.49758503772465
H           10.90482145117319        2.22871660515873        0.49862669432169
H            9.75762359845635        4.36781799503553        1.03463245400103
H            7.28191754815735        4.41879949317026        1.13615329352779
H            5.98967871317070        2.39402865708997        0.67378080497363
H            5.41623123596062       -1.36741466995961        1.64077522040630
H            2.95996529140183       -1.38539209489780        1.63032763366601
H            1.03150805997839        0.09408462625696       -2.14897724702679
H           -2.99479074783044        0.12658630457779       -2.12766802615115
H           -5.47277830562831        0.12916201850907       -2.13325270245758
H           -6.03928223336335        2.33290540046227       -0.85600967897947
H           -7.33185234179813        4.25139742521009       -1.65379392592347
H           -9.80784104824472        4.15356624786855       -1.70048272759397
H          -10.95560559439951        2.10373427465394       -0.88911253325071
H          -10.95639466333435       -2.10047772891731        0.89312163447123
H           -9.80943191357321       -4.15149131747686        1.70262845558468
H           -7.33361695548900       -4.25169853552078        1.65241080864292
H           -6.04032953385418       -2.33426771842805        0.85311966824035
H           -5.47277908606344       -0.13043963262064        2.13191453462270
H           -2.99479786311316       -0.12859210868714        2.12631025199571
H            1.03121105645112       -0.09595420853866        2.14805887094798
H            2.95979956627152        1.38424278301980       -1.63086525587929
H            5.41607832686897        1.36711731436735       -1.64083932958208

          :  Hamiltonian                  GFN2-xTB          :
         :: gradient norm              0.000054687623 Eh/a0 ::
         :: HOMO-LUMO gap              1.468306827950 eV    ::
         :: SCC energy              -120.888179881444 Eh    ::
         :: -> dispersion             -0.097074916083 Eh    ::
         :: -> Gsolv                  -0.049436041087 Eh    ::
         :: repulsion energy           2.050681693149 Eh    ::

    * Orbital Energies and Occupations

         #    Occupation            Energy/Eh            Energy/eV
      -------------------------------------------------------------
         1        2.0000           -0.7311758             -19.8963
       ...           ...                  ...                  ...
        97        2.0000           -0.4210030             -11.4561
        98        2.0000           -0.4186772             -11.3928
        99        2.0000           -0.4176002             -11.3635
       100        2.0000           -0.4156138             -11.3094
       101        2.0000           -0.4149024             -11.2901
       102        2.0000           -0.4132377             -11.2448
       103        2.0000           -0.4121163             -11.2143
       104        2.0000           -0.4027051             -10.9582
       105        2.0000           -0.3923139             -10.6754
       106        2.0000           -0.3901793             -10.6173
       107        2.0000           -0.3722581             -10.1297
       108        2.0000           -0.3454399              -9.3999
       109        2.0000           -0.3434468              -9.3457 (HOMO)
       110                         -0.2894876              -7.8774 (LUMO)
       111                         -0.2722025              -7.4070
       112                         -0.2474203              -6.7326
       113                         -0.2423215              -6.5939
       114                         -0.2400671              -6.5326
       115                         -0.2386049              -6.4928
       116                         -0.2366215              -6.4388
       117                         -0.2316519              -6.3036
       118                         -0.2295150              -6.2454
       119                         -0.2187658              -5.9529
       120                         -0.2158066              -5.8724
       ...                                ...                  ...
       210                          0.6736812              18.3318
      -------------------------------------------------------------
                  HL-Gap            0.0539593 Eh            1.4683 eV

     #   Z          covCN         q      C6AA      α(0)
     1   6 C        2.919    -0.041    29.027     8.835
     2   6 C        2.919    -0.039    28.976     8.827
     3   6 C        2.924    -0.061    29.521     8.910
     4   6 C        2.921     0.043    27.047     8.528
     5   6 C        2.882     0.122    25.317     8.249
     6   6 C        2.919    -0.058    29.444     8.898
     7   8 O        1.708    -0.273    18.533     5.812
     8   6 C        2.882     0.122    25.317     8.249
     9   6 C        2.919    -0.058    29.444     8.898
    10   6 C        2.919    -0.041    29.027     8.835
    11   6 C        2.919    -0.039    28.976     8.827
    12   6 C        2.924    -0.061    29.521     8.910
    13   6 C        2.921     0.043    27.047     8.528
    14   7 N        2.751    -0.074    22.667     7.071
    15   6 C        2.920     0.066    26.517     8.444
    16   6 C        2.920    -0.039    28.970     8.826
    17   6 C        2.924    -0.032    28.803     8.801
    18   6 C        2.974     0.005    27.909     8.666
    19   6 C        2.965    -0.015    28.378     8.738
    20   6 C        2.925     0.075    26.317     8.413
    21   7 N        1.839    -0.264    27.721     7.803
    22   6 C        2.960     0.182    24.104     8.053
    23   6 C        2.982    -0.005    28.133     8.700
    24   6 C        2.923    -0.027    28.678     8.782
    25   6 C        2.919    -0.039    28.968     8.826
    26   6 C        2.921     0.070    26.443     8.433
    27   7 N        2.751    -0.070    22.598     7.060
    28   6 C        2.921     0.042    27.052     8.529
    29   6 C        2.924    -0.061    29.508     8.908
    30   6 C        2.919    -0.039    28.968     8.826
    31   6 C        2.919    -0.041    29.022     8.834
    32   6 C        2.919    -0.058    29.442     8.898
    33   6 C        2.882     0.122    25.311     8.248
    34   8 O        1.708    -0.272    18.513     5.809
    35   6 C        2.882     0.122    25.311     8.248
    36   6 C        2.919    -0.058    29.442     8.898
    37   6 C        2.919    -0.041    29.022     8.834
    38   6 C        2.919    -0.039    28.968     8.826
    39   6 C        2.924    -0.061    29.507     8.908
    40   6 C        2.921     0.042    27.052     8.529
    41   6 C        2.919    -0.039    28.968     8.826
    42   6 C        2.923    -0.027    28.678     8.782
    43   7 N        1.839    -0.264    27.721     7.803
    44   6 C        2.925     0.075    26.317     8.413
    45   6 C        2.924    -0.032    28.803     8.801
    46   6 C        2.920    -0.039    28.970     8.826
    47   1 H        0.926     0.042     2.428     2.437
    48   1 H        0.926     0.041     2.438     2.442
    49   1 H        0.926     0.039     2.464     2.455
    50   1 H        0.926     0.047     2.356     2.400
    51   1 H        0.926     0.047     2.356     2.400
    52   1 H        0.926     0.042     2.428     2.437
    53   1 H        0.926     0.041     2.438     2.442
    54   1 H        0.926     0.039     2.464     2.455
    55   1 H        0.926     0.048     2.344     2.394
    56   1 H        0.926     0.044     2.390     2.418
    57   1 H        0.925     0.043     2.413     2.429
    58   1 H        0.926     0.063     2.167     2.302
    59   1 H        0.926     0.051     2.302     2.373
    60   1 H        0.926     0.040     2.447     2.446
    61   1 H        0.926     0.041     2.431     2.438
    62   1 H        0.926     0.042     2.424     2.435
    63   1 H        0.926     0.048     2.351     2.398
    64   1 H        0.926     0.048     2.351     2.398
    65   1 H        0.926     0.042     2.424     2.435
    66   1 H        0.926     0.041     2.431     2.438
    67   1 H        0.926     0.040     2.448     2.446
    68   1 H        0.926     0.051     2.302     2.373
    69   1 H        0.926     0.063     2.167     2.302
    70   1 H        0.925     0.043     2.413     2.429
    71   1 H        0.926     0.044     2.390     2.418
    72   1 H        0.926     0.048     2.344     2.394

molecular dipole:
                 x           y           z       tot (Debye)
 q only:        0.063      -0.000      -0.000
   full:        0.524      -0.000      -0.000       1.332

 projected vibrational frequencies (cm⁻¹)
eigval :       -0.00    -0.00     0.00     0.00     0.00     0.00
eigval :        6.62    10.83    12.63    19.27    23.05    36.37
eigval :       42.33    44.86    52.44    62.04    64.18    80.59
eigval :       87.33   104.81   113.22   116.31   117.58   158.71
eigval :      176.89   188.36   201.76   237.24   240.01   250.62
eigval :      254.62   269.47   272.38   281.88   295.02   343.31
eigval :      354.72   365.75   367.77   372.13   376.46   390.02
eigval :      394.07   404.35   409.76   419.61   429.18   431.21
eigval :      432.02   439.63   448.52   453.16   470.75   478.10
eigval :      505.51   508.19   508.93   520.02   521.31   526.57
eigval :      554.48   560.73   575.31   587.19   589.34   602.02
eigval :      607.71   610.06   630.85   637.35   658.24   658.81
eigval :      659.27   660.53   664.56   688.00   689.20   691.76
eigval :      725.92   757.07   776.79   777.57   777.69   777.79
eigval :      784.92   800.21   812.83   814.86   825.88   852.74
eigval :      852.78   861.45   861.69   862.94   863.57   871.40
eigval :      872.59   874.96   895.45   896.32   896.62   897.42
eigval :      912.25   913.25   913.59   913.64   915.10   915.47
eigval :      916.25   918.65   922.84   924.29   925.95   931.54
eigval :      931.93   997.12  1007.21  1026.59  1082.24  1089.64
eigval :     1090.02  1090.65  1091.14  1102.78  1105.86  1106.02
eigval :     1117.99  1118.68  1122.49  1133.83  1169.35  1169.43
eigval :     1173.35  1173.38  1175.85  1181.71  1184.36  1190.88
eigval :     1198.04  1198.15  1201.25  1216.75  1220.01  1241.79
eigval :     1242.78  1245.83  1255.54  1260.26  1261.20  1265.65
eigval :     1275.01  1298.66  1304.09  1304.20  1307.90  1309.49
eigval :     1316.92  1333.74  1333.99  1334.90  1352.73  1355.58
eigval :     1372.36  1400.48  1409.97  1411.04  1421.69  1422.58
eigval :     1440.53  1441.15  1477.00  1479.77  1480.87  1488.23
eigval :     1502.70  1504.32  1507.79  1552.33  1555.63  1559.93
eigval :     1565.80  1566.02  1578.54  1579.11  1583.48  1586.47
eigval :     1588.95  1592.54  1601.71  1602.47  3035.99  3039.85
eigval :     3082.58  3084.05  3086.71  3087.06  3087.17  3087.52
eigval :     3087.56  3088.20  3093.37  3095.45  3095.48  3095.65
eigval :     3095.78  3095.86  3103.87  3104.16  3104.29  3104.58
eigval :     3107.66  3108.27  3108.55  3108.64  3109.08  3109.35

   temp. (K)  partition function   enthalpy   heat capacity  entropy
                                   cal/mol     cal/K/mol   cal/K/mol   J/K/mol
 298.15  VIB  0.767E+17            20730.924    131.618    129.567
         ROT  0.576E+08              888.752      2.981     38.490
         INT  0.442E+25            21619.676    134.599    168.058
         TR   0.140E+29             1481.254      4.968     45.012
         TOT                       23100.9302   139.5667   213.0693   891.4820

       T/K    H(0)-H(T)+PV         H(T)/Eh          T*S/Eh         G(T)/Eh
   ------------------------------------------------------------------------
    298.15    0.368137E-01    0.576692E+00    0.101236E+00    0.475456E+00
   ------------------------------------------------------------------------

         :::::::::::::::::::::::::::::::::::::::::::::::::::::
         ::                  THERMODYNAMIC                  ::
         :::::::::::::::::::::::::::::::::::::::::::::::::::::
         :: total free energy        -118.362042021980 Eh   ::
         ::.................................................::
         :: total energy             -118.837498185607 Eh   ::
         :: zero point energy           0.539878593461 Eh   ::
         :: G(RRHO) w/o ZPVE           -0.064422429835 Eh   ::
         :: G(RRHO) contrib.            0.475456163626 Eh   ::
         :::::::::::::::::::::::::::::::::::::::::::::::::::::

           -------------------------------------------------
          | TOTAL ENERGY             -118.837498185607 Eh   |
          | TOTAL ENTHALPY           -118.260805916502 Eh   |
          | TOTAL FREE ENERGY        -118.362042021980 Eh   |
          | GRADIENT NORM               0.000054660415 Eh/α |
          | HOMO-LUMO GAP               1.468307074831 eV   |
           -------------------------------------------------

 * finished run on 2025/09/04 at 22:20:49.375
