   * xtb version 6.7.1 (edcfbbe) compiled by 'albert@albert-system' on 2024-07-22

   ID    Z sym.   atoms
    1    6 C      1-6, 8-13, 15-20, 22-26, 28-33, 35-42, 44-46
    2    8 O      7, 34
    3    7 N      14, 21, 27, 43
    4    1 H      47-72

          program call               : xtb data2507/toluene/PxPYM/PxPYM_toluene_S0_crest.xyz --gfn 2 --gbsa toluene --ohess vtight --parallel 40 --molden --ceasefiles --namespace data2507/toluene/PxPYM/PxPYM_toluene_S0_finalOpt
      * Solvation model:               GBSA
        Solvent                        toluene
        Solvent mass                       9.2140E+01 g/mol
          :  Hamiltonian                  GFN2-xTB          :
 * total energy  :  -118.8376118 Eh     change       -0.5205465E-08 Eh
 * total energy  :  -118.8376534 Eh     change       -0.4157360E-04 Eh
 * total energy  :  -118.8376693 Eh     change       -0.1589090E-04 Eh
 * total energy  :  -118.8376739 Eh     change       -0.4616466E-05 Eh
 * total energy  :  -118.8376776 Eh     change       -0.3646787E-05 Eh
 * total energy  :  -118.8376800 Eh     change       -0.2466440E-05 Eh
 * total energy  :  -118.8376813 Eh     change       -0.1258261E-05 Eh
 * total energy  :  -118.8376827 Eh     change       -0.1458453E-05 Eh
 * total energy  :  -118.8376849 Eh     change       -0.2185619E-05 Eh
 * total energy  :  -118.8376871 Eh     change       -0.2202663E-05 Eh
 * total energy  :  -118.8376971 Eh     change       -0.7610379E-06 Eh
 * total energy  :  -118.8376158 Eh     change        0.8137513E-04 Eh
 * total energy  :  -118.8376945 Eh     change       -0.7868941E-04 Eh
 * total energy  :  -118.8376900 Eh     change        0.4458558E-05 Eh
 * total energy  :  -118.8376973 Eh     change       -0.7263216E-05 Eh
 * total energy  :  -118.8376977 Eh     change       -0.4294407E-06 Eh
 * total energy  :  -118.8376965 Eh     change        0.1206645E-05 Eh
 * total energy  :  -118.8376978 Eh     change       -0.1336373E-05 Eh
 * total energy  :  -118.8376979 Eh     change       -0.8265279E-07 Eh
   *** GEOMETRY OPTIMIZATION CONVERGED AFTER 31 ITERATIONS ***

 final structure:
================
72
 xtb: 6.7.1 (edcfbbe)
C            9.21390376780067       -2.97348151313335        1.98313290868347
C            7.83445006633635       -2.99604523439195        2.02020262863074
C            7.09894472584241       -2.01826703867060        1.36698268668196
C            7.73185423214268       -1.00591122667007        0.65598582653461
C            9.13307032609018       -0.97598804129930        0.64980658585452
C            9.86212026522106       -1.95319588534515        1.30127695049737
O            9.84763113155791        0.01745873780371        0.01988031626165
C            9.13123698708760        0.99888518652943       -0.62645434782681
C            9.85819677804194        1.98758974323220       -1.26276868859385
C            9.20826193015289        2.99661011235503       -1.95962602609475
C            7.82976988167990        2.99606891749807       -2.02748487421207
C            7.09636195261627        2.00681379537186       -1.38942874671829
C            7.73024548910870        1.00603508481355       -0.66303563280681
N            7.02140368803502       -0.00543970212458       -0.01108534297570
C            5.60848971513262       -0.00810085811473       -0.01511027102249
C            4.90385962427865        1.01339558588693        0.61602117028111
C            3.52377596952050        1.01338348334075        0.60664323245837
C            2.81594130726060       -0.01149850019873       -0.02219358432045
C            1.35428956648675       -0.01234462273219       -0.02495802642898
C            0.59554508264921        1.15686419461912       -0.14207419125625
N           -0.71997474908156        1.16171082277201       -0.13479475247218
C           -1.34689936477989       -0.01138601352798       -0.02251822605683
C           -2.80678326071486       -0.00973730686259       -0.01661646726982
C           -3.51413974466793       -1.20733497061904        0.10191830852457
C           -4.89299568049560       -1.20556178855052        0.11067655969446
C           -5.59282015217115       -0.00485574113899       -0.00019229165747
N           -7.00390430262206       -0.00171261292689        0.00940307980003
C           -7.72400435467679       -0.64684303072988       -0.99986083914825
C           -7.10158538212234       -1.26882549454107       -2.07572703415005
C           -7.84599841443613       -1.89751942376440       -3.06252798863065
C           -9.22486170365975       -1.90654185076925       -2.99849371526502
C           -9.86321672935994       -1.26209703306155       -1.94857573411333
C           -9.12498079042463       -0.63199515777624       -0.96381662451245
O           -9.83171070305159        0.01326684137546        0.02461786897845
C           -9.10773547107549        0.65035042545035        1.00582498738607
C           -9.82860501811127        1.28716323527168        1.99909638365064
C           -9.17213228458374        1.92413141451909        3.04237657447391
C           -7.79281181547647        1.90084780266141        3.09119705322914
C           -7.06582886774316        1.26514194177226        2.09594668284560
C           -7.70639912585186        0.65025231005562        1.02665343917485
C           -4.89008833152710        1.19331762897301       -0.12005376362414
C           -3.51133130721128        1.19026438976959       -0.12776136878818
N           -0.72066722627176       -1.18521320879959        0.08565834099948
C            0.59498323744732       -1.18130335199796        0.09035573653097
C            3.52938517094419       -1.03461829042825       -0.64735928709187
C            4.90968046947979       -1.03126350719656       -0.64985652266838
H            9.79183770390449       -3.73271327301978        2.48613427524587
H            7.31527762681755       -3.77272664538832        2.56068653461716
H            6.02173206251909       -2.03903977930905        1.41642794633687
H           10.93882958363645       -1.89512742678638        1.26709039257231
H           10.93470128354596        1.94764714067527       -1.20460809151430
H            9.78437664694325        3.76517734783752       -2.45039696083244
H            7.30986987849373        3.76338585328238       -2.58047535829870
H            6.02025968342153        2.00959363675268       -1.46229310299653
H            5.44557838884643        1.80309763795882        1.11527817631305
H            2.98794965518727        1.80011138519564        1.11626145561870
H            1.06688433580583        2.12493992430010       -0.26336469977568
H           -2.96304855261003       -2.12988949531596        0.19475781669103
H           -5.44003440719351       -2.13148507778425        0.21027823686794
H           -6.02559450844883       -1.25564898618102       -2.14687507176595
H           -7.33418116412745       -2.37695570366404       -3.88291004632963
H           -9.80957710833578       -2.39794344375176       -3.76015078607770
H          -10.93928144131167       -1.23182075037275       -1.87796935996335
H          -10.90562816206687        1.26818281024961        1.94018538584777
H           -9.74329795254570        2.42091602677435        3.81079008641641
H           -7.26706082013109        2.37448896274689        3.90610158421240
H           -5.98930445188457        1.24112414380685        2.15511676408504
H           -5.43509438671538        2.12114298780165       -0.21297273735687
H           -2.95811059619877        2.11085662403883       -0.22706895817119
H            1.06579325057991       -2.15000321192428        0.20866222431550
H            2.99802428440644       -1.82274465519484       -1.15951006873080
H            5.45573474276647       -1.81934820103130       -1.14690534949170

          :  Hamiltonian                  GFN2-xTB          :
         :: gradient norm              0.000110199088 Eh/a0 ::
         :: HOMO-LUMO gap              1.476053462197 eV    ::
         :: SCC energy              -120.888593405241 Eh    ::
         :: -> dispersion             -0.097118701117 Eh    ::
         :: -> Gsolv                  -0.049507130886 Eh    ::
         :: repulsion energy           2.050895496715 Eh    ::

    * Orbital Energies and Occupations

         #    Occupation            Energy/Eh            Energy/eV
      -------------------------------------------------------------
         1        2.0000           -0.7310065             -19.8917
       ...           ...                  ...                  ...
        97        2.0000           -0.4209802             -11.4555
        98        2.0000           -0.4184761             -11.3873
        99        2.0000           -0.4174934             -11.3606
       100        2.0000           -0.4157237             -11.3124
       101        2.0000           -0.4147537             -11.2860
       102        2.0000           -0.4133298             -11.2473
       103        2.0000           -0.4121418             -11.2149
       104        2.0000           -0.4027585             -10.9596
       105        2.0000           -0.3922343             -10.6732
       106        2.0000           -0.3901943             -10.6177
       107        2.0000           -0.3721834             -10.1276
       108        2.0000           -0.3453991              -9.3988
       109        2.0000           -0.3436062              -9.3500 (HOMO)
       110                         -0.2893622              -7.8739 (LUMO)
       111                         -0.2721502              -7.4056
       112                         -0.2474544              -6.7336
       113                         -0.2424993              -6.5987
       114                         -0.2399344              -6.5289
       115                         -0.2386890              -6.4951
       116                         -0.2364933              -6.4353
       117                         -0.2315605              -6.3011
       118                         -0.2295931              -6.2475
       119                         -0.2188526              -5.9553
       120                         -0.2158448              -5.8734
       ...                                ...                  ...
       210                          0.6736571              18.3311
      -------------------------------------------------------------
                  HL-Gap            0.0542440 Eh            1.4761 eV

     #   Z          covCN         q      C6AA      α(0)
     1   6 C        2.919    -0.041    29.030     8.835
     2   6 C        2.919    -0.039    28.977     8.827
     3   6 C        2.924    -0.061    29.523     8.910
     4   6 C        2.921     0.043    27.045     8.528
     5   6 C        2.882     0.122    25.319     8.249
     6   6 C        2.919    -0.058    29.445     8.898
     7   8 O        1.708    -0.274    18.538     5.813
     8   6 C        2.882     0.122    25.319     8.249
     9   6 C        2.919    -0.058    29.445     8.898
    10   6 C        2.919    -0.041    29.029     8.835
    11   6 C        2.919    -0.039    28.977     8.827
    12   6 C        2.924    -0.061    29.521     8.910
    13   6 C        2.922     0.043    27.045     8.528
    14   7 N        2.751    -0.074    22.677     7.073
    15   6 C        2.920     0.066    26.514     8.444
    16   6 C        2.920    -0.039    28.961     8.825
    17   6 C        2.924    -0.032    28.801     8.801
    18   6 C        2.974     0.005    27.904     8.665
    19   6 C        2.965    -0.015    28.382     8.738
    20   6 C        2.925     0.075    26.317     8.413
    21   7 N        1.839    -0.265    27.723     7.803
    22   6 C        2.960     0.182    24.104     8.053
    23   6 C        2.982    -0.005    28.138     8.701
    24   6 C        2.923    -0.027    28.680     8.782
    25   6 C        2.919    -0.039    28.974     8.827
    26   6 C        2.920     0.069    26.446     8.433
    27   7 N        2.751    -0.070    22.587     7.059
    28   6 C        2.921     0.042    27.054     8.530
    29   6 C        2.924    -0.061    29.506     8.908
    30   6 C        2.919    -0.039    28.967     8.826
    31   6 C        2.919    -0.041    29.019     8.834
    32   6 C        2.919    -0.058    29.441     8.898
    33   6 C        2.882     0.122    25.309     8.248
    34   8 O        1.708    -0.272    18.508     5.809
    35   6 C        2.882     0.122    25.309     8.248
    36   6 C        2.919    -0.058    29.441     8.898
    37   6 C        2.919    -0.041    29.019     8.834
    38   6 C        2.919    -0.039    28.967     8.826
    39   6 C        2.924    -0.061    29.506     8.908
    40   6 C        2.921     0.042    27.055     8.530
    41   6 C        2.919    -0.039    28.974     8.827
    42   6 C        2.923    -0.027    28.680     8.782
    43   7 N        1.839    -0.265    27.723     7.803
    44   6 C        2.925     0.075    26.317     8.413
    45   6 C        2.924    -0.032    28.801     8.801
    46   6 C        2.920    -0.039    28.962     8.825
    47   1 H        0.926     0.041     2.429     2.437
    48   1 H        0.926     0.041     2.437     2.441
    49   1 H        0.926     0.039     2.468     2.457
    50   1 H        0.926     0.047     2.358     2.401
    51   1 H        0.926     0.047     2.358     2.401
    52   1 H        0.926     0.042     2.429     2.437
    53   1 H        0.926     0.041     2.437     2.441
    54   1 H        0.926     0.038     2.470     2.458
    55   1 H        0.926     0.048     2.345     2.395
    56   1 H        0.926     0.045     2.388     2.417
    57   1 H        0.925     0.043     2.415     2.430
    58   1 H        0.926     0.063     2.169     2.303
    59   1 H        0.926     0.051     2.302     2.373
    60   1 H        0.926     0.040     2.442     2.444
    61   1 H        0.926     0.041     2.429     2.437
    62   1 H        0.926     0.042     2.423     2.434
    63   1 H        0.926     0.048     2.350     2.397
    64   1 H        0.926     0.048     2.349     2.397
    65   1 H        0.926     0.042     2.423     2.434
    66   1 H        0.926     0.041     2.430     2.437
    67   1 H        0.926     0.040     2.443     2.444
    68   1 H        0.926     0.051     2.304     2.373
    69   1 H        0.926     0.063     2.169     2.303
    70   1 H        0.925     0.043     2.415     2.430
    71   1 H        0.926     0.045     2.387     2.416
    72   1 H        0.926     0.048     2.341     2.393

molecular dipole:
                 x           y           z       tot (Debye)
 q only:        0.008      -0.008      -0.007
   full:        0.471      -0.006      -0.007       1.197

 projected vibrational frequencies (cm⁻¹)
eigval :       -0.00    -0.00     0.00     0.00     0.00     0.00
eigval :        6.41    11.94    12.22    21.85    22.84    38.14
eigval :       46.92    48.69    49.46    65.90    68.02    81.44
eigval :       89.81   102.06   114.41   117.42   121.94   154.96
eigval :      177.17   191.00   202.61   238.30   239.51   249.76
eigval :      252.72   270.14   272.59   281.30   295.78   348.22
eigval :      355.02   366.57   369.88   373.79   380.45   388.34
eigval :      389.54   404.10   409.61   420.86   427.57   430.26
eigval :      431.45   441.45   445.09   453.20   470.75   480.55
eigval :      506.13   508.63   509.65   520.91   521.54   526.60
eigval :      554.85   562.47   575.23   587.59   588.88   601.82
eigval :      607.73   610.07   630.81   637.27   657.36   658.59
eigval :      659.13   660.23   664.70   688.06   689.83   693.60
eigval :      725.86   758.03   775.47   776.37   779.23   779.59
eigval :      784.78   800.02   814.73   815.09   827.89   852.57
eigval :      852.75   861.12   862.56   862.87   864.71   870.81
eigval :      873.90   876.81   894.08   895.51   896.54   897.59
eigval :      910.58   911.88   913.24   915.12   915.30   916.13
eigval :      916.21   918.49   923.13   923.46   928.09   932.18
eigval :      933.94   997.24  1007.07  1026.79  1082.52  1089.30
eigval :     1089.45  1090.27  1090.63  1103.26  1105.36  1105.55
eigval :     1117.47  1118.20  1122.54  1134.38  1168.30  1168.98
eigval :     1172.63  1172.85  1175.50  1181.38  1183.82  1191.01
eigval :     1197.22  1197.28  1201.78  1216.78  1219.90  1241.10
eigval :     1241.89  1246.26  1255.22  1259.71  1260.00  1265.80
eigval :     1275.34  1298.80  1304.30  1304.36  1307.52  1309.75
eigval :     1316.91  1333.71  1334.29  1334.84  1352.87  1355.58
eigval :     1372.51  1400.69  1410.19  1411.28  1421.85  1422.60
eigval :     1440.80  1441.09  1476.94  1479.60  1481.01  1488.51
eigval :     1502.51  1504.50  1507.79  1552.11  1555.56  1559.59
eigval :     1565.76  1566.17  1578.67  1579.25  1582.96  1586.42
eigval :     1588.85  1592.12  1601.72  1602.59  3035.68  3039.58
eigval :     3083.02  3084.50  3086.26  3086.44  3087.26  3087.48
eigval :     3087.51  3087.86  3093.80  3095.26  3095.27  3095.39
eigval :     3095.53  3096.03  3103.36  3103.65  3104.65  3104.98
eigval :     3107.77  3108.09  3108.77  3108.90  3109.07  3109.85

   temp. (K)  partition function   enthalpy   heat capacity  entropy
                                   cal/mol     cal/K/mol   cal/K/mol   J/K/mol
 298.15  VIB  0.486E+17            20692.323    131.843    129.179
         ROT  0.115E+09              888.752      2.981     39.868
         INT  0.560E+25            21581.076    134.824    169.047
         TR   0.140E+29             1481.254      4.968     45.012
         TOT                       23062.3295   139.7923   214.0587   895.6215

       T/K    H(0)-H(T)+PV         H(T)/Eh          T*S/Eh         G(T)/Eh
   ------------------------------------------------------------------------
    298.15    0.367522E-01    0.576713E+00    0.101706E+00    0.475007E+00
   ------------------------------------------------------------------------

         :::::::::::::::::::::::::::::::::::::::::::::::::::::
         ::                  THERMODYNAMIC                  ::
         :::::::::::::::::::::::::::::::::::::::::::::::::::::
         :: total free energy        -118.362690636742 Eh   ::
         ::.................................................::
         :: total energy             -118.837697904132 Eh   ::
         :: zero point energy           0.539961294796 Eh   ::
         :: G(RRHO) w/o ZPVE           -0.064954027406 Eh   ::
         :: G(RRHO) contrib.            0.475007267390 Eh   ::
         :::::::::::::::::::::::::::::::::::::::::::::::::::::

           -------------------------------------------------
          | TOTAL ENERGY             -118.837697904132 Eh   |
          | TOTAL ENTHALPY           -118.260984447888 Eh   |
          | TOTAL FREE ENERGY        -118.362690636742 Eh   |
          | GRADIENT NORM               0.000110217014 Eh/α |
          | HOMO-LUMO GAP               1.476053220655 eV   |
           -------------------------------------------------

 * finished run on 2025/09/04 at 22:24:24.514
