   * xtb version 6.7.1 (edcfbbe) compiled by 'albert@albert-system' on 2024-07-22

   ID    Z sym.   atoms
    1    6 C      1-6, 8-13, 15-20, 22-26, 28-33, 35-42, 44-46
    2    8 O      7, 34
    3    7 N      14, 21, 27, 43
    4    1 H      47-72

          program call               : xtb data2507/toluene/PxPYM/PxPYM_toluene_S0_finalOpt.xtbopt.xyz --gfn 2 --uhf 2 --gbsa toluene --ohess vtight --parallel 40 --molden --ceasefiles --namespace data2507/toluene/PxPYM/PxPYM_toluene_T1_preOpt
      * Solvation model:               GBSA
        Solvent                        toluene
        Solvent mass                       9.2140E+01 g/mol
          :  Hamiltonian                  GFN2-xTB          :
 * total energy  :  -118.7629204 Eh     change       -0.7517116E-09 Eh
 * total energy  :  -118.7671730 Eh     change       -0.4252599E-02 Eh
 * total energy  :  -118.7685476 Eh     change       -0.1374586E-02 Eh
 * total energy  :  -118.7686776 Eh     change       -0.1299854E-03 Eh
 * total energy  :  -118.7688530 Eh     change       -0.1754152E-03 Eh
 * total energy  :  -118.7689227 Eh     change       -0.6966610E-04 Eh
 * total energy  :  -118.7689858 Eh     change       -0.6309610E-04 Eh
 * total energy  :  -118.7690104 Eh     change       -0.2468150E-04 Eh
 * total energy  :  -118.7690186 Eh     change       -0.8125586E-05 Eh
 * total energy  :  -118.7690261 Eh     change       -0.7563475E-05 Eh
 * total energy  :  -118.7696815 Eh     change       -0.7895265E-06 Eh
 * total energy  :  -118.7696823 Eh     change       -0.7846101E-06 Eh
 * total energy  :  -118.7696831 Eh     change       -0.7760873E-06 Eh
 * total energy  :  -118.7696838 Eh     change       -0.7754364E-06 Eh
 * total energy  :  -118.7696846 Eh     change       -0.7528764E-06 Eh
 * total energy  :  -118.7696853 Eh     change       -0.7399749E-06 Eh
 * total energy  :  -118.7696861 Eh     change       -0.7238793E-06 Eh
 * total energy  :  -118.7696868 Eh     change       -0.7116162E-06 Eh
 * total energy  :  -118.7696868 Eh     change       -0.4736833E-08 Eh
   *** GEOMETRY OPTIMIZATION CONVERGED AFTER 420 ITERATIONS ***

 final structure:
================
72
 xtb: 6.7.1 (edcfbbe)
C            9.22898580479421       -2.54225193577944        2.50272702486610
C            7.84574952380994       -2.54064958070167        2.55552477815709
C            7.11284715601473       -1.70153172299525        1.73474350334296
C            7.75194727200866       -0.85018840479059        0.83598552069770
C            9.15707579395380       -0.84037097775438        0.81072034785404
C            9.88362124881713       -1.68392566875998        1.63353425656408
O            9.86610865849768        0.00082158687729       -0.00638066158135
C            9.15635962387604        0.84142004031490       -0.82346968785181
C            9.88217167125669        1.68552222763116       -1.64636877591049
C            9.22678676794170        2.54331268890836       -2.51552623254242
C            7.84354758371132        2.54061532628072       -2.56821541126545
C            7.11137421569759        1.70095967765912       -1.74733483611399
C            7.75122298009964        0.85015269558914       -0.84859878862526
N            7.04761574162198       -0.00026801018646       -0.00625722036384
C            5.62931665510710       -0.00034299513666       -0.00577932094444
C            4.92263000050054        1.11274733840385        0.45287028875148
C            3.54936160832290        1.11176633888765        0.45374228411919
C            2.81037390701074       -0.00042260387218       -0.00462776988172
C            1.37850544389533       -0.00049253135289       -0.00383074554859
C            0.58117844748007        1.17607840902011        0.03416698144680
N           -0.71378332792674        1.17668282898834        0.02748501946138
C           -1.39200007338329       -0.00048576178793       -0.00132972363689
C           -2.81111118322221       -0.00052335544244        0.00051859562989
C           -3.53834647673088       -1.21135300028376       -0.01694518081916
C           -4.90923116208149       -1.20992264498011       -0.01359177098274
C           -5.61251598659751       -0.00064708394131        0.00466718731196
N           -7.03119644092791       -0.00077355626039        0.00677477333629
C           -7.73570722390481       -0.43155149986970       -1.10721136406263
C           -7.09595948317895       -0.84318090880564       -2.27551264369765
C           -7.82992684411800       -1.27255310152505       -3.36628034330568
C           -9.21417826535128       -1.29423153323977       -3.31841023370077
C           -9.86912148002106       -0.86692962429462       -2.17481196164569
C           -9.14165278218738       -0.43317163895436       -1.07910380695771
O           -9.84794337739530       -0.00069275204874        0.01077597305771
C           -9.13853223964890        0.43182395513855        1.09861445377420
C           -9.86286582106019        0.86569612596125        2.19635333397937
C           -9.20465195105584        1.29304590645204        3.33805380718666
C           -7.82027239045387        1.27125444339422        3.38200071407627
C           -7.08942255910427        0.84174464114288        2.28919807615086
C           -7.73250742114981        0.43013331628834        1.12272140564786
C           -4.90930163669862        1.20870651367472        0.02078494464844
C           -3.53840819776500        1.21024103100511        0.02004556169448
N           -0.71382729255639       -1.17764487993197       -0.03183421095307
C            0.58112263026551       -1.17706207003647       -0.04086490939288
C            3.54904930578972       -1.11255457078958       -0.46361381479650
C            4.92232535100234       -1.11346456612757       -0.46387949508233
H            9.80114746333217       -3.19862346538905        3.13894098746331
H            7.32692367222614       -3.19335837187257        3.24043107101902
H            6.03591880343691       -1.69664906298606        1.78861610042238
H           10.96020021462764       -1.64878345009899        1.57975297826465
H           10.95878160917992        1.65124224331639       -1.59266299844075
H            9.79837992064374        3.20011872208300       -3.15180277991899
H            7.32415062361066        3.19289040637720       -3.25310203375379
H            6.03444323850231        1.69524316653161       -1.80110414107883
H            5.46660734663412        1.97154270997729        0.82021717083496
H            3.02762883849190        1.97419420267320        0.83973013815834
H            1.04311169273992        2.15674710013923        0.02956130836653
H           -2.98496347216686       -2.13779158594281       -0.02435668077304
H           -5.45980380957750       -2.14015744632766       -0.01617986083563
H           -6.01891690949507       -0.81879528665924       -2.32009968661234
H           -7.31260143818605       -1.58903184276580       -4.25867816434117
H           -9.78626384923470       -1.63278203731985       -4.16752206963807
H          -10.94562816709069       -0.85705231936373       -2.11135307116717
H          -10.93954858232106        0.85587658877327        2.13595796438892
H           -9.77429903072109        1.63168909317426        4.18876811633923
H           -7.30038429686690        1.58774052164194        4.27290152498314
H           -6.01226073184250        0.81723981536315        2.33081118375069
H           -5.45991809196876        2.13891000049064        0.02501579773455
H           -2.98509489761187        2.13673096015141        0.02581572962739
H            1.04304380955755       -2.15774076523303       -0.03753705805607
H            3.02704770051318       -1.97503621125900       -0.84912355011375
H            5.46604662425662       -1.97222612308354       -0.83168287330382

          :  Hamiltonian                  GFN2-xTB          :
         :: gradient norm              0.000064944449 Eh/a0 ::
         :: HOMO-LUMO gap              0.687938931376 eV    ::
         :: SCC energy              -120.811867068663 Eh    ::
         :: -> dispersion             -0.097172686305 Eh    ::
         :: -> Gsolv                  -0.051965692050 Eh    ::
         :: repulsion energy           2.042180286487 Eh    ::

    * Orbital Energies and Occupations

         #    Occupation            Energy/Eh            Energy/eV
      -------------------------------------------------------------
         1        2.0000           -0.7453961             -20.2833
       ...           ...                  ...                  ...
        98        2.0000           -0.4228020             -11.5050
        99        2.0000           -0.4180994             -11.3771
       100        2.0000           -0.4085594             -11.1175
       101        2.0000           -0.4053655             -11.0306
       102        2.0000           -0.4022052             -10.9446
       103        2.0000           -0.4009792             -10.9112
       104        2.0000           -0.3989704             -10.8565
       105        2.0000           -0.3973447             -10.8123
       106        2.0000           -0.3739886             -10.1767
       107        1.8797           -0.3527579              -9.5990
       108        1.7771           -0.3520536              -9.5799
       109        1.3432           -0.3502507              -9.5308
       110        1.0000           -0.2756345              -7.5004 (HOMO)
       111        0.0000           -0.2503531              -6.8125 (LUMO)
       112        0.0000           -0.2500545              -6.8043
       113                         -0.2437248              -6.6321
       114                         -0.2393849              -6.5140
       115                         -0.2390803              -6.5057
       116                         -0.2344175              -6.3788
       117                         -0.2250404              -6.1237
       118                         -0.2237424              -6.0883
       119                         -0.2227866              -6.0623
       120                         -0.2159016              -5.8750
       121                         -0.2069178              -5.6305
       ...                                ...                  ...
       210                          0.6864121              18.6782
      -------------------------------------------------------------
                  HL-Gap            0.0252814 Eh            0.6879 eV

     #   Z          covCN         q      C6AA      α(0)
     1   6 C        2.919    -0.035    28.867     8.811
     2   6 C        2.918    -0.034    28.841     8.807
     3   6 C        2.922    -0.054    29.345     8.883
     4   6 C        2.924     0.046    26.968     8.516
     5   6 C        2.884     0.126    25.228     8.234
     6   6 C        2.918    -0.055    29.361     8.886
     7   8 O        1.709    -0.247    18.099     5.744
     8   6 C        2.884     0.126    25.228     8.234
     9   6 C        2.918    -0.055    29.361     8.886
    10   6 C        2.919    -0.035    28.867     8.811
    11   6 C        2.918    -0.034    28.841     8.807
    12   6 C        2.922    -0.054    29.345     8.883
    13   6 C        2.924     0.046    26.968     8.516
    14   7 N        2.751    -0.043    22.081     6.979
    15   6 C        2.921     0.038    27.159     8.546
    16   6 C        2.915    -0.042    29.054     8.839
    17   6 C        2.923    -0.045    29.118     8.849
    18   6 C        2.967    -0.005    28.136     8.701
    19   6 C        2.962    -0.049    29.208     8.865
    20   6 C        2.904     0.070    26.444     8.432
    21   7 N        1.837    -0.261    27.633     7.790
    22   6 C        2.925     0.140    24.948     8.191
    23   6 C        2.976    -0.013    28.329     8.731
    24   6 C        2.922    -0.043    29.079     8.843
    25   6 C        2.915    -0.043    29.058     8.839
    26   6 C        2.922     0.033    27.266     8.563
    27   7 N        2.751    -0.033    21.880     6.947
    28   6 C        2.925     0.046    26.960     8.515
    29   6 C        2.921    -0.052    29.297     8.876
    30   6 C        2.918    -0.032    28.806     8.801
    31   6 C        2.919    -0.033    28.827     8.805
    32   6 C        2.917    -0.054    29.343     8.883
    33   6 C        2.884     0.128    25.201     8.230
    34   8 O        1.709    -0.241    17.990     5.727
    35   6 C        2.884     0.128    25.201     8.230
    36   6 C        2.917    -0.054    29.343     8.883
    37   6 C        2.919    -0.033    28.827     8.805
    38   6 C        2.918    -0.032    28.806     8.801
    39   6 C        2.921    -0.052    29.297     8.876
    40   6 C        2.925     0.046    26.960     8.515
    41   6 C        2.915    -0.043    29.058     8.839
    42   6 C        2.922    -0.043    29.079     8.843
    43   7 N        1.837    -0.261    27.633     7.790
    44   6 C        2.904     0.070    26.444     8.432
    45   6 C        2.923    -0.045    29.118     8.849
    46   6 C        2.915    -0.042    29.054     8.839
    47   1 H        0.926     0.051     2.302     2.373
    48   1 H        0.926     0.049     2.330     2.387
    49   1 H        0.926     0.048     2.345     2.395
    50   1 H        0.926     0.057     2.234     2.337
    51   1 H        0.926     0.057     2.234     2.337
    52   1 H        0.926     0.051     2.302     2.373
    53   1 H        0.926     0.049     2.330     2.387
    54   1 H        0.926     0.048     2.345     2.395
    55   1 H        0.926     0.032     2.558     2.501
    56   1 H        0.926     0.026     2.645     2.543
    57   1 H        0.925     0.026     2.644     2.543
    58   1 H        0.926     0.040     2.451     2.448
    59   1 H        0.926     0.033     2.545     2.495
    60   1 H        0.926     0.052     2.297     2.370
    61   1 H        0.926     0.051     2.303     2.373
    62   1 H        0.926     0.053     2.277     2.360
    63   1 H        0.926     0.059     2.209     2.324
    64   1 H        0.926     0.059     2.209     2.324
    65   1 H        0.926     0.053     2.277     2.360
    66   1 H        0.926     0.051     2.303     2.373
    67   1 H        0.926     0.052     2.297     2.370
    68   1 H        0.926     0.033     2.545     2.495
    69   1 H        0.926     0.040     2.451     2.448
    70   1 H        0.925     0.026     2.644     2.543
    71   1 H        0.926     0.026     2.645     2.543
    72   1 H        0.926     0.032     2.558     2.501

molecular dipole:
                 x           y           z       tot (Debye)
 q only:       -0.442      -0.000       0.002
   full:        0.011      -0.000       0.002       0.029

 projected vibrational frequencies (cm⁻¹)
eigval :       -0.00    -0.00    -0.00     0.00     0.00     0.00
eigval :        5.40    13.81    14.79    21.60    25.69    26.90
eigval :       39.79    45.05    57.87    58.30    72.03    81.94
eigval :       89.35    97.93   108.68   113.37   123.31   144.92
eigval :      174.76   191.32   208.30   232.41   237.56   246.51
eigval :      250.81   270.87   276.19   280.04   291.95   350.37
eigval :      353.56   363.38   368.50   374.54   378.16   389.56
eigval :      393.54   398.34   404.50   413.75   425.74   430.91
eigval :      432.89   434.27   446.60   461.37   471.71   472.48
eigval :      478.87   492.04   499.05   502.94   525.96   526.36
eigval :      542.01   543.09   561.88   583.50   584.62   600.84
eigval :      603.74   607.01   621.19   626.57   650.78   661.58
eigval :      664.35   665.30   666.81   668.35   668.63   679.58
eigval :      680.79   716.94   761.38   775.35   776.28   776.85
eigval :      777.82   789.22   797.69   798.39   802.05   821.75
eigval :      838.68   842.16   853.24   853.85   854.37   864.85
eigval :      864.98   865.79   866.06   896.24   897.74   898.06
eigval :      899.15   900.72   901.28   903.67   907.97   910.77
eigval :      911.23   913.49   913.77   918.14   918.52   919.83
eigval :      920.14   950.28   992.02   998.41  1048.26  1072.78
eigval :     1083.53  1084.05  1084.76  1085.33  1110.15  1110.87
eigval :     1115.59  1117.64  1118.83  1130.65  1152.45  1163.75
eigval :     1167.90  1171.01  1171.90  1172.88  1178.92  1185.32
eigval :     1192.94  1202.19  1204.73  1211.08  1212.13  1222.14
eigval :     1235.77  1236.25  1251.66  1252.83  1254.98  1267.07
eigval :     1285.59  1294.40  1299.70  1306.14  1306.84  1307.64
eigval :     1315.05  1315.45  1326.49  1331.72  1340.09  1345.61
eigval :     1376.92  1384.00  1414.55  1414.93  1420.11  1423.30
eigval :     1438.29  1439.69  1442.84  1449.09  1456.32  1458.70
eigval :     1468.46  1474.95  1485.39  1487.69  1493.55  1554.35
eigval :     1555.55  1556.89  1562.04  1564.82  1569.04  1572.37
eigval :     1576.37  1581.49  1585.25  1594.76  3015.47  3019.55
eigval :     3068.47  3069.45  3070.55  3071.40  3087.96  3091.35
eigval :     3092.60  3092.66  3093.67  3094.07  3094.14  3095.76
eigval :     3100.68  3100.76  3101.84  3101.92  3109.26  3109.56
eigval :     3110.36  3110.70  3112.97  3113.18  3113.68  3113.96

   temp. (K)  partition function   enthalpy   heat capacity  entropy
                                   cal/mol     cal/K/mol   cal/K/mol   J/K/mol
 298.15  VIB  0.795E+17            20929.083    133.131    130.360
         ROT  0.577E+08              888.752      2.981     38.496
         INT  0.459E+25            21817.835    136.111    168.855
         TR   0.140E+29             1481.254      4.968     45.012
         TOT                       23299.0892   141.0796   213.8672   894.8202

       T/K    H(0)-H(T)+PV         H(T)/Eh          T*S/Eh         G(T)/Eh
   ------------------------------------------------------------------------
    298.15    0.371295E-01    0.573509E+00    0.101615E+00    0.471894E+00
   ------------------------------------------------------------------------

         :::::::::::::::::::::::::::::::::::::::::::::::::::::
         ::                  THERMODYNAMIC                  ::
         :::::::::::::::::::::::::::::::::::::::::::::::::::::
         :: total free energy        -118.297792980815 Eh   ::
         ::.................................................::
         :: total energy             -118.769686782063 Eh   ::
         :: zero point energy           0.536379525513 Eh   ::
         :: G(RRHO) w/o ZPVE           -0.064485724265 Eh   ::
         :: G(RRHO) contrib.            0.471893801248 Eh   ::
         :::::::::::::::::::::::::::::::::::::::::::::::::::::

           -------------------------------------------------
          | TOTAL ENERGY             -118.769686782063 Eh   |
          | TOTAL ENTHALPY           -118.196177794572 Eh   |
          | TOTAL FREE ENERGY        -118.297792980815 Eh   |
          | GRADIENT NORM               0.000064791025 Eh/α |
          | HOMO-LUMO GAP               0.687942074902 eV   |
           -------------------------------------------------

 * finished run on 2025/09/04 at 22:24:57.237
