   * xtb version 6.7.1 (edcfbbe) compiled by 'albert@albert-system' on 2024-07-22

   ID    Z sym.   atoms
    1    6 C      1-4, 6-34
    2    7 N      5
    3   35 Br     35
    4    1 H      36-61

          program call               : xtb data2507/toluene/DPACpBr/DPACpBr_toluene_S0_crest.xyz --gfn 2 --gbsa toluene --ohess vtight --parallel 40 --molden --ceasefiles --namespace data2507/toluene/DPACpBr/DPACpBr_toluene_S0_finalOpt
      * Solvation model:               GBSA
        Solvent                        toluene
        Solvent mass                       9.2140E+01 g/mol
          :  Hamiltonian                  GFN2-xTB          :
 * total energy  :   -90.9914998 Eh     change       -0.6793073E-09 Eh
 * total energy  :   -90.9915573 Eh     change       -0.5750824E-04 Eh
 * total energy  :   -90.9916272 Eh     change       -0.6987326E-04 Eh
 * total energy  :   -90.9916727 Eh     change       -0.4555458E-04 Eh
 * total energy  :   -90.9917397 Eh     change       -0.6697660E-04 Eh
 * total energy  :   -90.9917997 Eh     change       -0.6001117E-04 Eh
 * total energy  :   -90.9918436 Eh     change       -0.4389437E-04 Eh
 * total energy  :   -90.9918771 Eh     change       -0.3351448E-04 Eh
 * total energy  :   -90.9918993 Eh     change       -0.2220812E-04 Eh
 * total energy  :   -90.9919171 Eh     change       -0.1771898E-04 Eh
 * total energy  :   -90.9920451 Eh     change       -0.8751462E-06 Eh
 * total energy  :   -90.9920457 Eh     change       -0.6418702E-06 Eh
 * total energy  :   -90.9920462 Eh     change       -0.4790802E-06 Eh
 * total energy  :   -90.9920466 Eh     change       -0.4406932E-06 Eh
 * total energy  :   -90.9920471 Eh     change       -0.4407345E-06 Eh
 * total energy  :   -90.9920475 Eh     change       -0.4540796E-06 Eh
 * total energy  :   -90.9920480 Eh     change       -0.4462223E-06 Eh
 * total energy  :   -90.9920484 Eh     change       -0.3974664E-06 Eh
 * total energy  :   -90.9920484 Eh     change       -0.2158686E-08 Eh
   *** GEOMETRY OPTIMIZATION CONVERGED AFTER 68 ITERATIONS ***

 final structure:
================
61
 xtb: 6.7.1 (edcfbbe)
C            3.76625579650275       -2.51794129467888        0.29873902561945
C            3.06874742009798       -1.21898537776452        0.55614621886531
C            1.73984578006876       -1.20180978928123        0.94163816212186
C            1.05808057381409       -0.00628967488239        1.17957237058406
N           -0.27784136099548       -0.00930128910644        1.53845501242564
C           -1.06813394682081        1.16072755049415        1.53436250990892
C           -0.82355137583292        2.20431597951556        2.41737924807752
C           -1.64463721965931        3.31798254654295        2.40796046718089
C           -2.71446502577846        3.38300876659768        1.53135603973631
C           -2.97745232597506        2.32872537798220        0.67162473129627
C           -2.16672067237843        1.20536741431057        0.67251719032186
C           -2.34755590332511        0.00139285751894       -0.24081789464016
C           -1.20868333606962        0.00732660583007       -1.26019764757724
C           -0.68416598384138       -1.18569842775982       -1.74326590852837
C            0.36448004705361       -1.18116229637977       -2.64584080446022
C            0.90274452712409        0.01638820359319       -3.08394936064659
C            0.37399609489888        1.20951635684893       -2.62293570198083
C           -0.67476265415311        1.20511935362108       -1.72042568166086
C           -3.70913374849727        0.00626482955569       -0.90555575482370
C           -3.86540647285471        0.02187181210982       -2.28408103359266
C           -5.13114490176179        0.02682521341402       -2.84844972772715
C           -6.25622516941896        0.01626206624211       -2.04374541995322
C           -6.11018072018283        0.00098123378363       -0.66564193462825
C           -4.84794775380684       -0.00358304208292       -0.10255051067520
C           -2.16559797135802       -1.21468598557969        0.65618052970447
C           -2.97442967080201       -2.33933282232728        0.64072689283354
C           -2.70822692742234       -3.40508863065926        1.48518721483310
C           -1.63621564969462       -3.35132686456524        2.35997925504049
C           -0.81674859818604       -2.23676095324716        2.38347844985893
C           -1.06587791341672       -1.18053557481374        1.51688696160488
C            1.74822401181564        1.19235581511181        0.98630455172817
C            3.07747199098966        1.21427784288290        0.60199696795235
C            3.78480423636083        2.51692598732451        0.39455237779507
C            3.72278199892192       -0.00132863616424        0.40359010300607
Br           5.56784324612877        0.00230941235720       -0.13135367712670
H            3.09460255826995       -3.35516184239249        0.46817985475110
H            4.63209169598463       -2.62369173757356        0.95301029811315
H            4.12526903054353       -2.55877362134319       -0.73003719575902
H            1.22082285853933       -2.14260137589696        1.02766457447639
H            0.00188593025869        2.13516171366402        3.11025038900282
H           -1.45093421365795        4.13199170375194        3.09055888813847
H           -3.35032821920180        4.25557855935519        1.51671888359379
H           -3.81206617337226        2.38893840653365       -0.01077546464731
H           -1.09674479577568       -2.12743566630858       -1.41122358660532
H            0.76392273339892       -2.11869338308125       -3.00503535011540
H            1.72739800524721        0.01985652667977       -3.78180620797104
H            0.78092633220663        2.15060150443544       -2.96399560796618
H           -1.07984491881889        2.14364550992542       -1.37059239877636
H           -2.99747483145402        0.03042781240860       -2.92663795923832
H           -5.23451156853661        0.03900249196401       -3.92394655203291
H           -7.24177126202547        0.02001617428002       -2.48596202265527
H           -6.98229779385321       -0.00707372998966       -0.02777772248317
H           -4.73852706134515       -0.01467059075966        0.97301724943573
H           -3.81004478243517       -2.39160413301826       -0.04111679276020
H           -3.34297730835422       -4.27821847067650        1.45963504843567
H           -1.43950040632224       -4.17485365517439        3.03016079920576
H            0.01170176117989       -2.17675481696486        3.07368541273854
H            1.23638696049466        2.13314655741632        1.10724822781913
H            3.11966680260685        3.35214352564291        0.59641198517571
H            4.14382759380798        2.59451997143220       -0.63211352499473
H            4.65161284767557        2.59069015434611        1.05192540065806

          :  Hamiltonian                  GFN2-xTB          :
         :: gradient norm              0.000036888053 Eh/a0 ::
         :: HOMO-LUMO gap              3.184543375899 eV    ::
         :: SCC energy               -92.626409623315 Eh    ::
         :: -> dispersion             -0.094102337358 Eh    ::
         :: -> Gsolv                  -0.034554285139 Eh    ::
         :: repulsion energy           1.634361251242 Eh    ::

    * Orbital Energies and Occupations

         #    Occupation            Energy/Eh            Energy/eV
      -------------------------------------------------------------
         1        2.0000           -0.8290031             -22.5583
       ...           ...                  ...                  ...
        73        2.0000           -0.4217605             -11.4767
        74        2.0000           -0.4176222             -11.3641
        75        2.0000           -0.4101631             -11.1611
        76        2.0000           -0.4088330             -11.1249
        77        2.0000           -0.4070667             -11.0768
        78        2.0000           -0.4055149             -11.0346
        79        2.0000           -0.4035086             -10.9800
        80        2.0000           -0.3999197             -10.8824
        81        2.0000           -0.3974406             -10.8149
        82        2.0000           -0.3959998             -10.7757
        83        2.0000           -0.3955102             -10.7624
        84        2.0000           -0.3950050             -10.7486
        85        2.0000           -0.3552784              -9.6676 (HOMO)
        86                         -0.2382485              -6.4831 (LUMO)
        87                         -0.2347846              -6.3888
        88                         -0.2308939              -6.2829
        89                         -0.2277894              -6.1985
        90                         -0.2257844              -6.1439
        91                         -0.2247776              -6.1165
        92                         -0.2242506              -6.1022
        93                         -0.2229104              -6.0657
        94                         -0.2223263              -6.0498
        95                         -0.2119061              -5.7663
        96                         -0.1944566              -5.2914
       ...                                ...                  ...
       171                          0.6718511              18.2820
      -------------------------------------------------------------
                  HL-Gap            0.1170298 Eh            3.1845 eV

     #   Z          covCN         q      C6AA      α(0)
     1   6 C        3.763    -0.101    22.470     6.757
     2   6 C        3.027     0.010    27.777     8.645
     3   6 C        2.934    -0.073    29.832     8.958
     4   6 C        2.909     0.067    26.499     8.441
     5   7 N        2.754    -0.085    22.890     7.106
     6   6 C        2.952     0.059    26.679     8.472
     7   6 C        2.920    -0.046    29.133     8.851
     8   6 C        2.920    -0.033    28.831     8.805
     9   6 C        2.919    -0.036    28.907     8.817
    10   6 C        2.920    -0.036    28.892     8.815
    11   6 C        2.993    -0.002    28.073     8.691
    12   6 C        3.925     0.012    20.320     6.406
    13   6 C        2.980     0.014    27.697     8.633
    14   6 C        2.924    -0.035    28.879     8.813
    15   6 C        2.920    -0.031    28.762     8.795
    16   6 C        2.919    -0.032    28.801     8.801
    17   6 C        2.920    -0.031    28.763     8.795
    18   6 C        2.924    -0.035    28.880     8.813
    19   6 C        2.975     0.012    27.732     8.638
    20   6 C        2.922    -0.036    28.890     8.814
    21   6 C        2.920    -0.031    28.765     8.795
    22   6 C        2.919    -0.032    28.807     8.802
    23   6 C        2.919    -0.031    28.779     8.797
    24   6 C        2.925    -0.032    28.807     8.802
    25   6 C        2.993    -0.002    28.074     8.691
    26   6 C        2.920    -0.036    28.892     8.815
    27   6 C        2.919    -0.036    28.908     8.817
    28   6 C        2.920    -0.033    28.831     8.805
    29   6 C        2.920    -0.046    29.131     8.851
    30   6 C        2.952     0.059    26.680     8.472
    31   6 C        2.934    -0.074    29.837     8.958
    32   6 C        3.027     0.010    27.777     8.645
    33   6 C        3.763    -0.101    22.471     6.757
    34   6 C        2.926     0.043    27.026     8.525
    35  35 Br       1.061    -0.220   191.192    22.295
    36   1 H        0.925     0.045     2.386     2.416
    37   1 H        0.924     0.055     2.258     2.350
    38   1 H        0.924     0.054     2.273     2.358
    39   1 H        0.926     0.039     2.467     2.456
    40   1 H        0.926     0.041     2.435     2.440
    41   1 H        0.926     0.039     2.465     2.455
    42   1 H        0.926     0.037     2.484     2.464
    43   1 H        0.926     0.037     2.486     2.466
    44   1 H        0.926     0.030     2.592     2.518
    45   1 H        0.926     0.032     2.563     2.503
    46   1 H        0.926     0.031     2.577     2.510
    47   1 H        0.926     0.032     2.565     2.504
    48   1 H        0.926     0.030     2.593     2.518
    49   1 H        0.926     0.029     2.594     2.519
    50   1 H        0.926     0.031     2.569     2.507
    51   1 H        0.926     0.032     2.560     2.502
    52   1 H        0.926     0.032     2.554     2.499
    53   1 H        0.926     0.031     2.574     2.509
    54   1 H        0.926     0.037     2.486     2.465
    55   1 H        0.926     0.037     2.484     2.465
    56   1 H        0.926     0.039     2.465     2.455
    57   1 H        0.926     0.041     2.437     2.441
    58   1 H        0.926     0.039     2.461     2.453
    59   1 H        0.925     0.045     2.386     2.415
    60   1 H        0.924     0.054     2.273     2.357
    61   1 H        0.924     0.055     2.258     2.350

molecular dipole:
                 x           y           z       tot (Debye)
 q only:       -1.570      -0.001       0.319
   full:       -2.019      -0.002       0.379       5.221

 projected vibrational frequencies (cm⁻¹)
eigval :       -0.00     0.00     0.00     0.00     0.00     0.00
eigval :       15.32    20.23    23.09    43.00    43.84    47.30
eigval :       60.46    74.24    85.18    86.64    87.44   148.85
eigval :      149.85   155.43   158.80   167.78   176.75   184.47
eigval :      218.71   224.30   226.63   241.38   243.86   257.74
eigval :      262.74   283.89   295.72   313.63   319.27   346.69
eigval :      371.96   375.44   390.28   395.01   450.25   456.09
eigval :      472.76   479.15   490.79   495.53   505.75   510.45
eigval :      518.81   519.61   547.99   571.82   587.67   588.01
eigval :      605.58   606.14   607.79   612.54   634.07   635.20
eigval :      672.66   673.51   688.52   698.71   720.23   753.72
eigval :      757.38   781.93   783.01   803.44   821.85   857.62
eigval :      877.83   879.86   889.01   889.50   892.72   904.32
eigval :      905.59   907.82   918.22   919.87   921.54   930.08
eigval :      931.25   933.32   934.98   935.12   935.67   937.56
eigval :      985.14   993.55   995.40   995.71  1002.29  1027.01
eigval :     1032.49  1048.53  1053.16  1086.37  1089.30  1092.07
eigval :     1094.60  1112.08  1123.65  1127.74  1128.29  1174.92
eigval :     1179.17  1179.60  1179.79  1181.82  1194.23  1200.63
eigval :     1203.18  1207.35  1217.49  1241.24  1244.40  1254.93
eigval :     1260.67  1268.02  1286.56  1286.81  1291.00  1316.24
eigval :     1316.64  1321.06  1326.81  1331.32  1373.70  1403.60
eigval :     1404.12  1430.09  1430.31  1432.85  1439.42  1442.51
eigval :     1446.00  1450.89  1472.34  1472.81  1473.16  1473.51
eigval :     1476.96  1484.42  1484.60  1569.02  1574.90  1580.78
eigval :     1582.02  1584.41  1586.98  1588.25  1597.11  1599.46
eigval :     1602.34  2994.26  2994.47  3009.15  3010.10  3046.09
eigval :     3047.22  3067.39  3068.64  3070.99  3071.43  3076.78
eigval :     3077.80  3078.03  3080.07  3082.70  3082.94  3084.43
eigval :     3084.92  3089.57  3089.87  3091.06  3092.16  3096.38
eigval :     3097.35  3108.63  3110.76

   temp. (K)  partition function   enthalpy   heat capacity  entropy
                                   cal/mol     cal/K/mol   cal/K/mol   J/K/mol
 298.15  VIB  0.474E+13            17129.710    108.388    105.704
         ROT  0.286E+08              888.752      2.981     37.102
         INT  0.136E+21            18018.463    111.368    142.806
         TR   0.114E+29             1481.254      4.968     44.592
         TOT                       19499.7165   116.3366   187.3974   784.0709

       T/K    H(0)-H(T)+PV         H(T)/Eh          T*S/Eh         G(T)/Eh
   ------------------------------------------------------------------------
    298.15    0.310748E-01    0.508943E+00    0.890386E-01    0.419904E+00
   ------------------------------------------------------------------------

         :::::::::::::::::::::::::::::::::::::::::::::::::::::
         ::                  THERMODYNAMIC                  ::
         :::::::::::::::::::::::::::::::::::::::::::::::::::::
         :: total free energy         -90.572144349976 Eh   ::
         ::.................................................::
         :: total energy              -90.992048372223 Eh   ::
         :: zero point energy           0.477867812912 Eh   ::
         :: G(RRHO) w/o ZPVE           -0.057963790665 Eh   ::
         :: G(RRHO) contrib.            0.419904022247 Eh   ::
         :::::::::::::::::::::::::::::::::::::::::::::::::::::

           -------------------------------------------------
          | TOTAL ENERGY              -90.992048372223 Eh   |
          | TOTAL ENTHALPY            -90.483105783041 Eh   |
          | TOTAL FREE ENERGY         -90.572144349976 Eh   |
          | GRADIENT NORM               0.000036899553 Eh/α |
          | HOMO-LUMO GAP               3.184543375552 eV   |
           -------------------------------------------------

 * finished run on 2025/08/22 at 08:57:39.408
