   * xtb version 6.7.1 (edcfbbe) compiled by 'albert@albert-system' on 2024-07-22

   ID    Z sym.   atoms
    1    6 C      1-4, 6-34
    2    7 N      5
    3   35 Br     35
    4    1 H      36-61

          program call               : xtb data2507/toluene/DPACpBr/DPACpBr_toluene_T1_crest.xyz --gfn 2 --uhf 2 --gbsa toluene --ohess vtight --parallel 40 --molden --ceasefiles --namespace data2507/toluene/DPACpBr/DPACpBr_toluene_T1_finalOpt
      * Solvation model:               GBSA
        Solvent                        toluene
        Solvent mass                       9.2140E+01 g/mol
          :  Hamiltonian                  GFN2-xTB          :
 * total energy  :   -90.8811591 Eh     change       -0.1047013E-08 Eh
 * total energy  :   -90.8813688 Eh     change       -0.2096637E-03 Eh
 * total energy  :   -90.8814670 Eh     change       -0.9821229E-04 Eh
 * total energy  :   -90.8815105 Eh     change       -0.4354147E-04 Eh
 * total energy  :   -90.8815707 Eh     change       -0.6011106E-04 Eh
 * total energy  :   -90.8816157 Eh     change       -0.4505216E-04 Eh
 * total energy  :   -90.8816693 Eh     change       -0.5359960E-04 Eh
 * total energy  :   -90.8817362 Eh     change       -0.6691611E-04 Eh
 * total energy  :   -90.8817719 Eh     change       -0.3567706E-04 Eh
 * total energy  :   -90.8817942 Eh     change       -0.2224704E-04 Eh
 * total energy  :   -90.8820689 Eh     change       -0.9041999E-06 Eh
 * total energy  :   -90.8820697 Eh     change       -0.7974890E-06 Eh
 * total energy  :   -90.8820703 Eh     change       -0.6796776E-06 Eh
 * total energy  :   -90.8820709 Eh     change       -0.5440631E-06 Eh
 * total energy  :   -90.8820713 Eh     change       -0.4180955E-06 Eh
 * total energy  :   -90.8820716 Eh     change       -0.2869042E-06 Eh
 * total energy  :   -90.8820717 Eh     change       -0.1488386E-06 Eh
 * total energy  :   -90.8820718 Eh     change       -0.1152684E-06 Eh
 * total energy  :   -90.8820719 Eh     change       -0.9450764E-07 Eh
   *** GEOMETRY OPTIMIZATION CONVERGED AFTER 60 ITERATIONS ***

 final structure:
================
61
 xtb: 6.7.1 (edcfbbe)
C            3.96906817912682        1.12837702095001        2.54826670809012
C            3.21189476987115        1.23803146594992        1.26476245519319
C            1.83760130723300        1.33333146083296        1.25102794725501
C            1.12544983688611        1.47233760739868        0.04178209731951
N           -0.23940314256343        1.58192324302028        0.04509062449732
C           -1.02908450065772        1.58565882287232       -1.12291934736526
C           -0.84864707177011        2.52360500785864       -2.13268960756317
C           -1.66465352627925        2.49179477025849       -3.24955217427131
C           -2.66126060021515        1.53596038002665       -3.35298557531563
C           -2.86861280287471        0.62884286647634       -2.32588975752486
C           -2.07128479240466        0.65582178055330       -1.19346051464869
C           -2.21957589982596       -0.28824276355203       -0.01106366777830
C           -1.05239593275004       -1.27600635111786       -0.01910781261244
C           -0.58964714495443       -1.82174237317794        1.17278688506141
C            0.47145690441589       -2.70944969400290        1.17586785542620
C            1.08450103368655       -3.06750872730283       -0.01253734246365
C            0.62287092687591       -2.53709526039866       -1.20438248508568
C           -0.43989424895722       -1.65042929381874       -1.20860448019268
C           -3.56228549945436       -0.99480466223685       -0.04205309612867
C           -3.67579107394714       -2.37490856284942       -0.12672437612329
C           -4.92424104595513       -2.97591181407476       -0.15885452585417
C           -6.07301858086697       -2.20685475142005       -0.10771031894907
C           -5.96882244536435       -0.82721551803964       -0.02687174939474
C           -4.72414635169379       -0.22697132024318        0.00403951266562
C           -2.07636637933953        0.58766645851905        1.22445767779958
C           -2.87332688778966        0.49693138248261        2.35384370711507
C           -2.65730481128460        1.33589822264975        3.43567151763590
C           -1.64887602515642        2.28414144338858        3.39416693410108
C           -0.83310830785941        2.37847681885059        2.28095673952037
C           -1.02626232014931        1.51083444917963        1.21226585734803
C            1.84609041810531        1.46640161575646       -1.16990700078872
C            3.22116892267943        1.37944824530988       -1.18361081630514
C            3.98908421804942        1.43354201735125       -2.46431100100897
C            3.88315265317920        1.19329492761252        0.03634768074107
Br           5.11315766050828       -0.94586548430977       -0.08688133947398
H            4.66717802874738        1.95965311131062        2.64203306901063
H            4.55703825649279        0.21138450034410        2.54952862922370
H            3.29863639028995        1.12409568519847        3.40358609887650
H            1.30370023116712        1.27867078600409        2.18703625464172
H           -0.08946233689737        3.28413642741697       -2.03014149917211
H           -1.52239268605722        3.21739933350127       -4.03577502397816
H           -3.28923900204312        1.50158625342289       -4.23015274293455
H           -3.65266397591244       -0.10792041165873       -2.41021309348030
H           -1.06145593244874       -1.55348820870721        2.10687132249282
H            0.82322492680620       -3.12049179282444        2.11102093294282
H            1.91881804855701       -3.75334801680157       -0.00977766640853
H            1.09447652403406       -2.81162452645308       -2.13683516344924
H           -0.79271433759217       -1.25017796694765       -2.14791189716788
H           -2.78914486302642       -2.98959892211795       -0.16906474645690
H           -4.99472726016695       -4.05202648646122       -0.22463000075655
H           -7.04465471142061       -2.67813886297116       -0.13209742524845
H           -6.85980547524289       -0.21740632353182        0.01102483946300
H           -4.64818498775739        0.84966942804072        0.06351326567156
H           -3.66539684184873       -0.23508671501293        2.39284116709081
H           -3.28641439420201        1.25309216535619        4.30880493170358
H           -1.49790916525916        2.95564911787647        4.22547768430166
H           -0.06174318885042        3.13182395660942        2.22697107208533
H            1.32036864243203        1.51509917165849       -2.11062252932070
H            4.64209111397988        0.56539570397952       -2.53947173561121
H            4.62438503625968        2.31907293689091       -2.47802264252253
H            3.32414960845817        1.45822622523686       -3.32365084642284

          :  Hamiltonian                  GFN2-xTB          :
         :: gradient norm              0.000048558534 Eh/a0 ::
         :: HOMO-LUMO gap              1.643989224143 eV    ::
         :: SCC energy               -92.506648017075 Eh    ::
         :: -> dispersion             -0.091594588818 Eh    ::
         :: -> Gsolv                  -0.044433709927 Eh    ::
         :: repulsion energy           1.624576074197 Eh    ::

    * Orbital Energies and Occupations

         #    Occupation            Energy/Eh            Energy/eV
      -------------------------------------------------------------
         1        2.0000           -0.7930962             -21.5812
       ...           ...                  ...                  ...
        74        2.0000           -0.4164759             -11.3329
        75        2.0000           -0.4145442             -11.2803
        76        2.0000           -0.4122959             -11.2191
        77        2.0000           -0.4084576             -11.1147
        78        2.0000           -0.4069666             -11.0741
        79        2.0000           -0.4007305             -10.9044
        80        2.0000           -0.3995908             -10.8734
        81        2.0000           -0.3991440             -10.8613
        82        2.0000           -0.3896038             -10.6017
        83        2.0000           -0.3710849             -10.0977
        84        1.9987           -0.3663076              -9.9677
        85        1.0013           -0.3536379              -9.6230
        86        1.0000           -0.3054700              -8.3123 (HOMO)
        87                         -0.2450549              -6.6683 (LUMO)
        88                         -0.2429458              -6.6109
        89                         -0.2389808              -6.5030
        90                         -0.2361780              -6.4267
        91                         -0.2287848              -6.2256
        92                         -0.2270182              -6.1775
        93                         -0.2263562              -6.1595
        94                         -0.2252403              -6.1291
        95                         -0.2237736              -6.0892
        96                         -0.2062177              -5.6115
        97                         -0.1170168              -3.1842
       ...                                ...                  ...
       171                          0.6646481              18.0860
      -------------------------------------------------------------
                  HL-Gap            0.0604151 Eh            1.6440 eV

     #   Z          covCN         q      C6AA      α(0)
     1   6 C        3.758    -0.105    22.550     6.770
     2   6 C        2.959     0.034    27.231     8.559
     3   6 C        2.927    -0.061    29.513     8.909
     4   6 C        2.909     0.070    26.441     8.432
     5   7 N        2.756    -0.025    21.732     6.924
     6   6 C        2.954     0.054    26.779     8.488
     7   6 C        2.919    -0.040    29.006     8.832
     8   6 C        2.920    -0.029    28.736     8.791
     9   6 C        2.919    -0.030    28.749     8.793
    10   6 C        2.921    -0.031    28.785     8.798
    11   6 C        2.992     0.004    27.925     8.668
    12   6 C        3.924     0.010    20.339     6.409
    13   6 C        2.980     0.012    27.735     8.639
    14   6 C        2.924    -0.036    28.899     8.816
    15   6 C        2.920    -0.029    28.718     8.788
    16   6 C        2.919    -0.028    28.690     8.784
    17   6 C        2.920    -0.028    28.703     8.786
    18   6 C        2.923    -0.036    28.900     8.816
    19   6 C        2.975     0.013    27.724     8.637
    20   6 C        2.922    -0.035    28.869     8.811
    21   6 C        2.920    -0.030    28.741     8.791
    22   6 C        2.919    -0.031    28.779     8.797
    23   6 C        2.919    -0.030    28.759     8.794
    24   6 C        2.925    -0.033    28.827     8.805
    25   6 C        2.993     0.004    27.925     8.668
    26   6 C        2.921    -0.031    28.784     8.798
    27   6 C        2.919    -0.030    28.751     8.793
    28   6 C        2.920    -0.029    28.735     8.790
    29   6 C        2.919    -0.040    29.001     8.831
    30   6 C        2.954     0.054    26.785     8.489
    31   6 C        2.927    -0.061    29.522     8.911
    32   6 C        2.959     0.035    27.226     8.558
    33   6 C        3.758    -0.105    22.555     6.771
    34   6 C        2.545    -0.048    29.266     8.842
    35  35 Br       0.541    -0.442   192.346    22.341
    36   1 H        0.925     0.056     2.248     2.345
    37   1 H        0.925     0.063     2.166     2.302
    38   1 H        0.925     0.044     2.397     2.421
    39   1 H        0.926     0.048     2.344     2.394
    40   1 H        0.926     0.051     2.312     2.378
    41   1 H        0.926     0.048     2.339     2.392
    42   1 H        0.926     0.047     2.355     2.400
    43   1 H        0.926     0.047     2.352     2.398
    44   1 H        0.926     0.033     2.539     2.492
    45   1 H        0.926     0.032     2.556     2.500
    46   1 H        0.926     0.030     2.583     2.513
    47   1 H        0.926     0.031     2.568     2.506
    48   1 H        0.926     0.032     2.560     2.502
    49   1 H        0.926     0.032     2.563     2.504
    50   1 H        0.926     0.032     2.553     2.498
    51   1 H        0.926     0.033     2.539     2.492
    52   1 H        0.926     0.035     2.519     2.482
    53   1 H        0.926     0.034     2.537     2.491
    54   1 H        0.926     0.048     2.346     2.395
    55   1 H        0.926     0.047     2.354     2.399
    56   1 H        0.926     0.048     2.339     2.392
    57   1 H        0.926     0.050     2.318     2.381
    58   1 H        0.926     0.049     2.332     2.388
    59   1 H        0.925     0.063     2.165     2.301
    60   1 H        0.925     0.056     2.246     2.343
    61   1 H        0.925     0.044     2.393     2.419

molecular dipole:
                 x           y           z       tot (Debye)
 q only:       -4.235       1.840       0.109
   full:       -4.334       1.825       0.110      11.956

 projected vibrational frequencies (cm⁻¹)
eigval :       -0.00    -0.00     0.00     0.00     0.00     0.00
eigval :       13.87    20.08    26.85    28.30    44.62    57.76
eigval :       59.16    68.88    81.07    83.88    84.93    88.59
eigval :      105.36   115.25   123.71   154.70   159.33   169.57
eigval :      199.61   208.53   216.28   230.64   241.57   245.78
eigval :      263.06   272.25   275.85   297.66   318.31   330.86
eigval :      366.85   372.84   376.72   389.80   433.44   448.62
eigval :      456.69   464.56   468.35   478.42   490.88   503.87
eigval :      509.96   512.74   526.94   551.25   588.02   588.15
eigval :      603.13   604.91   606.82   612.24   634.53   639.63
eigval :      672.66   675.39   687.95   695.04   717.41   754.14
eigval :      755.89   778.83   781.58   799.05   825.48   832.35
eigval :      876.97   882.72   887.67   891.25   892.68   901.04
eigval :      907.30   907.85   913.84   919.74   922.27   924.51
eigval :      929.66   930.40   931.99   933.32   934.35   935.17
eigval :      937.71   979.58   987.38   989.39  1001.44  1018.42
eigval :     1022.00  1045.22  1046.95  1085.85  1089.44  1093.45
eigval :     1094.74  1109.45  1115.28  1126.08  1128.63  1170.17
eigval :     1175.87  1179.16  1179.61  1182.23  1188.30  1200.31
eigval :     1203.09  1206.81  1214.46  1222.67  1237.03  1252.73
eigval :     1255.07  1259.91  1274.39  1286.77  1288.71  1315.19
eigval :     1316.50  1319.24  1325.23  1328.65  1335.63  1393.24
eigval :     1394.43  1410.88  1419.60  1428.98  1431.27  1432.87
eigval :     1434.53  1443.31  1458.26  1459.57  1463.79  1470.79
eigval :     1472.18  1472.40  1474.73  1485.62  1538.85  1567.86
eigval :     1575.62  1578.11  1586.36  1587.89  1588.01  1598.67
eigval :     1601.08  3000.73  3004.07  3021.18  3026.21  3038.94
eigval :     3039.72  3069.30  3071.81  3072.20  3073.80  3079.03
eigval :     3082.36  3085.61  3085.95  3085.96  3087.51  3087.81
eigval :     3089.26  3090.83  3091.00  3093.55  3095.28  3097.59
eigval :     3097.98  3103.54  3104.17

   temp. (K)  partition function   enthalpy   heat capacity  entropy
                                   cal/mol     cal/K/mol   cal/K/mol   J/K/mol
 298.15  VIB  0.323E+14            17645.486    109.364    110.717
         ROT  0.285E+08              888.752      2.981     37.096
         INT  0.922E+21            18534.238    112.345    147.813
         TR   0.114E+29             1481.254      4.968     44.592
         TOT                       20015.4918   117.3127   192.4044   805.0202

       T/K    H(0)-H(T)+PV         H(T)/Eh          T*S/Eh         G(T)/Eh
   ------------------------------------------------------------------------
    298.15    0.318967E-01    0.507230E+00    0.914176E-01    0.415812E+00
   ------------------------------------------------------------------------

         :::::::::::::::::::::::::::::::::::::::::::::::::::::
         ::                  THERMODYNAMIC                  ::
         :::::::::::::::::::::::::::::::::::::::::::::::::::::
         :: total free energy         -90.466259574492 Eh   ::
         ::.................................................::
         :: total energy              -90.882071938466 Eh   ::
         :: zero point energy           0.475333207728 Eh   ::
         :: G(RRHO) w/o ZPVE           -0.059520843755 Eh   ::
         :: G(RRHO) contrib.            0.415812363973 Eh   ::
         :::::::::::::::::::::::::::::::::::::::::::::::::::::

           -------------------------------------------------
          | TOTAL ENERGY              -90.882071938466 Eh   |
          | TOTAL ENTHALPY            -90.374842014176 Eh   |
          | TOTAL FREE ENERGY         -90.466259574492 Eh   |
          | GRADIENT NORM               0.000048410860 Eh/α |
          | HOMO-LUMO GAP               1.643979047463 eV   |
           -------------------------------------------------

 * finished run on 2025/08/22 at 09:00:59.878
