   * xtb version 6.7.1 (edcfbbe) compiled by 'albert@albert-system' on 2024-07-22

   ID    Z sym.   atoms
    1    6 C      1-4, 6-34
    2    7 N      5
    3   35 Br     35
    4    1 H      36-61

          program call               : xtb data2507/toluene/DPACpBr/DPACpBr_toluene_S0_finalOpt.xtbopt.xyz --gfn 2 --uhf 2 --gbsa toluene --ohess vtight --parallel 40 --molden --ceasefiles --namespace data2507/toluene/DPACpBr/DPACpBr_toluene_T1_preOpt
      * Solvation model:               GBSA
        Solvent                        toluene
        Solvent mass                       9.2140E+01 g/mol
          :  Hamiltonian                  GFN2-xTB          :
 * total energy  :   -90.8684523 Eh     change       -0.6937810E-08 Eh
 * total energy  :   -90.8736948 Eh     change       -0.5242412E-02 Eh
 * total energy  :   -90.8751867 Eh     change       -0.1491953E-02 Eh
 * total energy  :   -90.8754642 Eh     change       -0.2774665E-03 Eh
 * total energy  :   -90.8757396 Eh     change       -0.2754293E-03 Eh
 * total energy  :   -90.8758546 Eh     change       -0.1150318E-03 Eh
 * total energy  :   -90.8759673 Eh     change       -0.1127029E-03 Eh
 * total energy  :   -90.8760783 Eh     change       -0.1110039E-03 Eh
 * total energy  :   -90.8761751 Eh     change       -0.9675185E-04 Eh
 * total energy  :   -90.8762634 Eh     change       -0.8831495E-04 Eh
 * total energy  :   -90.8773703 Eh     change       -0.4510980E-06 Eh
 * total energy  :   -90.8773708 Eh     change       -0.4849366E-06 Eh
 * total energy  :   -90.8773712 Eh     change       -0.4959996E-06 Eh
 * total energy  :   -90.8773717 Eh     change       -0.4666467E-06 Eh
 * total energy  :   -90.8773721 Eh     change       -0.4177495E-06 Eh
 * total energy  :   -90.8773725 Eh     change       -0.3662110E-06 Eh
 * total energy  :   -90.8773728 Eh     change       -0.3180389E-06 Eh
 * total energy  :   -90.8773730 Eh     change       -0.1936256E-06 Eh
 * total energy  :   -90.8773731 Eh     change       -0.7046211E-07 Eh
   *** GEOMETRY OPTIMIZATION CONVERGED AFTER 152 ITERATIONS ***

 final structure:
================
61
 xtb: 6.7.1 (edcfbbe)
C            4.03750680407291       -2.53246807626231        0.88295441050299
C            3.27343529274926       -1.25097907548980        0.98692721270976
C            1.91305277868950       -1.23385505681120        0.95147274117664
C            1.17182203229153       -0.00870294023312        1.05207772908967
N           -0.18316651151747       -0.01018159696785        1.16365522261237
C           -0.96555429567163        1.14247542725663        1.25705752439489
C           -0.66531551549844        2.17843639439823        2.15644243970144
C           -1.48719493725563        3.27788421513023        2.23580848802846
C           -2.61959433835682        3.36948758414037        1.42801324742221
C           -2.94809835242352        2.32102978831380        0.57179602729740
C           -2.15508303307269        1.19724096249170        0.49282424091645
C           -2.42373901540316        0.00256416383224       -0.40414688170407
C           -1.40574630841907        0.01136544025999       -1.54581785710425
C           -0.93935779020711       -1.18097624755145       -2.08631587719407
C           -0.00139609670556       -1.17375627803405       -3.10357905003454
C            0.48154342561470        0.02570464873398       -3.59822018157537
C            0.00872900865885        1.21812363653609       -3.07752987366727
C           -0.92927349767936        1.21118754933640       -2.06025732178579
C           -3.84986840110353        0.00810303295372       -0.91998608783299
C           -4.15364084467414        0.02769946223062       -2.27350998445276
C           -5.47264120636744        0.03322277951223       -2.69894933653557
C           -6.50483989426879        0.01925853200669       -1.77829386157181
C           -6.21125039597095        0.00043550438298       -0.42397713082091
C           -4.89597562142657       -0.00478383453496        0.00037857404909
C           -2.15448668520916       -1.20720732854895        0.47228252970099
C           -2.94609737509573       -2.33323610662565        0.53144517842410
C           -2.61722669274773       -3.39555733967211        1.37022491101717
C           -1.48591695977825       -3.31616771346674        2.18083017921936
C           -0.66501700866187       -2.21479780325411        2.12035053797689
C           -0.96524530014935       -1.16451211895556        1.23778834857243
C            1.91127713694989        1.21882168275511        0.96867782279270
C            3.27163540538442        1.23758706081154        1.00426456113211
C            4.03356759750244        2.52172404722386        0.91864249063027
C            3.96655229702065       -0.00687896287042        1.09872309192767
Br           5.86161669031822       -0.00577128799364        1.12718985460551
H            3.35825133963550       -3.37736084132649        0.80710063529103
H            4.67353189912063       -2.67053056399472        1.75805212987833
H            4.68392387421582       -2.52266269543143        0.00444004714418
H            1.37645058425679       -2.15740382517855        0.80889267462434
H            0.19179994924787        2.08163018253785        2.80589022371184
H           -1.25542478005574        4.07162465656926        2.93036417049348
H           -3.25189462043604        4.24222542635139        1.47545607086128
H           -3.83432310448661        2.39522690309468       -0.04087604148193
H           -1.31213253369023       -2.12245124612851       -1.70929135224926
H            0.35418778047552       -2.11005503271768       -3.50922660651019
H            1.21882778740526        0.03119002448083       -4.38778685128433
H            0.37226610365555        2.15997878237177       -3.46274351028156
H           -1.29418910804856        2.14741722072163       -1.66300420448968
H           -3.36036582278107        0.03877882362882       -3.00594584206856
H           -5.69062071116623        0.04838480682820       -3.75723823819066
H           -7.53238321147520        0.02338269910561       -2.11171343556116
H           -7.00981725403981       -0.00998713053505        0.30388778354767
H           -4.67184808655357       -0.01885432608238        1.05780496996428
H           -3.83171839064092       -2.39834823981915       -0.08313979684400
H           -3.24861765861396       -4.26965746222725        1.40235335781844
H           -1.25419263517056       -4.12090080892537        2.86262575471111
H            0.19111967901648       -2.12752461172048        2.77244162096308
H            1.37321676096050        2.14343268714884        0.83911110612080
H            3.35284764519748        3.36639043144056        0.85415578253041
H            4.68060490821714        2.52541316066469        0.04054608086442
H            4.66875299912821        2.64868441609003        1.79602915438961

          :  Hamiltonian                  GFN2-xTB          :
         :: gradient norm              0.000082939806 Eh/a0 ::
         :: HOMO-LUMO gap              0.404905401663 eV    ::
         :: SCC energy               -92.489803777643 Eh    ::
         :: -> dispersion             -0.091068169141 Eh    ::
         :: -> Gsolv                  -0.035116042135 Eh    ::
         :: repulsion energy           1.612430698417 Eh    ::

    * Orbital Energies and Occupations

         #    Occupation            Energy/Eh            Energy/eV
      -------------------------------------------------------------
         1        2.0000           -0.8352068             -22.7271
       ...           ...                  ...                  ...
        74        2.0000           -0.4177314             -11.3671
        75        2.0000           -0.4091154             -11.1326
        76        2.0000           -0.4073033             -11.0833
        77        2.0000           -0.4053795             -11.0309
        78        2.0000           -0.4050483             -11.0219
        79        2.0000           -0.4038853             -10.9903
        80        2.0000           -0.4006768             -10.9030
        81        2.0000           -0.3967762             -10.7968
        82        2.0000           -0.3962684             -10.7830
        83        2.0000           -0.3933774             -10.7043
        84        2.0000           -0.3932792             -10.7017
        85        1.0000           -0.3550817              -9.6623
        86        0.9996           -0.2460056              -6.6942 (HOMO)
        87        0.0004           -0.2311252              -6.2892 (LUMO)
        88        0.0000           -0.2287940              -6.2258
        89        0.0000           -0.2266973              -6.1687
        90        0.0000           -0.2243039              -6.1036
        91                         -0.2231164              -6.0713
        92                         -0.2220752              -6.0430
        93                         -0.2198480              -5.9824
        94                         -0.2172890              -5.9127
        95                         -0.2127280              -5.7886
        96                         -0.1918729              -5.2211
        97                         -0.1157754              -3.1504
       ...                                ...                  ...
       171                          0.6748709              18.3642
      -------------------------------------------------------------
                  HL-Gap            0.0148803 Eh            0.4049 eV

     #   Z          covCN         q      C6AA      α(0)
     1   6 C        3.763    -0.103    22.506     6.762
     2   6 C        3.013     0.005    27.896     8.664
     3   6 C        2.919    -0.061    29.508     8.908
     4   6 C        2.908     0.023    27.492     8.598
     5   7 N        2.752     0.016    20.973     6.802
     6   6 C        2.966     0.034    27.229     8.559
     7   6 C        2.915    -0.045    29.114     8.848
     8   6 C        2.916    -0.036    28.903     8.816
     9   6 C        2.917    -0.046    29.147     8.853
    10   6 C        2.917    -0.037    28.908     8.817
    11   6 C        2.991    -0.003    28.080     8.692
    12   6 C        3.924     0.010    20.344     6.410
    13   6 C        2.979     0.013    27.726     8.637
    14   6 C        2.923    -0.035    28.882     8.813
    15   6 C        2.919    -0.031    28.766     8.795
    16   6 C        2.919    -0.033    28.812     8.802
    17   6 C        2.919    -0.031    28.766     8.795
    18   6 C        2.923    -0.035    28.883     8.813
    19   6 C        2.975     0.014    27.699     8.633
    20   6 C        2.923    -0.036    28.895     8.815
    21   6 C        2.920    -0.031    28.771     8.796
    22   6 C        2.919    -0.033    28.813     8.802
    23   6 C        2.919    -0.031    28.779     8.797
    24   6 C        2.925    -0.032    28.799     8.801
    25   6 C        2.991    -0.003    28.080     8.692
    26   6 C        2.917    -0.036    28.907     8.817
    27   6 C        2.917    -0.046    29.147     8.853
    28   6 C        2.916    -0.036    28.903     8.816
    29   6 C        2.915    -0.045    29.113     8.848
    30   6 C        2.966     0.034    27.229     8.559
    31   6 C        2.919    -0.061    29.507     8.908
    32   6 C        3.013     0.005    27.896     8.664
    33   6 C        3.763    -0.103    22.506     6.762
    34   6 C        2.916     0.035    27.220     8.555
    35  35 Br       1.052    -0.178   189.978    22.224
    36   1 H        0.925     0.045     2.383     2.414
    37   1 H        0.924     0.055     2.264     2.353
    38   1 H        0.924     0.052     2.292     2.368
    39   1 H        0.926     0.045     2.388     2.416
    40   1 H        0.926     0.038     2.471     2.458
    41   1 H        0.926     0.034     2.527     2.486
    42   1 H        0.926     0.030     2.580     2.512
    43   1 H        0.926     0.033     2.539     2.492
    44   1 H        0.926     0.031     2.578     2.511
    45   1 H        0.926     0.031     2.566     2.505
    46   1 H        0.926     0.031     2.573     2.508
    47   1 H        0.926     0.031     2.566     2.505
    48   1 H        0.926     0.031     2.579     2.511
    49   1 H        0.926     0.030     2.581     2.512
    50   1 H        0.926     0.031     2.570     2.507
    51   1 H        0.926     0.031     2.565     2.505
    52   1 H        0.926     0.032     2.561     2.502
    53   1 H        0.926     0.031     2.575     2.509
    54   1 H        0.926     0.033     2.538     2.491
    55   1 H        0.926     0.030     2.580     2.512
    56   1 H        0.926     0.034     2.527     2.486
    57   1 H        0.926     0.038     2.471     2.458
    58   1 H        0.926     0.045     2.388     2.416
    59   1 H        0.925     0.045     2.382     2.414
    60   1 H        0.924     0.052     2.292     2.368
    61   1 H        0.924     0.055     2.264     2.353

molecular dipole:
                 x           y           z       tot (Debye)
 q only:       -0.961      -0.001      -0.087
   full:       -1.314      -0.001      -0.113       3.352

 projected vibrational frequencies (cm⁻¹)
eigval :       -0.00    -0.00    -0.00    -0.00     0.00     0.00
eigval :       15.54    25.12    30.53    39.35    43.72    49.77
eigval :       58.50    71.98    79.96    83.61    84.35   123.45
eigval :      143.74   158.59   168.23   169.77   174.93   187.56
eigval :      207.08   216.05   229.24   242.90   244.24   245.56
eigval :      265.56   268.51   282.57   313.01   317.03   343.69
eigval :      370.36   374.81   381.00   399.33   433.44   436.86
eigval :      455.40   456.95   457.98   460.73   491.70   496.01
eigval :      501.50   504.19   526.12   548.91   565.41   587.28
eigval :      587.95   594.69   597.81   601.30   607.79   628.45
eigval :      663.58   670.62   676.34   681.67   686.42   748.02
eigval :      750.93   755.97   758.53   787.21   798.24   800.82
eigval :      864.11   868.44   879.28   880.41   882.01   891.98
eigval :      896.62   897.64   904.95   907.26   913.80   915.61
eigval :      918.74   921.33   931.22   931.73   934.38   937.31
eigval :      942.20   959.56   964.73   984.70  1000.04  1016.27
eigval :     1023.90  1030.61  1040.33  1073.74  1077.07  1086.31
eigval :     1088.41  1100.13  1106.27  1125.58  1127.05  1139.10
eigval :     1159.88  1160.91  1166.54  1174.46  1179.87  1180.39
eigval :     1182.12  1198.26  1204.18  1207.74  1233.55  1238.20
eigval :     1239.89  1246.38  1263.02  1264.43  1287.59  1287.63
eigval :     1313.04  1317.13  1317.74  1332.52  1334.27  1348.83
eigval :     1356.53  1373.33  1397.22  1400.48  1404.56  1405.26
eigval :     1431.42  1432.52  1447.33  1462.55  1471.24  1471.60
eigval :     1472.79  1473.09  1474.28  1476.91  1483.66  1508.98
eigval :     1528.69  1542.37  1585.29  1586.46  1596.70  1600.44
eigval :     1611.25  2986.54  2986.77  3002.81  3004.10  3044.06
eigval :     3044.60  3067.68  3067.93  3070.17  3070.60  3076.52
eigval :     3076.71  3077.22  3078.77  3082.92  3083.42  3083.83
eigval :     3085.87  3087.84  3088.32  3090.02  3093.59  3098.89
eigval :     3099.45  3105.72  3107.97

   temp. (K)  partition function   enthalpy   heat capacity  entropy
                                   cal/mol     cal/K/mol   cal/K/mol   J/K/mol
 298.15  VIB  0.554E+13            17479.331    110.618    107.668
         ROT  0.309E+08              888.752      2.981     37.254
         INT  0.171E+21            18368.083    113.599    144.922
         TR   0.114E+29             1481.254      4.968     44.592
         TOT                       19849.3374   118.5671   189.5136   792.9247

       T/K    H(0)-H(T)+PV         H(T)/Eh          T*S/Eh         G(T)/Eh
   ------------------------------------------------------------------------
    298.15    0.316319E-01    0.504322E+00    0.900440E-01    0.414278E+00
   ------------------------------------------------------------------------

         :::::::::::::::::::::::::::::::::::::::::::::::::::::
         ::                  THERMODYNAMIC                  ::
         :::::::::::::::::::::::::::::::::::::::::::::::::::::
         :: total free energy         -90.463094750314 Eh   ::
         ::.................................................::
         :: total energy              -90.877373082193 Eh   ::
         :: zero point energy           0.472690407024 Eh   ::
         :: G(RRHO) w/o ZPVE           -0.058412075144 Eh   ::
         :: G(RRHO) contrib.            0.414278331879 Eh   ::
         :::::::::::::::::::::::::::::::::::::::::::::::::::::

           -------------------------------------------------
          | TOTAL ENERGY              -90.877373082193 Eh   |
          | TOTAL ENTHALPY            -90.373050742571 Eh   |
          | TOTAL FREE ENERGY         -90.463094750314 Eh   |
          | GRADIENT NORM               0.000081229434 Eh/α |
          | HOMO-LUMO GAP               0.404914647285 eV   |
           -------------------------------------------------

 * finished run on 2025/08/22 at 08:57:49.264
