   * xtb version 6.7.1 (edcfbbe) compiled by 'albert@albert-system' on 2024-07-22

   ID    Z sym.   atoms
    1    6 C      1-4, 6-34
    2    7 N      5
    3   35 Br     35
    4    1 H      36-61

          program call               : xtb data2507/toluene/DPACpBr/DPACpBr.xyz --gfn 2 --gbsa toluene --ohess vtight --parallel 40 --molden --ceasefiles --namespace data2507/toluene/DPACpBr/DPACpBr_toluene_S0_preOpt
      * Solvation model:               GBSA
        Solvent                        toluene
        Solvent mass                       9.2140E+01 g/mol
          :  Hamiltonian                  GFN2-xTB          :
 * total energy  :   -90.9676058 Eh     change       -0.2506653E-09 Eh
 * total energy  :   -90.9841977 Eh     change       -0.1659188E-01 Eh
 * total energy  :   -90.9901561 Eh     change       -0.5958415E-02 Eh
 * total energy  :   -90.9909826 Eh     change       -0.8264901E-03 Eh
 * total energy  :   -90.9911467 Eh     change       -0.1640851E-03 Eh
 * total energy  :   -90.9911800 Eh     change       -0.3329401E-04 Eh
 * total energy  :   -90.9911971 Eh     change       -0.1709568E-04 Eh
 * total energy  :   -90.9912080 Eh     change       -0.1092601E-04 Eh
 * total energy  :   -90.9912167 Eh     change       -0.8736574E-05 Eh
 * total energy  :   -90.9912210 Eh     change       -0.4314696E-05 Eh
 * total energy  :   -90.9912226 Eh     change       -0.1527814E-05 Eh
 * total energy  :   -90.9912230 Eh     change       -0.4568653E-06 Eh
 * total energy  :   -90.9912230 Eh     change        0.4681674E-07 Eh
 * total energy  :   -90.9912233 Eh     change       -0.3397959E-06 Eh
 * total energy  :   -90.9912236 Eh     change       -0.3112756E-06 Eh
 * total energy  :   -90.9912239 Eh     change       -0.2651465E-06 Eh
 * total energy  :   -90.9912239 Eh     change       -0.3485631E-07 Eh
   *** GEOMETRY OPTIMIZATION CONVERGED AFTER 17 ITERATIONS ***

 final structure:
================
61
 xtb: 6.7.1 (edcfbbe)
C            5.36692933913015        2.51966879648585        0.07329001317820
C            4.62340978128137        1.22349495398950        0.03519332866587
C            3.23506959849424        1.20175869605296        0.03464850219899
C            2.54264510471656       -0.00000073631333        0.00001068593666
N            1.11874844128586        0.00002882323950        0.00000555682215
C            0.44638295116249       -0.05298454598380        1.20980344518682
C            1.16943798464358       -0.10653080853176        2.40534551261858
C            0.52492366480314       -0.12915769110955        3.62468593059911
C           -0.85767713259071       -0.09023718362883        3.67672393496897
C           -1.57686336130885       -0.04371884259150        2.49678764531163
C           -0.95105051794761       -0.03220202599168        1.25838886854209
C           -1.80515177781848        0.00002853132583       -0.00000566062524
C           -2.63212009899694        1.28134019702414       -0.03178674116015
C           -3.87022909394505        1.35325872927845       -0.66060936243816
C           -4.56282486758864        2.54984306355055       -0.72838363976033
C           -4.02709298628385        3.70073985074890       -0.17762248487303
C           -2.78643956778791        3.64564052427777        0.43358061655570
C           -2.09559369429871        2.44908859637348        0.50025301593579
C           -2.63199439562915       -1.28136585359191        0.03178579988125
C           -3.87007487001590       -1.35341317480539        0.66065042005780
C           -4.56256688106883       -2.55005776438038        0.72840470423888
C           -4.02675629477994       -3.70089039125092        0.17758520829295
C           -2.78613215114326       -3.64566224033257       -0.43366509408810
C           -2.09539141774940       -2.44904879289740       -0.50032129578406
C           -0.95104021769418        0.03233319671006       -1.25839193048461
C           -1.57684512495503        0.04390956852403       -2.49679367794789
C           -0.85765049974706        0.09046273705353       -3.67672335681365
C            0.52495064882761        0.12935326781511       -3.62467504046966
C            1.16945705711054        0.10667053755477       -2.40533140991879
C            0.44639332735353        0.05309418007385       -1.20979605028523
C            3.23501525406562       -1.20179081732255       -0.03462428483602
C            4.62335495869372       -1.22358763563804       -0.03517216221263
C            5.36681232638209       -2.51979660413900       -0.07326516235571
C            5.28719577420765       -0.00005988096120        0.00000614439854
Br           7.20668114473925       -0.00006331142302        0.00002334996379
H            6.00157030006098        2.56866831317626        0.95829698282847
H            4.67627922581904        3.35798572036326        0.09059295617612
H            6.01326386596170        2.61446228157922       -0.79939005108977
H            2.68459665901753        2.13022792759123        0.06002136850533
H            2.24809996421544       -0.12598278803932        2.37289781372038
H            1.10607576232865       -0.17076069978296        4.53427714124789
H           -1.37255311338247       -0.09647038679314        4.62544409055454
H           -2.65419442768794       -0.00802544544962        2.53775921357752
H           -4.31073949745521        0.46918854610877       -1.09764488992962
H           -5.52678745060989        2.58057233337217       -1.21625372569383
H           -4.56955171922101        4.63355074955642       -0.22871055327828
H           -2.35195433970211        4.53862366523721        0.85988380151836
H           -1.12653913693657        2.42314658946211        0.97813103355119
H           -4.31065464329118       -0.46939319996521        1.09771791883567
H           -5.52650648198821       -2.58088731850790        1.21631396682385
H           -4.56912620049804       -4.63375304899670        0.22867632336510
H           -2.35157980297090       -4.53859532253065       -0.86000325333193
H           -1.12635997197631       -2.42300895436441       -0.97823982686254
H           -2.65417679156393        0.00824037008123       -2.53777293158617
H           -1.37252063756163        0.09674398435473       -4.62544632658898
H            1.10610920423184        0.17097830042691       -4.53426100399837
H            2.24811917882185        0.12610093501971       -2.37287628400810
H            2.68450168530804       -2.13023569282010       -0.06000083606563
H            4.67612343987671       -3.35808173536181       -0.09056064445769
H            6.01314820659038       -2.61461433321934        0.79941162043212
H            6.00144631706520       -2.56882773968367       -0.95827523354605

          :  Hamiltonian                  GFN2-xTB          :
         :: gradient norm              0.000194808866 Eh/a0 ::
         :: HOMO-LUMO gap              2.754595004636 eV    ::
         :: SCC energy               -92.626235900556 Eh    ::
         :: -> dispersion             -0.088876524755 Eh    ::
         :: -> Gsolv                  -0.036300179286 Eh    ::
         :: repulsion energy           1.635011977714 Eh    ::

    * Orbital Energies and Occupations

         #    Occupation            Energy/Eh            Energy/eV
      -------------------------------------------------------------
         1        2.0000           -0.8374203             -22.7874
       ...           ...                  ...                  ...
        73        2.0000           -0.4164474             -11.3321
        74        2.0000           -0.4145180             -11.2796
        75        2.0000           -0.4120511             -11.2125
        76        2.0000           -0.4102527             -11.1635
        77        2.0000           -0.4083620             -11.1121
        78        2.0000           -0.4058529             -11.0438
        79        2.0000           -0.4031754             -10.9710
        80        2.0000           -0.4027386             -10.9591
        81        2.0000           -0.3970055             -10.8031
        82        2.0000           -0.3937150             -10.7135
        83        2.0000           -0.3911020             -10.6424
        84        2.0000           -0.3894540             -10.5976
        85        2.0000           -0.3494487              -9.5090 (HOMO)
        86                         -0.2482192              -6.7544 (LUMO)
        87                         -0.2406601              -6.5487
        88                         -0.2338354              -6.3630
        89                         -0.2266502              -6.1675
        90                         -0.2234954              -6.0816
        91                         -0.2226159              -6.0577
        92                         -0.2212352              -6.0201
        93                         -0.2165426              -5.8924
        94                         -0.2135362              -5.8106
        95                         -0.2050977              -5.5810
        96                         -0.1920658              -5.2264
       ...                                ...                  ...
       171                          0.6771019              18.4249
      -------------------------------------------------------------
                  HL-Gap            0.1012295 Eh            2.7546 eV

     #   Z          covCN         q      C6AA      α(0)
     1   6 C        3.763    -0.106    22.574     6.773
     2   6 C        3.031     0.017    27.595     8.616
     3   6 C        2.931    -0.053    29.320     8.880
     4   6 C        2.922     0.066    26.512     8.444
     5   7 N        2.754    -0.073    22.666     7.071
     6   6 C        2.927     0.060    26.659     8.467
     7   6 C        2.924    -0.060    29.481     8.904
     8   6 C        2.919    -0.034    28.847     8.808
     9   6 C        2.917    -0.045    29.124     8.850
    10   6 C        2.927    -0.038    28.942     8.823
    11   6 C        2.986    -0.010    28.254     8.719
    12   6 C        3.920     0.011    20.339     6.410
    13   6 C        2.981     0.012    27.738     8.639
    14   6 C        2.924    -0.035    28.869     8.811
    15   6 C        2.919    -0.032    28.802     8.801
    16   6 C        2.919    -0.034    28.842     8.807
    17   6 C        2.919    -0.032    28.791     8.799
    18   6 C        2.926    -0.036    28.892     8.815
    19   6 C        2.981     0.012    27.738     8.639
    20   6 C        2.924    -0.035    28.869     8.811
    21   6 C        2.919    -0.032    28.802     8.801
    22   6 C        2.919    -0.034    28.842     8.807
    23   6 C        2.919    -0.032    28.791     8.799
    24   6 C        2.926    -0.036    28.892     8.815
    25   6 C        2.986    -0.010    28.254     8.719
    26   6 C        2.927    -0.038    28.942     8.823
    27   6 C        2.917    -0.045    29.124     8.850
    28   6 C        2.919    -0.034    28.847     8.808
    29   6 C        2.924    -0.060    29.481     8.904
    30   6 C        2.927     0.060    26.659     8.467
    31   6 C        2.931    -0.053    29.320     8.880
    32   6 C        3.031     0.017    27.595     8.616
    33   6 C        3.763    -0.106    22.574     6.773
    34   6 C        2.926     0.059    26.675     8.470
    35  35 Br       1.069    -0.195   190.459    22.252
    36   1 H        0.925     0.063     2.164     2.300
    37   1 H        0.925     0.053     2.288     2.365
    38   1 H        0.925     0.063     2.164     2.301
    39   1 H        0.926     0.051     2.308     2.376
    40   1 H        0.926     0.026     2.650     2.546
    41   1 H        0.926     0.029     2.595     2.519
    42   1 H        0.926     0.027     2.624     2.533
    43   1 H        0.926     0.032     2.563     2.504
    44   1 H        0.926     0.033     2.545     2.495
    45   1 H        0.926     0.030     2.579     2.511
    46   1 H        0.926     0.030     2.586     2.515
    47   1 H        0.926     0.029     2.597     2.520
    48   1 H        0.926     0.025     2.658     2.550
    49   1 H        0.926     0.033     2.545     2.495
    50   1 H        0.926     0.030     2.579     2.511
    51   1 H        0.926     0.030     2.586     2.515
    52   1 H        0.926     0.029     2.597     2.520
    53   1 H        0.926     0.025     2.658     2.550
    54   1 H        0.926     0.032     2.563     2.504
    55   1 H        0.926     0.027     2.624     2.533
    56   1 H        0.926     0.029     2.595     2.519
    57   1 H        0.926     0.026     2.650     2.546
    58   1 H        0.926     0.051     2.308     2.376
    59   1 H        0.925     0.053     2.288     2.365
    60   1 H        0.925     0.063     2.164     2.301
    61   1 H        0.925     0.063     2.164     2.300

molecular dipole:
                 x           y           z       tot (Debye)
 q only:       -0.054      -0.000      -0.000
   full:       -0.466      -0.000      -0.000       1.185

 projected vibrational frequencies (cm⁻¹)
eigval :       -0.00    -0.00    -0.00     0.00     0.00     0.00
eigval :       -8.16     5.95    26.10    29.57    48.53    52.83
eigval :       60.26    77.57    79.13    93.66    99.42   119.37
eigval :      140.48   149.49   151.22   154.56   200.09   206.00
eigval :      210.88   212.34   228.23   229.53   244.72   255.39
eigval :      278.77   284.66   299.80   331.06   331.87   336.40
eigval :      376.61   390.73   395.48   404.80   427.29   439.01
eigval :      444.18   463.95   485.15   486.13   495.72   498.64
eigval :      525.59   532.27   542.92   571.72   587.56   589.31
eigval :      595.98   602.08   609.08   615.42   651.61   666.48
eigval :      669.37   682.31   687.96   690.64   693.60   751.99
eigval :      760.86   771.50   777.81   798.08   844.68   860.47
eigval :      860.82   880.58   881.07   884.48   896.44   899.85
eigval :      900.53   905.06   905.78   913.83   914.86   921.28
eigval :      921.42   932.16   932.18   934.68   945.81   959.94
eigval :      980.80   984.37   990.80   997.87   999.37  1025.10
eigval :     1030.77  1044.97  1049.93  1088.88  1088.91  1108.19
eigval :     1109.21  1122.83  1125.69  1127.49  1135.79  1178.44
eigval :     1180.99  1181.23  1183.32  1183.46  1184.99  1203.56
eigval :     1204.67  1213.27  1221.03  1221.45  1234.57  1262.11
eigval :     1264.54  1273.69  1288.13  1292.86  1304.22  1314.97
eigval :     1320.71  1325.32  1333.01  1339.02  1355.09  1401.12
eigval :     1401.22  1425.26  1426.73  1427.08  1434.83  1435.49
eigval :     1436.63  1467.72  1468.16  1472.86  1474.25  1476.08
eigval :     1477.57  1479.40  1492.15  1570.91  1571.28  1575.63
eigval :     1584.28  1585.34  1588.55  1588.83  1599.09  1599.35
eigval :     1602.54  2999.71  2999.89  3014.48  3015.30  3051.57
eigval :     3051.98  3066.01  3066.13  3067.83  3068.29  3073.94
eigval :     3073.98  3076.51  3076.86  3080.07  3080.98  3085.70
eigval :     3085.85  3087.80  3088.62  3090.44  3092.05  3095.22
eigval :     3095.89  3106.11  3106.93

   temp. (K)  partition function   enthalpy   heat capacity  entropy
                                   cal/mol     cal/K/mol   cal/K/mol   J/K/mol
 298.15  VIB  0.324E+14            17199.709    108.524    107.751
         ROT  0.178E+08              888.752      2.981     36.159
         INT  0.577E+21            18088.461    111.505    143.910
         TR   0.114E+29             1481.254      4.968     44.592
         TOT                       19569.7151   116.4728   188.5021   788.6928

       T/K    H(0)-H(T)+PV         H(T)/Eh          T*S/Eh         G(T)/Eh
   ------------------------------------------------------------------------
    298.15    0.311863E-01    0.508827E+00    0.895634E-01    0.419263E+00
   ------------------------------------------------------------------------

         :::::::::::::::::::::::::::::::::::::::::::::::::::::
         ::                  THERMODYNAMIC                  ::
         :::::::::::::::::::::::::::::::::::::::::::::::::::::
         :: total free energy         -90.571960596037 Eh   ::
         ::.................................................::
         :: total energy              -90.991223922362 Eh   ::
         :: zero point energy           0.477640431603 Eh   ::
         :: G(RRHO) w/o ZPVE           -0.058377105278 Eh   ::
         :: G(RRHO) contrib.            0.419263326325 Eh   ::
         :::::::::::::::::::::::::::::::::::::::::::::::::::::

           -------------------------------------------------
          | TOTAL ENERGY              -90.991223922362 Eh   |
          | TOTAL ENTHALPY            -90.482397164721 Eh   |
          | TOTAL FREE ENERGY         -90.571960596037 Eh   |
          | GRADIENT NORM               0.000194809877 Eh/α |
          | HOMO-LUMO GAP               2.754596140105 eV   |
           -------------------------------------------------

 * finished run on 2025/08/22 at 08:54:19.059
