   * xtb version 6.7.1 (edcfbbe) compiled by 'albert@albert-system' on 2024-07-22

   ID    Z sym.   atoms
    1    6 C      1-11, 13, 15-20, 22-53, 55-62
    2    7 N      12, 21
    3    8 O      14, 54
    4    1 H      63-104

          program call               : xtb data2507/gas/NAI–BiFA/NAI–BiFA_gas_S0_finalOpt.xtbopt.xyz --gfn 2 --spinpol --tblite --uhf 2 --ohess vtight --parallel 40 --molden --ceasefiles --namespace data2507/gas/NAI–BiFA/NAI–BiFA_gas_T1_preOpt
 * total energy  :  -159.6147443 Eh     change        0.7844022E-08 Eh
 * total energy  :  -159.6183572 Eh     change       -0.3612932E-02 Eh
 * total energy  :  -159.6192176 Eh     change       -0.8603847E-03 Eh
 * total energy  :  -159.6193075 Eh     change       -0.8990029E-04 Eh
 * total energy  :  -159.6193575 Eh     change       -0.4995154E-04 Eh
 * total energy  :  -159.6193761 Eh     change       -0.1863771E-04 Eh
 * total energy  :  -159.6193978 Eh     change       -0.2175593E-04 Eh
 * total energy  :  -159.6194082 Eh     change       -0.1038174E-04 Eh
 * total energy  :  -159.6194264 Eh     change       -0.1816408E-04 Eh
 * total energy  :  -159.6194336 Eh     change       -0.7169109E-05 Eh
 * total energy  :  -159.6195594 Eh     change       -0.8535207E-06 Eh
 * total energy  :  -159.6195604 Eh     change       -0.1002755E-05 Eh
 * total energy  :  -159.6195615 Eh     change       -0.1141643E-05 Eh
 * total energy  :  -159.6195625 Eh     change       -0.9624830E-06 Eh
 * total energy  :  -159.6195630 Eh     change       -0.5069203E-06 Eh
 * total energy  :  -159.6195629 Eh     change        0.1182224E-06 Eh
 * total energy  :  -159.6195633 Eh     change       -0.3786990E-06 Eh
 * total energy  :  -159.6195632 Eh     change        0.1294219E-07 Eh
 * total energy  :  -159.6195633 Eh     change       -0.8699374E-08 Eh
   *** GEOMETRY OPTIMIZATION CONVERGED AFTER 45 ITERATIONS ***

 final structure:
================
104
 xtb: 6.7.1 (edcfbbe)
C            8.94261205016629       -0.67337812448685       -0.68888731918110
C            7.49483817509022       -0.47376367243515       -0.34422276125881
C            6.72205092347189       -1.53332757358769        0.14144379286799
C            7.29405618121570       -2.86771325821135        0.40733806284018
C            8.36393192916108       -3.04116064687998        1.27992798272334
C            8.86381762646054       -4.30542232688504        1.53357463757374
C            8.30506052724666       -5.41206789796659        0.91643394341718
C            7.23494808826560       -5.24955175804249        0.05217087051384
C            6.72805461141332       -3.98737390240534       -0.19654353662037
C            5.36288325777091       -1.35894171388105        0.37479715350470
C            4.76304249533148       -0.13858004555309        0.12553424203690
N            3.36211211817374        0.02655091853899        0.34549073431210
C            2.97695889080172        0.96249172531786        1.29882536275511
O            3.81617995648290        1.59291899062626        1.92652781393491
C            1.54424314932553        1.12490636929583        1.49617983313649
C            1.08829395338364        2.03203632272337        2.47199933304773
C           -0.25687391701369        2.16603719710054        2.70163176694511
C           -1.18820732448422        1.44292710961032        1.95116754949790
C           -0.77659078155469        0.57097421985194        0.93881819176024
C           -1.67369907725523       -0.19770845408632        0.13454038438525
N           -3.05155324397855       -0.00433268546894        0.18091466702214
C           -3.58182316744572        1.28238592203857        0.15550827009993
C           -2.90667122465595        2.30722208503028       -0.51561092988587
C           -3.41087260173670        3.58732611607580       -0.51416915377570
C           -4.60488114353022        3.89268093754559        0.14364935479679
C           -5.13352053831393        5.26014705402528        0.14800951382050
C           -4.27557999937619        6.35118727478056        0.28231034345157
C           -4.77384836060999        7.63999766628603        0.29301308246386
C           -6.13479180594104        7.86265655256663        0.16183091156928
C           -6.99616861465999        6.78668551145085        0.02391183505807
C           -6.50183670188741        5.49626976710420        0.02109920678030
C           -5.27905730011423        2.86197589315611        0.80251326087221
C           -4.77818604662764        1.57961128879745        0.81649227802146
C           -3.88686560698409       -1.11329837755943        0.15700527229223
C           -3.49082349835486       -2.29072668725955        0.80875945441644
C           -4.29153671900323       -3.41231783422569        0.79346396795283
C           -5.50527721997827       -3.36610142071508        0.11834787778051
C           -5.90479092038994       -2.18838333563886       -0.54150409534498
C           -5.11060636854195       -1.07132793656917       -0.53048983945821
C           -7.24794440595282       -2.37933392312853       -1.20823866575181
C           -8.28730260123606       -1.41219243718594       -0.63252007519820
C           -7.14100401547031       -2.21015139601660       -2.72693998815275
C           -7.56591031265499       -3.81111758595411       -0.83907373386243
C           -8.67511568708706       -4.56100467080510       -1.16244004866401
C           -8.75131857589742       -5.87266517851440       -0.71117342415067
C           -7.73168853981078       -6.42357736512964        0.05152208680822
C           -6.61289327351915       -5.67860604605340        0.38198044299498
C           -6.53324324174738       -4.36802605461699       -0.06613066520622
C           -1.17066210763976       -1.17313370805732       -0.76675796342418
C            0.16704881710726       -1.35264099294354       -0.93381826708877
C            1.09073368262338       -0.57035017877584       -0.19142567509245
C            0.62286833922918        0.38154472022995        0.73729938159405
C            2.50994655556753       -0.77148968864754       -0.40950925314855
O            2.95586537638447       -1.57705096962810       -1.21877369843839
C            5.51786985341656        0.91952790424149       -0.34933415313865
C            6.87958736579357        0.76056037887431       -0.57242309667556
C            7.63518681674341        1.92470235540589       -1.07910830917741
C            8.70054454201845        2.45880857786989       -0.36183915586857
C            9.38002651379060        3.56601681002833       -0.83586502987044
C            9.00786265967295        4.15122797865980       -2.03449402733447
C            7.94486052709830        3.62974168036537       -2.75245548658845
C            7.25910492369727        2.52756537926280       -2.27533162172424
H            9.22657888430814       -0.03097138360639       -1.51989780082609
H            9.58423873241161       -0.42554084620980        0.15616442093272
H            9.13136117946587       -1.70979579006404       -0.95979711169013
H            8.79045809643371       -2.18223785044815        1.77638805893893
H            9.69195911758922       -4.42863023716130        2.21685690410062
H            8.69971677860422       -6.39858008203153        1.11207538684430
H            6.79308434028874       -6.11074242009685       -0.42818295815646
H            5.89479632537134       -3.85589591171175       -0.87144716751339
H            4.77452083557728       -2.18175702558041        0.75143645862762
H            1.82464910552211        2.59092288239367        3.02705217957728
H           -0.61470529884703        2.84346149387129        3.46285236703959
H           -2.23757184681538        1.56510354730287        2.17053266802307
H           -1.99414289144433        2.07911593567746       -1.04537421620915
H           -2.88896073368466        4.36202234258682       -1.05501055084266
H           -3.21564563314981        6.18331795057701        0.40477954576831
H           -4.09835268493333        8.47512625287842        0.40606448133584
H           -6.52257061395030        8.87030225727587        0.16732477657220
H           -8.05780758907426        6.95492369490522       -0.08331489474447
H           -7.17766755289126        4.66286588253222       -0.10525286303416
H           -6.18912872208856        3.08045048281808        1.34088961828765
H           -5.29028299772041        0.80190635755670        1.36438382937511
H           -2.55324603993863       -2.29671523901209        1.34421344736217
H           -3.98071817089473       -4.30820023753788        1.30824366073451
H           -5.39604701423820       -0.17371481769324       -1.05892802805758
H           -8.36137169227106       -1.53713054537630        0.44579758016990
H           -8.00573730778401       -0.38360605522341       -0.84638678164214
H           -9.26331659581289       -1.60416068496447       -1.07113436187364
H           -6.39849699452263       -2.89506496142956       -3.13072327821328
H           -8.09842818238226       -2.42062208222890       -3.19696723695302
H           -6.84795529916437       -1.19267871932952       -2.97494859242670
H           -9.47540066271437       -4.14432859758995       -1.75633972439225
H           -9.61535363305076       -6.47169522082900       -0.95788667192406
H           -7.81337385846450       -7.44581703941552        0.39025234523555
H           -5.81976790968672       -6.10803647620002        0.97532492192253
H           -1.87956612671739       -1.73038522023552       -1.36204073211666
H            0.56522419458566       -2.06526720035764       -1.63783581475329
H            5.05211169302017        1.87567993103519       -0.53407679752563
H            8.98190132445004        2.01343282360634        0.58078405136675
H           10.20272579699659        3.97577144771449       -0.26758278830750
H            9.54212608120328        5.01356793972749       -2.40604327678593
H            7.64835638107050        4.08497720613720       -3.68665033302446
H            6.43130908981067        2.11691895168359       -2.83574513003152

 projected vibrational frequencies (cm⁻¹)
eigval :       -0.00    -0.00    -0.00     0.00     0.00     0.00
eigval :        5.86     7.33    13.58    16.91    20.49    22.62
eigval :       27.94    29.65    34.45    39.28    40.63    45.64
eigval :       59.89    63.52    64.63    76.11    78.95    87.74
eigval :       88.74   101.07   105.13   113.08   118.37   131.77
eigval :      135.31   140.69   144.24   157.29   164.79   178.80
eigval :      184.44   189.95   194.19   198.86   217.09   223.31
eigval :      226.67   240.16   253.59   260.69   263.09   266.64
eigval :      283.36   284.47   293.11   297.58   308.45   319.48
eigval :      325.03   328.25   335.51   367.41   369.92   370.21
eigval :      371.39   372.19   372.74   374.88   385.95   390.62
eigval :      392.54   417.28   422.18   424.83   438.30   449.68
eigval :      462.75   468.93   478.15   478.63   489.67   496.66
eigval :      503.50   520.14   527.92   538.04   543.69   552.33
eigval :      563.28   565.81   572.74   578.11   579.95   583.76
eigval :      588.37   590.20   592.35   598.68   600.57   606.92
eigval :      616.35   630.22   636.42   661.96   664.36   665.31
eigval :      671.50   677.47   679.55   682.87   688.85   691.88
eigval :      696.95   720.66   722.74   724.78   740.93   753.44
eigval :      756.56   765.78   767.79   769.41   777.26   777.99
eigval :      790.63   804.03   810.09   820.25   823.60   830.16
eigval :      846.82   851.93   862.55   866.72   876.33   878.48
eigval :      879.56   881.14   881.44   887.03   895.54   901.35
eigval :      902.49   904.22   906.60   906.87   910.07   911.73
eigval :      918.71   926.10   927.75   930.89   931.50   931.93
eigval :      932.15   932.93   933.65   934.45   950.82   964.90
eigval :      966.60   973.88   980.07   983.41   994.81  1010.07
eigval :     1012.99  1025.06  1026.88  1032.59  1060.01  1067.29
eigval :     1073.17  1076.81  1083.45  1084.61  1086.76  1098.66
eigval :     1110.28  1118.53  1118.60  1119.62  1122.31  1138.50
eigval :     1142.56  1148.92  1152.07  1156.06  1174.54  1174.69
eigval :     1182.04  1182.34  1182.34  1182.49  1185.69  1191.80
eigval :     1193.40  1196.69  1199.11  1200.34  1202.36  1207.90
eigval :     1216.35  1223.83  1227.60  1232.23  1240.65  1246.45
eigval :     1265.70  1268.45  1271.42  1279.87  1280.32  1281.32
eigval :     1282.54  1293.43  1304.23  1313.36  1315.72  1316.73
eigval :     1317.61  1319.83  1320.02  1334.01  1337.23  1345.25
eigval :     1363.75  1365.36  1379.06  1386.44  1395.87  1405.55
eigval :     1408.25  1411.48  1417.07  1418.71  1421.43  1425.95
eigval :     1432.44  1433.15  1433.32  1434.38  1450.78  1454.76
eigval :     1454.84  1467.40  1477.62  1480.32  1482.53  1485.67
eigval :     1487.71  1488.20  1490.96  1492.47  1496.19  1500.52
eigval :     1512.65  1537.16  1549.35  1558.02  1559.45  1565.32
eigval :     1566.01  1578.23  1580.85  1582.27  1583.05  1588.01
eigval :     1598.03  1598.42  1600.83  1603.17  1610.58  1635.75
eigval :     3000.20  3029.24  3032.72  3032.94  3034.11  3035.49
eigval :     3037.14  3040.95  3042.93  3067.93  3068.28  3071.39
eigval :     3072.59  3073.81  3075.72  3077.19  3077.22  3079.76
eigval :     3079.84  3080.13  3080.31  3082.59  3083.56  3084.36
eigval :     3085.96  3087.51  3087.61  3088.44  3089.43  3089.46
eigval :     3091.23  3091.73  3093.63  3095.29  3095.46  3096.34
eigval :     3096.54  3097.49  3099.46  3100.17  3110.84  3112.86

   temp. (K)  partition function   enthalpy   heat capacity  entropy
                                   cal/mol     cal/K/mol   cal/K/mol   J/K/mol
 298.15  VIB  0.139E+26            30877.821    190.475    194.143
         ROT  0.254E+09              888.752      2.981     41.439
         INT  0.352E+34            31766.574    193.456    235.582
         TR   0.218E+29             1481.254      4.968     45.892
         TOT                       33247.8276   198.4237   281.4741  1177.6878

       T/K    H(0)-H(T)+PV         H(T)/Eh          T*S/Eh         G(T)/Eh
   ------------------------------------------------------------------------
    298.15    0.529838E-01    0.859568E+00    0.133737E+00    0.725831E+00
   ------------------------------------------------------------------------

         :::::::::::::::::::::::::::::::::::::::::::::::::::::
         ::                  THERMODYNAMIC                  ::
         :::::::::::::::::::::::::::::::::::::::::::::::::::::
         :: total free energy        -158.893732171592 Eh   ::
         ::.................................................::
         :: total energy             -159.619563226449 Eh   ::
         :: zero point energy           0.806584711135 Eh   ::
         :: G(RRHO) w/o ZPVE           -0.080753656278 Eh   ::
         :: G(RRHO) contrib.            0.725831054857 Eh   ::
         :::::::::::::::::::::::::::::::::::::::::::::::::::::

           -------------------------------------------------
          | TOTAL ENERGY             -159.619563226449 Eh   |
          | TOTAL ENTHALPY           -158.759994729546 Eh   |
          | TOTAL FREE ENERGY        -158.893732171592 Eh   |
          | GRADIENT NORM               0.000116413917 Eh/α |
           -------------------------------------------------

 * finished run on 2025/09/05 at 04:29:53.318
