   * xtb version 6.7.1 (edcfbbe) compiled by 'albert@albert-system' on 2024-07-22

   ID    Z sym.   atoms
    1    6 C      1-11, 13, 15-20, 22-53, 55-62
    2    7 N      12, 21
    3    8 O      14, 54
    4    1 H      63-104

          program call               : xtb data2507/gas/NAI–BiFA/NAI–BiFA_gas_T1_crest.xyz --gfn 2 --spinpol --tblite --uhf 2 --ohess vtight --parallel 40 --molden --ceasefiles --namespace data2507/gas/NAI–BiFA/NAI–BiFA_gas_T1_finalOpt
 * total energy  :  -159.6201814 Eh     change       -0.3453553E-07 Eh
 * total energy  :  -159.6201985 Eh     change       -0.1711206E-04 Eh
 * total energy  :  -159.6202058 Eh     change       -0.7329200E-05 Eh
 * total energy  :  -159.6202077 Eh     change       -0.1919044E-05 Eh
 * total energy  :  -159.6202099 Eh     change       -0.2138546E-05 Eh
 * total energy  :  -159.6202116 Eh     change       -0.1763111E-05 Eh
 * total energy  :  -159.6202132 Eh     change       -0.1590032E-05 Eh
 * total energy  :  -159.6202142 Eh     change       -0.1009354E-05 Eh
 * total energy  :  -159.6202151 Eh     change       -0.8539092E-06 Eh
 * total energy  :  -159.6202161 Eh     change       -0.1031200E-05 Eh
 * total energy  :  -159.6202187 Eh     change       -0.5635198E-06 Eh
 * total energy  :  -159.6202192 Eh     change       -0.4864936E-06 Eh
 * total energy  :  -159.6202197 Eh     change       -0.4410854E-06 Eh
 * total energy  :  -159.6202200 Eh     change       -0.2874086E-06 Eh
 * total energy  :  -159.6202202 Eh     change       -0.2132160E-06 Eh
 * total energy  :  -159.6202201 Eh     change        0.3173272E-07 Eh
 * total energy  :  -159.6202203 Eh     change       -0.1834397E-06 Eh
 * total energy  :  -159.6202204 Eh     change       -0.1091233E-06 Eh
 * total energy  :  -159.6202204 Eh     change       -0.7113329E-08 Eh
   *** GEOMETRY OPTIMIZATION CONVERGED AFTER 21 ITERATIONS ***

 final structure:
================
104
 xtb: 6.7.1 (edcfbbe)
C            8.57227312656026        0.70520578599866       -0.56287866507644
C            7.11317014298701        0.56903015439320       -0.23579801802884
C            6.47835144789945       -0.67155394299709       -0.34659097657101
C            7.22329405205059       -1.89803808516106       -0.69793396215804
C            8.25950325169919       -2.36364111230456        0.10483005712496
C            8.92876223337303       -3.52933601273511       -0.21983834064665
C            8.57539688028956       -4.24288108993357       -1.35284572362403
C            7.54136061661416       -3.79006072719183       -2.15476567964947
C            6.86577371009339       -2.62873498965021       -1.82664148350715
C            5.10793332198634       -0.78071766883154       -0.14856333776998
C            4.36296220403239        0.33509255653700        0.19206439388245
N            2.95428652411772        0.22066929541324        0.38871632451270
C            2.52120683584636       -0.64677134196550        1.38652692317451
O            3.32753754111809       -1.25848066561165        2.07323268064173
C            1.08084092141588       -0.76273119104475        1.55656055815898
C            0.57878179717279       -1.60716592555074        2.56490139423639
C           -0.77429757621281       -1.69014386683709        2.77278321988353
C           -1.66836914111260       -0.97906960578173        1.96842082072890
C           -1.21100707624519       -0.17253410667236        0.92182352026091
C           -2.06915360476657        0.57329228367120        0.05458958346856
N           -3.45156875131290        0.40293851296231        0.06452120310833
C           -4.26246659021778        1.52776328637311       -0.04271689750213
C           -3.87641470690572        2.72459595335855        0.57135194399443
C           -4.66047382545918        3.84947895098452        0.45669453339618
C           -5.85487987579766        3.82554177731719       -0.26796498787934
C           -6.68956775713587        5.02482767187261       -0.38406219611747
C           -6.10910226134740        6.28255232455266       -0.54560380314306
C           -6.89757250530120        7.41163744033114       -0.65865002649902
C           -8.27778838229736        7.30674862097845       -0.60438141329745
C           -8.86558983838116        6.06319190502465       -0.44024645475313
C           -8.08015294126201        4.93125449667210       -0.33498910350248
C           -6.23152047104273        2.62812965695273       -0.88205279891588
C           -5.45167566994287        1.49877459475214       -0.77923811981313
C           -3.99766645428024       -0.87330923636933        0.09798075157768
C           -5.23639524994929       -1.10642300370282        0.71209449769293
C           -5.75804125994618       -2.38056312675872        0.79107083085603
C           -5.03171859495548       -3.44208093780279        0.26538006188881
C           -3.78640365379652       -3.21208363771796       -0.34900323804113
C           -3.27333213439527       -1.94596824933662       -0.44679898439383
C           -3.17386780233872       -4.51029340579472       -0.81891156060558
C           -2.95582481580843       -4.51372013255450       -2.33450143584310
C           -1.85442321461301       -4.77287238393883       -0.08427602382428
C           -4.23436280060735       -5.50773785811749       -0.41030006558956
C           -4.24720522130121       -6.87469003590544       -0.58016525180214
C           -5.34061552646179       -7.59686066552466       -0.11907424854545
C           -6.40398800927126       -6.95934392426320        0.50368122026773
C           -6.40050062313388       -5.58661137603831        0.68095064600173
C           -5.31051146969521       -4.86157816109112        0.22150415655870
C           -1.51978642566250        1.48828606500652       -0.88145277982355
C           -0.17392849107303        1.62252719922102       -1.02677136598797
C            0.71134878743298        0.85242765364046       -0.22715880616355
C            0.19697996907614       -0.03354136060468        0.74121198309846
C            2.13944047063372        0.99534296922058       -0.43074761306500
O            2.62270202400794        1.73308522859050       -1.28222563290113
C            4.98294989387143        1.56343077931349        0.32962863825911
C            6.35030083376548        1.68800444027818        0.11341042244613
C            6.94155446353713        3.03365933373572        0.24688114527504
C            7.99688924852296        3.28416945731442        1.11843327718573
C            8.51559145907827        4.56013862996900        1.24268011130137
C            7.99040783890920        5.60131563995557        0.49574924553840
C            6.93437139643421        5.36270814743132       -0.36821795501343
C            6.40856785963199        4.08953716023245       -0.48793883036612
H            9.18894031851045        0.54341336237954        0.32072114265937
H            8.86382057238477       -0.03068507437642       -1.30945799791716
H            8.78689306192635        1.70165258314153       -0.94271632549211
H            8.52549304710414       -1.81742777793386        0.99754268057415
H            9.72857834591366       -3.88436435725344        0.41413584890966
H            9.10182623623936       -5.15109585512200       -1.60804734061165
H            7.25965418225863       -4.34515637997104       -3.03817830676403
H            6.06064574360494       -2.27196523954803       -2.45310069814412
H            4.62790722923757       -1.74258083035118       -0.24546000980297
H            1.28671077408822       -2.15895041360659        3.16237246865421
H           -1.16683969919301       -2.31799320140109        3.55900754194962
H           -2.72497676146501       -1.05892997346934        2.17197833308074
H           -2.96712523280448        2.74714673318387        1.15338850698088
H           -4.36202654319008        4.75639958614721        0.96019569192191
H           -5.03435441639605        6.36964922399615       -0.60851376392534
H           -6.43422247330345        8.37817247093920       -0.79165325638888
H           -8.89267343685328        8.19012918116779       -0.68976607374058
H           -9.94120008334620        5.97624963976525       -0.39227478928320
H           -8.54494744757943        3.96726506564264       -0.18749927861487
H           -7.13236643465167        2.59650761236308       -1.47627819240738
H           -5.73897814273878        0.59095585296559       -1.28907879219436
H           -5.76661461115487       -0.27683321616904        1.15644100260114
H           -6.70831294440149       -2.54798698848631        1.27454012321679
H           -2.33036498417159       -1.75598486029766       -0.93615839217158
H           -3.89338512197775       -4.32001202177060       -2.85163780464691
H           -2.23771898089042       -3.74658723955900       -2.61371454092785
H           -2.57483715112024       -5.47937948909333       -2.65712246488913
H           -2.01482407445974       -4.76957717568059        0.99167232466984
H           -1.44854786837366       -5.73922491647420       -0.37262220446575
H           -1.12646031882822       -4.00185763162652       -0.32502394334269
H           -3.42541273200562       -7.38301862681489       -1.06255981884345
H           -5.36348942827671       -8.66898538904090       -0.24684607892771
H           -7.24289746464879       -7.54243486485068        0.85406290640202
H           -7.22807313131959       -5.09136085920862        1.16648543483992
H           -2.19910734867732        2.03346286189676       -1.52081792074263
H            0.25890453835095        2.28767671929508       -1.75633389858558
H            4.40398287942681        2.43205852436001        0.60355870856471
H            8.39703817473071        2.47821378377943        1.71548438438786
H            9.33180784704973        4.74407585062112        1.92664560212598
H            8.39970460008155        6.59665984838001        0.59070182470458
H            6.51853296415384        6.17308457692408       -0.94958126551141
H            5.58634649624010        3.89844433469499       -1.16210199690077

 projected vibrational frequencies (cm⁻¹)
eigval :       -0.00    -0.00     0.00     0.00     0.00     0.00
eigval :        5.83     6.71    14.01    17.62    20.28    21.89
eigval :       27.21    28.61    34.39    38.61    39.48    45.81
eigval :       61.61    62.62    67.41    72.93    77.84    85.01
eigval :       93.68   100.47   103.17   111.38   125.52   132.26
eigval :      135.76   142.98   145.51   159.63   168.33   179.31
eigval :      180.77   185.75   189.61   197.08   214.94   226.49
eigval :      236.66   240.56   257.38   262.60   264.02   268.25
eigval :      272.61   285.13   293.75   299.61   307.08   323.49
eigval :      325.91   327.86   335.44   347.73   369.85   370.17
eigval :      371.12   371.75   374.65   384.30   386.82   391.52
eigval :      395.32   412.85   417.65   423.32   440.75   456.94
eigval :      464.12   469.59   477.23   481.32   489.38   497.47
eigval :      505.60   518.69   526.57   537.25   544.16   551.35
eigval :      561.79   563.56   572.44   577.55   579.41   585.15
eigval :      588.18   590.12   592.91   600.88   605.08   610.56
eigval :      615.95   623.58   637.37   662.32   664.11   665.32
eigval :      671.66   677.33   679.59   683.48   688.93   692.48
eigval :      700.48   719.78   721.52   723.20   742.25   753.37
eigval :      756.30   765.55   768.15   771.14   776.89   777.92
eigval :      791.55   805.21   812.76   819.99   826.01   830.49
eigval :      841.62   852.81   858.92   863.11   874.27   875.88
eigval :      878.13   879.08   880.97   885.71   895.39   899.36
eigval :      901.80   903.71   906.39   906.73   910.51   911.69
eigval :      918.85   926.28   927.29   930.60   931.41   931.62
eigval :      931.90   932.36   933.36   941.73   948.99   963.34
eigval :      966.36   978.51   980.24   983.54   992.64  1012.06
eigval :     1012.32  1024.58  1026.19  1032.98  1060.20  1067.80
eigval :     1072.86  1076.91  1083.82  1085.00  1086.91  1098.53
eigval :     1109.97  1118.79  1119.40  1119.83  1122.43  1138.75
eigval :     1141.51  1148.63  1154.21  1156.50  1173.31  1173.90
eigval :     1181.76  1181.93  1181.99  1182.22  1185.78  1191.31
eigval :     1192.36  1196.09  1198.70  1200.46  1202.19  1207.05
eigval :     1216.79  1224.26  1228.49  1231.28  1241.49  1248.35
eigval :     1263.91  1270.09  1271.51  1279.45  1279.63  1280.27
eigval :     1281.38  1293.61  1303.92  1313.75  1314.97  1316.65
eigval :     1317.81  1320.03  1321.10  1332.50  1337.82  1344.20
eigval :     1362.92  1367.58  1378.97  1386.93  1395.99  1404.78
eigval :     1409.54  1411.31  1417.19  1418.68  1420.83  1426.00
eigval :     1432.27  1432.75  1433.97  1435.36  1450.74  1452.12
eigval :     1454.66  1467.86  1476.50  1482.02  1482.41  1483.38
eigval :     1485.33  1487.31  1489.95  1492.18  1494.06  1498.25
eigval :     1512.70  1535.20  1550.78  1556.01  1559.34  1564.36
eigval :     1565.98  1577.84  1580.96  1583.23  1583.70  1588.14
eigval :     1598.11  1598.30  1601.06  1603.68  1610.71  1635.81
eigval :     3000.19  3031.11  3031.73  3034.39  3036.27  3036.89
eigval :     3037.65  3042.31  3044.11  3067.68  3067.99  3071.17
eigval :     3072.40  3075.06  3076.43  3076.84  3077.21  3079.25
eigval :     3079.49  3079.73  3081.74  3082.24  3083.63  3084.37
eigval :     3085.78  3086.53  3087.25  3088.20  3089.10  3091.19
eigval :     3091.75  3092.77  3094.50  3094.90  3096.19  3096.58
eigval :     3096.97  3097.16  3098.20  3098.39  3110.99  3112.75

   temp. (K)  partition function   enthalpy   heat capacity  entropy
                                   cal/mol     cal/K/mol   cal/K/mol   J/K/mol
 298.15  VIB  0.154E+26            30871.173    190.432    194.105
         ROT  0.244E+09              888.752      2.981     41.363
         INT  0.375E+34            31759.925    193.413    235.469
         TR   0.218E+29             1481.254      4.968     45.892
         TOT                       33241.1792   198.3811   281.3604  1177.2119

       T/K    H(0)-H(T)+PV         H(T)/Eh          T*S/Eh         G(T)/Eh
   ------------------------------------------------------------------------
    298.15    0.529732E-01    0.859547E+00    0.133683E+00    0.725864E+00
   ------------------------------------------------------------------------

         :::::::::::::::::::::::::::::::::::::::::::::::::::::
         ::                  THERMODYNAMIC                  ::
         :::::::::::::::::::::::::::::::::::::::::::::::::::::
         :: total free energy        -158.894356671835 Eh   ::
         ::.................................................::
         :: total energy             -159.620220494312 Eh   ::
         :: zero point energy           0.806574036695 Eh   ::
         :: G(RRHO) w/o ZPVE           -0.080710214218 Eh   ::
         :: G(RRHO) contrib.            0.725863822477 Eh   ::
         :::::::::::::::::::::::::::::::::::::::::::::::::::::

           -------------------------------------------------
          | TOTAL ENERGY             -159.620220494312 Eh   |
          | TOTAL ENTHALPY           -158.760673266661 Eh   |
          | TOTAL FREE ENERGY        -158.894356671835 Eh   |
          | GRADIENT NORM               0.000199068357 Eh/α |
           -------------------------------------------------

 * finished run on 2025/09/05 at 04:48:31.040
