   * xtb version 6.7.1 (edcfbbe) compiled by 'albert@albert-system' on 2024-07-22

   ID    Z sym.   atoms
    1    6 C      1-11, 13, 15-20, 22-53, 55-62
    2    7 N      12, 21
    3    8 O      14, 54
    4    1 H      63-104

          program call               : xtb data2507/gas/NAI–BiFA/NAI–BiFA.xyz --gfn 2 --ohess vtight --parallel 40 --molden --ceasefiles --namespace data2507/gas/NAI–BiFA/NAI–BiFA_gas_S0_preOpt
          :  Hamiltonian                  GFN2-xTB          :
 * total energy  :  -159.6493445 Eh     change       -0.3142105E-08 Eh
 * total energy  :  -159.6667582 Eh     change       -0.1741368E-01 Eh
 * total energy  :  -159.6724179 Eh     change       -0.5659625E-02 Eh
 * total energy  :  -159.6749387 Eh     change       -0.2520867E-02 Eh
 * total energy  :  -159.6770838 Eh     change       -0.2145072E-02 Eh
 * total energy  :  -159.6782793 Eh     change       -0.1195485E-02 Eh
 * total energy  :  -159.6789607 Eh     change       -0.6814368E-03 Eh
 * total energy  :  -159.6795071 Eh     change       -0.5464289E-03 Eh
 * total energy  :  -159.6800488 Eh     change       -0.5416855E-03 Eh
 * total energy  :  -159.6806069 Eh     change       -0.5580594E-03 Eh
 * total energy  :  -159.6841437 Eh     change       -0.1739960E-05 Eh
 * total energy  :  -159.6841455 Eh     change       -0.1859930E-05 Eh
 * total energy  :  -159.6841474 Eh     change       -0.1918015E-05 Eh
 * total energy  :  -159.6841493 Eh     change       -0.1875320E-05 Eh
 * total energy  :  -159.6841512 Eh     change       -0.1874770E-05 Eh
 * total energy  :  -159.6841529 Eh     change       -0.1699358E-05 Eh
 * total energy  :  -159.6841544 Eh     change       -0.1562490E-05 Eh
 * total energy  :  -159.6841560 Eh     change       -0.1507798E-05 Eh
 * total energy  :  -159.6841560 Eh     change       -0.7378048E-08 Eh
   *** GEOMETRY OPTIMIZATION CONVERGED AFTER 68 ITERATIONS ***

 final structure:
================
104
 xtb: 6.7.1 (edcfbbe)
C            9.22189725632164       -0.42651549076292       -0.60217869379170
C            7.74174678024532       -0.33843697046547       -0.36670625417829
C            7.22368250479029       -0.33213560903725        0.93143402930700
C            8.08403384305257       -0.46649341857624        2.12402005677880
C            8.04050172573947        0.51474657596294        3.11048900933153
C            8.82360853070043        0.40369881349900        4.24474667230297
C            9.65063559858001       -0.69422731548234        4.41431129225867
C            9.68818475254660       -1.68240719659569        3.44499970930230
C            8.91207741401325       -1.56938349093191        2.30574653898419
C            5.85832628767094       -0.17511034612151        1.13931891545350
C            5.00472145755223       -0.00898804447608        0.06485278474883
N            3.60193402007544        0.17096871859271        0.28973928426849
C            3.22359290892819        1.26595052458480        1.05119981912326
O            4.04820775057667        2.04905842114890        1.47707395425622
C            1.77959183162568        1.41865088078587        1.29868682621720
C            1.34254871899188        2.44895873335144        2.10496741300372
C           -0.01668656156749        2.59159604113956        2.37900421480027
C           -0.93521653771024        1.74533745514077        1.80975947029615
C           -0.53519806038549        0.71172718131383        0.94076464632395
C           -1.44928210731247       -0.19286176554234        0.31538858045278
N           -2.82219032428820       -0.02211828967291        0.43010912428599
C           -3.41615959175540        1.23485701020711        0.25554559656864
C           -2.85959346192869        2.17084477524171       -0.61556036675113
C           -3.45047168029974        3.40607876645611       -0.77886946272060
C           -4.61353645316127        3.74470330987580       -0.08914159730720
C           -5.23996224802601        5.06216796474385       -0.26383248086112
C           -5.76343397763201        5.74927874501395        0.82944367113149
C           -6.35236816120703        6.98898595534888        0.66592820382592
C           -6.43346893813336        7.56126807837305       -0.59252256062879
C           -5.91825773918915        6.88664836224127       -1.68671102035416
C           -5.32405033310470        5.64920088536538       -1.52453182939884
C           -5.16942482899197        2.79931347728114        0.77152200123238
C           -4.58375830291600        1.56308616802481        0.94443906402633
C           -3.64663237854748       -1.15594259409840        0.54017476718890
C           -3.27506330147768       -2.19427538840519        1.39503441171399
C           -4.06969452891756       -3.31639714079942        1.53411644239258
C           -5.25352970335051       -3.39368460767247        0.81756148383558
C           -5.63066548267646       -2.34891578256053       -0.03980215556685
C           -4.83579295444065       -1.23735005028053       -0.18811696145398
C           -6.95160739663162       -2.65346671511306       -0.70829458014188
C           -8.00929360427749       -1.61385995843843       -0.32420423142948
C           -6.79982799767362       -2.72689082764914       -2.23051090117020
C           -7.27871019581109       -4.00984313833976       -0.12420229894382
C           -8.37396109900494       -4.81146802044141       -0.36134817033538
C           -8.46450017593908       -6.03255950766450        0.29399421012218
C           -7.47291397305352       -6.44265442087773        1.17164269050948
C           -6.36820943337224       -5.64330096839598        1.41598306262070
C           -6.27528160168512       -4.42448744304582        0.76433657006972
C           -0.95499670725701       -1.27136279279812       -0.40549963432497
C            0.40639271508436       -1.45990196233487       -0.57993374361711
C            1.31713214672272       -0.56675281842162       -0.04413769873538
C            0.85537244493362        0.52214348566374        0.72241597015572
C            2.74964906381942       -0.78265052181982       -0.26125068001360
O            3.19311608008986       -1.73302421552502       -0.87319722565942
C            5.50366408479436       -0.01273802058297       -1.22487625978084
C            6.86352026537745       -0.19365928413374       -1.44446709693040
C            7.33880808156535       -0.20824981105748       -2.84338922224759
C            7.10648286534016        0.88745584180167       -3.66844760355408
C            7.52651391425279        0.87547492915490       -4.98616735919595
C            8.17296013215065       -0.23622249502482       -5.49952967969964
C            8.39619240195925       -1.33654247905710       -4.68885860959949
C            7.98456648512827       -1.32260993208974       -3.36880788842754
H            9.53716522574248       -1.46179566391116       -0.72774186987251
H            9.49547322384845        0.11532452738700       -1.50505607039108
H            9.76768515448635       -0.01077820447269        0.24186331670829
H            7.39537448140964        1.37049407442925        2.97345363354424
H            8.78787558863378        1.17517063186977        5.00037540716053
H           10.26117336247565       -0.78165427706118        5.30120796714923
H           10.32445371616326       -2.54561366866407        3.57798521827365
H            8.93133144494740       -2.34963200487488        1.55939312176951
H            5.46743739991574       -0.17962058422097        2.14554733975473
H            2.07269834734735        3.12166226194290        2.52873718624971
H           -0.34788682712759        3.37355248983664        3.04528723418984
H           -1.98047824132093        1.86555036977101        2.04763298182462
H           -1.96039157410618        1.92274935917311       -1.16024689141487
H           -2.99653529544059        4.12544734641297       -1.44394706018126
H           -5.68783328435075        5.31646645079017        1.81652200039454
H           -6.74832933422550        7.51250993866952        1.52402154013697
H           -6.89585711415633        8.52878174716236       -0.71988418349368
H           -5.98183741316475        7.32656246723077       -2.67138626882361
H           -4.93950041751104        5.12079752638575       -2.38488947250592
H           -6.08046537163543        3.03210051424847        1.30261153385106
H           -5.02355899339289        0.84247735728510        1.61852481933317
H           -2.35347261296250       -2.10923575424126        1.95224627516227
H           -3.77205166337910       -4.11235070987414        2.19949520097057
H           -5.11167725565008       -0.43453176033505       -0.85606139190489
H           -8.11713369240277       -1.56974429676162        0.75759457324932
H           -7.72070117534245       -0.62942335425870       -0.68585419678591
H           -8.97110778247707       -1.87657964103582       -0.75788902765315
H           -6.04441875422634       -3.46279165972850       -2.49784927622820
H           -7.74236466355354       -3.01507626796086       -2.68962513463371
H           -6.50048881556047       -1.75979470166664       -2.62788672196730
H           -9.15275548679793       -4.50263077059044       -1.04352481920407
H           -9.31786560834587       -6.67076419465949        0.11733636937537
H           -7.56366581566938       -7.39687346781795        1.66981806562030
H           -5.59647298785049       -5.96467998808592        2.09951714503134
H           -1.65188135171285       -1.96177784348160       -0.85716105383350
H            0.77794607934582       -2.29242628196740       -1.15770217267701
H            4.83705173640482        0.10642394080656       -2.06551415949489
H            6.60460088653342        1.75543955850691       -3.26507952552587
H            7.34724838259903        1.73524473193117       -5.61568712458002
H            8.49838762123793       -0.24660803698806       -6.52951554369774
H            8.89171963367621       -2.20978023364284       -5.08809315385269
H            8.14518202669259       -2.18730019356224       -2.74223103109857

          :  Hamiltonian                  GFN2-xTB          :
         :: gradient norm              0.000065478205 Eh/a0 ::
         :: HOMO-LUMO gap              1.577488485339 eV    ::
         :: SCC energy              -162.582937653242 Eh    ::
         :: -> dispersion             -0.146581468356 Eh    ::
         :: repulsion energy           2.898781688450 Eh    ::

    * Orbital Energies and Occupations

         #    Occupation            Energy/Eh            Energy/eV
      -------------------------------------------------------------
         1        2.0000           -0.7058666             -19.2076
       ...           ...                  ...                  ...
       136        2.0000           -0.4037262             -10.9859
       137        2.0000           -0.4028488             -10.9621
       138        2.0000           -0.4026412             -10.9564
       139        2.0000           -0.4000581             -10.8861
       140        2.0000           -0.3978468             -10.8260
       141        2.0000           -0.3974470             -10.8151
       142        2.0000           -0.3966648             -10.7938
       143        2.0000           -0.3965715             -10.7913
       144        2.0000           -0.3931900             -10.6992
       145        2.0000           -0.3901042             -10.6153
       146        2.0000           -0.3798612             -10.3365
       147        2.0000           -0.3782233             -10.2920
       148        2.0000           -0.3615529              -9.8384 (HOMO)
       149                         -0.3035813              -8.2609 (LUMO)
       150                         -0.2603834              -7.0854
       151                         -0.2521710              -6.8619
       152                         -0.2472787              -6.7288
       153                         -0.2416164              -6.5747
       154                         -0.2362287              -6.4281
       155                         -0.2336854              -6.3589
       156                         -0.2318647              -6.3094
       157                         -0.2275480              -6.1919
       158                         -0.2272744              -6.1845
       159                         -0.2241644              -6.0998
       ...                                ...                  ...
       290                          0.7342267              19.9793
      -------------------------------------------------------------
                  HL-Gap            0.0579716 Eh            1.5775 eV

     #   Z          covCN         q      C6AA      α(0)
     1   6 C        3.757    -0.106    22.570     6.774
     2   6 C        2.970     0.010    27.786     8.646
     3   6 C        2.982     0.004    27.938     8.670
     4   6 C        2.980     0.015    27.682     8.630
     5   6 C        2.926    -0.034    28.839     8.807
     6   6 C        2.919    -0.030    28.740     8.791
     7   6 C        2.920    -0.032    28.802     8.801
     8   6 C        2.919    -0.031    28.774     8.796
     9   6 C        2.924    -0.033    28.818     8.803
    10   6 C        2.929    -0.036    28.897     8.816
    11   6 C        2.932     0.080    26.211     8.396
    12   7 N        2.746    -0.103    23.269     7.164
    13   6 C        2.776     0.273    22.389     7.750
    14   8 O        0.859    -0.411    21.908     6.276
    15   6 C        2.978    -0.026    28.640     8.778
    16   6 C        2.922    -0.013    28.340     8.730
    17   6 C        2.915    -0.029    28.717     8.787
    18   6 C        2.918    -0.025    28.637     8.775
    19   6 C        2.981     0.001    27.994     8.679
    20   6 C        2.920     0.068    26.474     8.438
    21   7 N        2.753    -0.062    22.444     7.036
    22   6 C        2.924     0.063    26.593     8.457
    23   6 C        2.920    -0.047    29.176     8.858
    24   6 C        2.924    -0.033    28.819     8.804
    25   6 C        2.976     0.005    27.916     8.667
    26   6 C        2.977     0.010    27.794     8.648
    27   6 C        2.925    -0.034    28.848     8.808
    28   6 C        2.918    -0.029    28.727     8.789
    29   6 C        2.920    -0.030    28.759     8.794
    30   6 C        2.918    -0.029    28.725     8.789
    31   6 C        2.925    -0.034    28.846     8.808
    32   6 C        2.924    -0.034    28.850     8.808
    33   6 C        2.920    -0.048    29.189     8.860
    34   6 C        2.930     0.058    26.706     8.475
    35   6 C        2.924    -0.049    29.218     8.864
    36   6 C        2.914    -0.033    28.831     8.805
    37   6 C        3.036    -0.004    28.091     8.693
    38   6 C        3.056     0.001    27.961     8.672
    39   6 C        2.917    -0.050    29.236     8.867
    40   6 C        3.936     0.019    20.190     6.385
    41   6 C        3.759    -0.098    22.430     6.752
    42   6 C        3.758    -0.099    22.441     6.754
    43   6 C        3.056    -0.002    28.018     8.681
    44   6 C        2.915    -0.033    28.828     8.804
    45   6 C        2.922    -0.032    28.807     8.802
    46   6 C        2.921    -0.032    28.806     8.802
    47   6 C        2.914    -0.034    28.845     8.807
    48   6 C        3.037     0.000    27.988     8.677
    49   6 C        2.919    -0.050    29.236     8.867
    50   6 C        2.920    -0.015    28.378     8.736
    51   6 C        2.977    -0.037    28.919     8.821
    52   6 C        2.994     0.009    27.812     8.651
    53   6 C        2.775     0.272    22.401     7.752
    54   8 O        0.859    -0.412    21.918     6.277
    55   6 C        2.928    -0.036    28.890     8.815
    56   6 C        2.982     0.004    27.932     8.669
    57   6 C        2.979     0.016    27.645     8.625
    58   6 C        2.925    -0.034    28.836     8.806
    59   6 C        2.919    -0.030    28.745     8.792
    60   6 C        2.920    -0.032    28.796     8.800
    61   6 C        2.919    -0.030    28.748     8.792
    62   6 C        2.925    -0.031    28.767     8.796
    63   1 H        0.925     0.048     2.350     2.397
    64   1 H        0.925     0.044     2.393     2.419
    65   1 H        0.925     0.045     2.377     2.411
    66   1 H        0.926     0.040     2.451     2.448
    67   1 H        0.926     0.029     2.594     2.518
    68   1 H        0.926     0.027     2.624     2.533
    69   1 H        0.926     0.028     2.616     2.529
    70   1 H        0.926     0.032     2.560     2.502
    71   1 H        0.926     0.044     2.392     2.418
    72   1 H        0.926     0.068     2.111     2.272
    73   1 H        0.926     0.044     2.399     2.422
    74   1 H        0.926     0.044     2.397     2.421
    75   1 H        0.926     0.031     2.573     2.509
    76   1 H        0.926     0.038     2.479     2.462
    77   1 H        0.926     0.031     2.577     2.510
    78   1 H        0.926     0.031     2.574     2.509
    79   1 H        0.926     0.031     2.572     2.508
    80   1 H        0.926     0.031     2.573     2.508
    81   1 H        0.926     0.031     2.575     2.509
    82   1 H        0.926     0.037     2.488     2.467
    83   1 H        0.926     0.035     2.516     2.480
    84   1 H        0.926     0.033     2.547     2.496
    85   1 H        0.926     0.037     2.483     2.464
    86   1 H        0.926     0.033     2.547     2.495
    87   1 H        0.925     0.036     2.501     2.473
    88   1 H        0.925     0.041     2.442     2.444
    89   1 H        0.925     0.043     2.414     2.430
    90   1 H        0.925     0.037     2.489     2.467
    91   1 H        0.925     0.043     2.413     2.429
    92   1 H        0.925     0.041     2.442     2.444
    93   1 H        0.926     0.028     2.611     2.527
    94   1 H        0.926     0.030     2.580     2.512
    95   1 H        0.926     0.030     2.579     2.511
    96   1 H        0.926     0.031     2.575     2.509
    97   1 H        0.926     0.043     2.405     2.425
    98   1 H        0.926     0.068     2.111     2.272
    99   1 H        0.926     0.045     2.389     2.417
   100   1 H        0.926     0.031     2.578     2.511
   101   1 H        0.926     0.028     2.609     2.526
   102   1 H        0.926     0.028     2.616     2.529
   103   1 H        0.926     0.029     2.598     2.520
   104   1 H        0.926     0.033     2.539     2.492

molecular dipole:
                 x           y           z       tot (Debye)
 q only:       -2.341       0.213      -0.012
   full:       -2.576       0.235       0.025       6.574

 projected vibrational frequencies (cm⁻¹)
eigval :       -0.00    -0.00     0.00     0.00     0.00     0.00
eigval :        6.25     8.09    12.45    16.32    20.13    23.31
eigval :       28.30    29.96    34.37    38.19    40.07    44.92
eigval :       59.05    62.74    69.60    71.05    78.14    88.56
eigval :       90.58   102.54   103.65   109.41   119.09   129.17
eigval :      132.89   140.42   150.63   156.67   166.99   177.75
eigval :      182.23   184.71   195.92   210.01   213.21   218.08
eigval :      226.97   245.98   256.19   259.67   265.79   270.50
eigval :      282.69   290.88   294.31   300.12   312.60   321.75
eigval :      324.95   327.28   335.61   357.91   370.41   370.62
eigval :      372.16   375.40   380.11   384.18   390.64   392.82
eigval :      401.85   422.74   424.40   429.43   436.27   446.28
eigval :      460.27   467.95   478.89   488.18   492.65   504.14
eigval :      517.91   528.23   541.06   541.20   545.85   564.37
eigval :      565.22   569.17   578.47   579.68   581.21   588.31
eigval :      590.72   591.67   597.74   601.92   607.11   614.57
eigval :      619.18   633.29   637.60   665.13   666.24   677.26
eigval :      682.35   683.14   687.72   689.94   692.81   697.59
eigval :      704.42   723.34   726.44   741.61   746.03   754.18
eigval :      756.14   766.07   769.91   779.05   780.72   793.50
eigval :      805.15   812.81   820.62   823.42   830.43   847.79
eigval :      849.70   869.33   872.36   878.68   879.48   879.91
eigval :      881.99   884.20   887.91   901.29   903.78   905.89
eigval :      907.90   910.60   911.13   912.87   917.30   921.82
eigval :      926.02   927.84   927.96   931.02   931.69   932.38
eigval :      932.67   932.70   933.87   937.47   952.09   966.21
eigval :      966.76   975.39   980.48   986.62   998.20  1013.25
eigval :     1015.95  1025.79  1028.65  1042.43  1061.82  1069.63
eigval :     1076.21  1078.40  1083.70  1084.89  1088.34  1104.56
eigval :     1112.94  1118.74  1119.80  1122.17  1134.32  1142.79
eigval :     1144.51  1151.49  1157.81  1175.44  1177.89  1182.42
eigval :     1182.57  1182.59  1183.27  1186.60  1191.16  1194.89
eigval :     1197.19  1200.83  1203.18  1206.14  1215.12  1220.97
eigval :     1226.52  1227.95  1230.57  1241.64  1246.00  1252.35
eigval :     1271.30  1272.26  1277.73  1279.85  1280.39  1282.08
eigval :     1285.90  1295.05  1311.79  1313.35  1316.29  1317.12
eigval :     1317.34  1319.53  1320.26  1331.65  1338.02  1351.51
eigval :     1368.32  1372.40  1395.90  1395.98  1406.44  1406.71
eigval :     1411.92  1412.89  1419.68  1427.03  1432.40  1433.70
eigval :     1434.89  1436.58  1447.07  1456.45  1457.96  1464.23
eigval :     1474.18  1478.70  1483.79  1486.90  1488.82  1489.11
eigval :     1493.95  1497.32  1498.91  1502.00  1512.01  1547.15
eigval :     1555.82  1561.86  1576.25  1577.18  1578.13  1582.80
eigval :     1583.61  1585.39  1590.10  1592.49  1594.48  1599.68
eigval :     1600.67  1601.67  1603.41  1609.25  1685.36  1696.63
eigval :     3002.72  3028.37  3031.62  3033.07  3034.60  3034.87
eigval :     3038.42  3039.41  3041.12  3069.27  3069.70  3071.96
eigval :     3072.25  3072.43  3072.98  3073.55  3076.29  3079.49
eigval :     3080.25  3080.55  3081.20  3081.95  3082.91  3083.04
eigval :     3084.40  3085.39  3086.62  3088.08  3089.29  3089.50
eigval :     3091.74  3091.97  3092.01  3092.27  3093.15  3094.16
eigval :     3094.67  3095.07  3095.79  3101.17  3103.14  3108.48

   temp. (K)  partition function   enthalpy   heat capacity  entropy
                                   cal/mol     cal/K/mol   cal/K/mol   J/K/mol
 298.15  VIB  0.118E+26            30712.812    189.182    193.237
         ROT  0.257E+09              888.752      2.981     41.465
         INT  0.304E+34            31601.565    192.163    234.702
         TR   0.218E+29             1481.254      4.968     45.892
         TOT                       33082.8187   197.1314   280.5941  1174.0056

       T/K    H(0)-H(T)+PV         H(T)/Eh          T*S/Eh         G(T)/Eh
   ------------------------------------------------------------------------
    298.15    0.527208E-01    0.862413E+00    0.133319E+00    0.729094E+00
   ------------------------------------------------------------------------

         :::::::::::::::::::::::::::::::::::::::::::::::::::::
         ::                  THERMODYNAMIC                  ::
         :::::::::::::::::::::::::::::::::::::::::::::::::::::
         :: total free energy        -158.955062158756 Eh   ::
         ::.................................................::
         :: total energy             -159.684155964789 Eh   ::
         :: zero point energy           0.809692271636 Eh   ::
         :: G(RRHO) w/o ZPVE           -0.080598465602 Eh   ::
         :: G(RRHO) contrib.            0.729093806034 Eh   ::
         :::::::::::::::::::::::::::::::::::::::::::::::::::::

           -------------------------------------------------
          | TOTAL ENERGY             -159.684155964789 Eh   |
          | TOTAL ENTHALPY           -158.821742865808 Eh   |
          | TOTAL FREE ENERGY        -158.955062158756 Eh   |
          | GRADIENT NORM               0.000065478629 Eh/α |
          | HOMO-LUMO GAP               1.577487513985 eV   |
           -------------------------------------------------

 * finished run on 2025/09/05 at 04:16:28.063
