   * xtb version 6.7.1 (edcfbbe) compiled by 'albert@albert-system' on 2024-07-22

   ID    Z sym.   atoms
    1    6 C      1-11, 13, 15-20, 22-53, 55-62
    2    7 N      12, 21
    3    8 O      14, 54
    4    1 H      63-104

          program call               : xtb data2507/gas/NAI–BiFA/NAI–BiFA_gas_S0_crest.xyz --gfn 2 --ohess vtight --parallel 40 --molden --ceasefiles --namespace data2507/gas/NAI–BiFA/NAI–BiFA_gas_S0_finalOpt
          :  Hamiltonian                  GFN2-xTB          :
 * total energy  :  -159.6845172 Eh     change       -0.3311413E-08 Eh
 * total energy  :  -159.6845187 Eh     change       -0.1495173E-05 Eh
 * total energy  :  -159.6845198 Eh     change       -0.1082859E-05 Eh
 * total energy  :  -159.6845210 Eh     change       -0.1191499E-05 Eh
 * total energy  :  -159.6845224 Eh     change       -0.1426152E-05 Eh
 * total energy  :  -159.6845242 Eh     change       -0.1817637E-05 Eh
 * total energy  :  -159.6845259 Eh     change       -0.1703985E-05 Eh
 * total energy  :  -159.6845271 Eh     change       -0.1138994E-05 Eh
 * total energy  :  -159.6845280 Eh     change       -0.9624920E-06 Eh
 * total energy  :  -159.6845290 Eh     change       -0.9917213E-06 Eh
 * total energy  :  -159.6845426 Eh     change       -0.1565407E-06 Eh
 * total energy  :  -159.6845428 Eh     change       -0.1450909E-06 Eh
 * total energy  :  -159.6845429 Eh     change       -0.1284415E-06 Eh
 * total energy  :  -159.6845430 Eh     change       -0.1114543E-06 Eh
 * total energy  :  -159.6845431 Eh     change       -0.1034167E-06 Eh
 * total energy  :  -159.6845432 Eh     change       -0.1085490E-06 Eh
 * total energy  :  -159.6845434 Eh     change       -0.1369726E-06 Eh
 * total energy  :  -159.6845435 Eh     change       -0.1383330E-06 Eh
 * total energy  :  -159.6845435 Eh     change       -0.8789982E-09 Eh
   *** GEOMETRY OPTIMIZATION CONVERGED AFTER 44 ITERATIONS ***

 final structure:
================
104
 xtb: 6.7.1 (edcfbbe)
C            8.98180439231353       -0.66576841323635       -0.71447836156476
C            7.53542009106136       -0.46918085539883       -0.36310433505464
C            6.77762526921376       -1.52262406832815        0.15620131497652
C            7.36495345619488       -2.84661414063137        0.44368549133577
C            8.43499985427798       -2.99284966800617        1.32049381416464
C            8.95074595934906       -4.24682280679215        1.59327351824652
C            8.40775052745430       -5.36927938506566        0.99096470921235
C            7.33761410354813       -5.23341017975587        0.12236612140323
C            6.81487289406532       -3.98147588704537       -0.14540233590100
C            5.41979172837329       -1.35403864813473        0.40130193769458
C            4.80840442075615       -0.14572459529316        0.12546446382386
N            3.40349585828135        0.01330199153940        0.35632168195973
C            3.02546223394858        0.94848184931740        1.30708548383503
O            3.85548252365181        1.57995685933972        1.92818661457480
C            1.57654669603779        1.11112842505673        1.51705481780214
C            1.13286595355300        2.00760647775239        2.46688352019476
C           -0.23260686123881        2.14921408920243        2.70893620290015
C           -1.14801231394691        1.43499972882574        1.97695903216961
C           -0.73803526183923        0.54051699671808        0.96934970147037
C           -1.64900552745238       -0.22909996292956        0.18073070082175
N           -3.02068449570328       -0.03066490830840        0.27426952304371
C           -3.56179469745366        1.26109690986854        0.24825856924455
C           -2.93205728277198        2.27894450231984       -0.46760630334367
C           -3.46336183152918        3.55098947021384       -0.48119328176716
C           -4.64547642015991        3.84465318964814        0.19689044320912
C           -5.21038613017732        5.20020722672394        0.17376109548749
C           -4.38188885327867        6.31563446889558        0.27779240977906
C           -4.91346812646659        7.59136900676618        0.25860092321404
C           -6.28009180271728        7.77511182684277        0.13012378211540
C           -7.11288074156470        6.67380549552187        0.02372766952225
C           -6.58393089494515        5.39701361648962        0.04792456715552
C           -5.27757885270176        2.81776618243386        0.89663004326454
C           -4.74428497710008        1.54668934222669        0.93077990527754
C           -3.88198363508816       -1.13884421868242        0.20857043357131
C           -3.56268480249865       -2.29821255922912        0.91660837599150
C           -4.39819008627530       -3.39868562429099        0.88850540405144
C           -5.57061737602035       -3.33301139394054        0.15233931857227
C           -5.89327140679559       -2.16836014824448       -0.56064275335735
C           -5.05748423612563       -1.07729767027475       -0.54372293787311
C           -7.21111483221909       -2.32920949653716       -1.28318553347933
C           -8.23668027334428       -1.30803002237755       -0.78097956536063
C           -7.03123601768699       -2.20731697958817       -2.79927769937422
C           -7.60022988322740       -3.73690857974488       -0.88958110571306
C           -8.72122225471023       -4.45490377537800       -1.24488189488350
C           -8.87046056467222       -5.74735823819015       -0.75902172779994
C           -7.91102255527518       -6.31008615798567        0.06830335025741
C           -6.78059264837213       -5.59580264155292        0.43021825070878
C           -6.62916069863449       -4.30614550371053       -0.05211838639712
C           -1.15528358769313       -1.19671735137745       -0.68273462993654
C            0.20750658965074       -1.38409786104743       -0.85083884588093
C            1.11834463447934       -0.60875397929707       -0.15556972868039
C            0.65469250620807        0.34976624515472        0.76842544731292
C            2.55238561492984       -0.79772405088416       -0.38840499079715
O            2.99708099769929       -1.59697195556681       -1.18765101400127
C            5.54649670066259        0.90664959719440       -0.38387972592095
C            6.90788093953659        0.75410452496236       -0.61552168323582
C            7.64935536196532        1.91323255268515       -1.15354936299936
C            8.71706226778192        2.46909264018169       -0.45652235846172
C            9.38390145038092        3.57159744234884       -0.95858197529440
C            8.99641022580657        4.13006843802159       -2.16509980755500
C            7.93098536143347        3.58671028029339       -2.86292659567426
C            7.25770699781607        2.48922533521658       -2.35788581913850
H            9.25627374432545       -0.03618626867580       -1.55822205749651
H            9.62761173083283       -0.40067488139950        0.12190710910301
H            9.17419146506589       -1.70568576341104       -0.96881438989399
H            8.85003481278100       -2.12100218697872        1.80406904651419
H            9.77926811080567       -4.34926304417585        2.27933441540291
H            8.81507612791318       -6.34749554299183        1.20108696883116
H            6.90815831561304       -6.10688626595395       -0.34670363992477
H            5.98156930007792       -3.87087230009852       -0.82409973070686
H            4.84320507733520       -2.17256985321565        0.80492748819657
H            1.86242666087651        2.57570041681879        3.02391461375739
H           -0.57107183887914        2.82405228852930        3.48041304713340
H           -2.19912909032733        1.54882130185852        2.19144763216649
H           -2.02602203494492        2.06306379866808       -1.01467506620263
H           -2.97148963106120        4.32348451597600       -1.05323118840536
H           -3.31677089275548        6.17834694294003        0.39589809368300
H           -4.25933946757452        8.44665301895020        0.34627978864959
H           -6.69431819599611        8.77222852263632        0.11299128633321
H           -8.17938535122176        6.81113177084235       -0.08084810798492
H           -7.23764345784345        4.54267014062029       -0.05312333355678
H           -6.18345532536422        3.02640386153396        1.44631118947843
H           -5.23463495448464        0.76606559993079        1.49408984707608
H           -2.65035444455403       -2.32403164781628        1.49460036400052
H           -4.14132171706803       -4.28859799363092        1.44256370367330
H           -5.29154419158502       -0.18182266623113       -1.10055710506177
H           -8.36491949804699       -1.40257754925210        0.29536779739986
H           -7.90362106459726       -0.29701481054613       -1.00481881328238
H           -9.19859428600260       -1.47255301712806       -1.26042899782118
H           -6.30016540536100       -2.93247294898677       -3.15045896514168
H           -7.97480307190778       -2.39275634852415       -3.30675530750516
H           -6.68568903805597       -1.20968158908944       -3.06030987226713
H           -9.47549740998385       -4.02698253793155       -1.88926532964807
H           -9.74478332011299       -6.32119342061429       -1.02924777730833
H           -8.04753335166651       -7.31727860654380        0.43421546352610
H           -6.03412433938557       -6.03595466990455        1.07453357441960
H           -1.85186919387066       -1.79181816021761       -1.25461404717755
H            0.58034331216456       -2.11923892765806       -1.54766729262984
H            5.07070644089528        1.85385595487005       -0.58889919915715
H            9.01047010871569        2.04434556047071        0.49191877740107
H           10.20872626656410        3.99823557163002       -0.40623452337479
H            9.52090600003529        4.98850867390793       -2.55859328774117
H            7.62278420832529        4.02090849795788       -3.80319471916347
H            6.42844865996419        2.06126688117262       -2.90299990978273

          :  Hamiltonian                  GFN2-xTB          :
         :: gradient norm              0.000021727870 Eh/a0 ::
         :: HOMO-LUMO gap              1.564230810336 eV    ::
         :: SCC energy              -162.583568572027 Eh    ::
         :: -> dispersion             -0.146724817132 Eh    ::
         :: repulsion energy           2.899025072655 Eh    ::

    * Orbital Energies and Occupations

         #    Occupation            Energy/Eh            Energy/eV
      -------------------------------------------------------------
         1        2.0000           -0.7060048             -19.2114
       ...           ...                  ...                  ...
       136        2.0000           -0.4037747             -10.9873
       137        2.0000           -0.4032235             -10.9723
       138        2.0000           -0.4028810             -10.9630
       139        2.0000           -0.4000133             -10.8849
       140        2.0000           -0.3983868             -10.8407
       141        2.0000           -0.3980614             -10.8318
       142        2.0000           -0.3970760             -10.8050
       143        2.0000           -0.3969085             -10.8004
       144        2.0000           -0.3937024             -10.7132
       145        2.0000           -0.3902047             -10.6180
       146        2.0000           -0.3803947             -10.3511
       147        2.0000           -0.3788546             -10.3092
       148        2.0000           -0.3615271              -9.8377 (HOMO)
       149                         -0.3040427              -8.2734 (LUMO)
       150                         -0.2604006              -7.0859
       151                         -0.2520232              -6.8579
       152                         -0.2476444              -6.7387
       153                         -0.2414707              -6.5708
       154                         -0.2360141              -6.4223
       155                         -0.2341668              -6.3720
       156                         -0.2317830              -6.3071
       157                         -0.2278811              -6.2010
       158                         -0.2273219              -6.1857
       159                         -0.2242079              -6.1010
       ...                                ...                  ...
       290                          0.7341430              19.9770
      -------------------------------------------------------------
                  HL-Gap            0.0574844 Eh            1.5642 eV

     #   Z          covCN         q      C6AA      α(0)
     1   6 C        3.757    -0.106    22.572     6.774
     2   6 C        2.970     0.010    27.780     8.645
     3   6 C        2.982     0.004    27.931     8.669
     4   6 C        2.980     0.015    27.680     8.630
     5   6 C        2.924    -0.033    28.816     8.803
     6   6 C        2.919    -0.031    28.772     8.796
     7   6 C        2.920    -0.032    28.801     8.801
     8   6 C        2.919    -0.030    28.740     8.791
     9   6 C        2.926    -0.034    28.839     8.807
    10   6 C        2.928    -0.035    28.882     8.814
    11   6 C        2.933     0.081    26.199     8.394
    12   7 N        2.746    -0.104    23.274     7.165
    13   6 C        2.776     0.273    22.388     7.750
    14   8 O        0.859    -0.410    21.874     6.271
    15   6 C        2.978    -0.026    28.639     8.778
    16   6 C        2.922    -0.013    28.340     8.730
    17   6 C        2.915    -0.029    28.713     8.787
    18   6 C        2.918    -0.025    28.636     8.775
    19   6 C        2.981     0.001    27.989     8.678
    20   6 C        2.921     0.068    26.472     8.437
    21   7 N        2.753    -0.062    22.446     7.037
    22   6 C        2.925     0.063    26.594     8.457
    23   6 C        2.920    -0.048    29.180     8.858
    24   6 C        2.925    -0.033    28.820     8.804
    25   6 C        2.976     0.004    27.920     8.667
    26   6 C        2.977     0.010    27.795     8.648
    27   6 C        2.925    -0.034    28.845     8.808
    28   6 C        2.918    -0.029    28.723     8.789
    29   6 C        2.920    -0.030    28.760     8.794
    30   6 C        2.918    -0.029    28.731     8.790
    31   6 C        2.925    -0.034    28.851     8.808
    32   6 C        2.924    -0.034    28.850     8.808
    33   6 C        2.920    -0.048    29.190     8.860
    34   6 C        2.929     0.058    26.704     8.475
    35   6 C        2.924    -0.049    29.226     8.865
    36   6 C        2.914    -0.033    28.831     8.805
    37   6 C        3.036    -0.004    28.096     8.694
    38   6 C        3.056     0.000    27.963     8.672
    39   6 C        2.917    -0.050    29.242     8.868
    40   6 C        3.936     0.019    20.190     6.385
    41   6 C        3.759    -0.098    22.427     6.752
    42   6 C        3.758    -0.099    22.440     6.754
    43   6 C        3.056    -0.002    28.019     8.681
    44   6 C        2.915    -0.033    28.829     8.805
    45   6 C        2.922    -0.032    28.808     8.802
    46   6 C        2.921    -0.032    28.807     8.802
    47   6 C        2.914    -0.034    28.847     8.807
    48   6 C        3.037     0.000    27.988     8.677
    49   6 C        2.918    -0.049    29.224     8.865
    50   6 C        2.920    -0.015    28.378     8.736
    51   6 C        2.977    -0.037    28.913     8.820
    52   6 C        2.994     0.009    27.813     8.651
    53   6 C        2.776     0.272    22.398     7.751
    54   8 O        0.859    -0.414    21.957     6.282
    55   6 C        2.928    -0.036    28.896     8.816
    56   6 C        2.982     0.004    27.929     8.669
    57   6 C        2.979     0.016    27.648     8.625
    58   6 C        2.924    -0.031    28.770     8.796
    59   6 C        2.919    -0.030    28.748     8.793
    60   6 C        2.920    -0.032    28.795     8.800
    61   6 C        2.919    -0.030    28.745     8.792
    62   6 C        2.925    -0.034    28.836     8.806
    63   1 H        0.925     0.044     2.391     2.418
    64   1 H        0.925     0.048     2.349     2.397
    65   1 H        0.925     0.046     2.377     2.411
    66   1 H        0.926     0.032     2.559     2.502
    67   1 H        0.926     0.028     2.614     2.528
    68   1 H        0.926     0.027     2.622     2.532
    69   1 H        0.926     0.029     2.593     2.518
    70   1 H        0.926     0.040     2.453     2.449
    71   1 H        0.926     0.044     2.390     2.418
    72   1 H        0.926     0.068     2.108     2.270
    73   1 H        0.926     0.044     2.397     2.421
    74   1 H        0.926     0.044     2.394     2.419
    75   1 H        0.926     0.031     2.576     2.510
    76   1 H        0.926     0.038     2.481     2.463
    77   1 H        0.926     0.031     2.568     2.506
    78   1 H        0.926     0.031     2.569     2.507
    79   1 H        0.926     0.031     2.573     2.508
    80   1 H        0.926     0.030     2.579     2.511
    81   1 H        0.926     0.030     2.585     2.514
    82   1 H        0.926     0.037     2.488     2.467
    83   1 H        0.926     0.035     2.515     2.480
    84   1 H        0.926     0.032     2.553     2.499
    85   1 H        0.926     0.037     2.486     2.466
    86   1 H        0.926     0.033     2.546     2.495
    87   1 H        0.925     0.036     2.502     2.473
    88   1 H        0.925     0.040     2.446     2.446
    89   1 H        0.925     0.043     2.416     2.431
    90   1 H        0.925     0.037     2.489     2.467
    91   1 H        0.925     0.043     2.414     2.430
    92   1 H        0.925     0.041     2.442     2.444
    93   1 H        0.926     0.028     2.612     2.527
    94   1 H        0.926     0.030     2.581     2.512
    95   1 H        0.926     0.030     2.581     2.512
    96   1 H        0.926     0.031     2.577     2.510
    97   1 H        0.926     0.044     2.402     2.424
    98   1 H        0.926     0.068     2.110     2.272
    99   1 H        0.926     0.043     2.405     2.425
   100   1 H        0.926     0.033     2.538     2.491
   101   1 H        0.926     0.029     2.596     2.520
   102   1 H        0.926     0.028     2.614     2.528
   103   1 H        0.926     0.029     2.607     2.525
   104   1 H        0.926     0.031     2.575     2.510

molecular dipole:
                 x           y           z       tot (Debye)
 q only:       -2.282       0.261      -0.075
   full:       -2.513       0.299      -0.024       6.433

 projected vibrational frequencies (cm⁻¹)
eigval :       -0.00    -0.00    -0.00    -0.00     0.00     0.00
eigval :        5.92     7.81    13.06    16.31    19.99    22.41
eigval :       28.01    29.75    34.75    38.68    39.86    45.54
eigval :       59.36    62.76    63.27    74.25    78.17    86.73
eigval :       88.87   101.27   104.06   111.73   117.82   129.75
eigval :      132.68   141.02   144.71   158.44   168.07   177.91
eigval :      181.67   189.67   195.83   200.46   217.14   222.01
eigval :      226.85   240.82   256.42   260.30   266.60   268.39
eigval :      284.09   287.60   292.92   302.12   310.51   322.04
eigval :      325.98   328.46   338.09   366.23   370.53   371.32
eigval :      372.11   374.49   375.57   385.25   390.60   392.44
eigval :      400.21   423.42   424.75   428.75   432.99   445.93
eigval :      462.43   468.62   480.10   484.12   492.86   503.22
eigval :      518.23   528.76   540.49   541.48   545.73   563.90
eigval :      565.52   568.78   577.67   578.94   582.43   588.78
eigval :      590.51   591.59   599.33   600.00   606.85   615.24
eigval :      619.03   632.74   638.08   665.47   666.03   677.29
eigval :      682.40   683.60   687.35   690.37   692.94   698.49
eigval :      703.63   723.22   726.49   741.67   746.31   754.11
eigval :      757.17   766.18   770.25   779.00   779.97   793.33
eigval :      805.49   812.27   820.61   823.50   830.29   847.43
eigval :      849.83   868.92   872.36   878.66   879.45   879.95
eigval :      882.02   884.57   887.81   901.11   903.92   906.03
eigval :      907.68   910.55   911.45   912.57   917.85   921.52
eigval :      926.21   927.95   928.24   931.11   931.99   932.41
eigval :      932.70   932.87   933.82   937.47   952.22   966.22
eigval :      966.72   975.32   980.44   986.55   998.22  1013.31
eigval :     1015.97  1025.82  1028.70  1041.99  1061.54  1069.60
eigval :     1076.22  1078.44  1083.60  1084.78  1088.29  1104.49
eigval :     1113.05  1118.74  1119.72  1122.24  1134.24  1142.72
eigval :     1144.17  1151.51  1157.97  1175.46  1178.02  1182.43
eigval :     1182.56  1182.56  1183.29  1186.24  1190.97  1195.06
eigval :     1197.16  1200.50  1202.96  1206.21  1214.58  1221.37
eigval :     1226.57  1228.65  1231.02  1241.09  1246.11  1252.52
eigval :     1271.43  1272.32  1278.17  1279.85  1280.40  1282.08
eigval :     1286.02  1295.12  1311.88  1313.06  1316.29  1317.29
eigval :     1317.40  1319.95  1321.12  1331.79  1338.38  1352.09
eigval :     1368.31  1372.01  1395.83  1395.91  1406.58  1406.72
eigval :     1411.81  1412.57  1419.57  1426.95  1432.55  1433.73
eigval :     1435.00  1436.74  1446.74  1456.36  1458.08  1464.22
eigval :     1474.35  1478.57  1483.84  1486.87  1488.82  1489.15
eigval :     1494.11  1497.26  1499.11  1502.04  1511.46  1547.01
eigval :     1555.78  1561.94  1576.15  1577.27  1578.24  1582.72
eigval :     1583.60  1585.39  1590.10  1591.64  1594.42  1599.70
eigval :     1600.68  1601.60  1603.48  1609.32  1685.43  1697.33
eigval :     3003.00  3028.21  3031.44  3032.92  3034.51  3035.03
eigval :     3038.45  3039.28  3040.95  3069.44  3069.83  3071.83
eigval :     3071.90  3072.62  3073.14  3073.64  3076.19  3079.22
eigval :     3080.35  3080.40  3080.94  3081.75  3082.97  3083.18
eigval :     3084.32  3085.19  3086.87  3088.10  3088.94  3089.19
eigval :     3091.71  3091.90  3091.92  3092.53  3092.96  3093.12
eigval :     3093.95  3094.87  3094.89  3101.01  3102.83  3107.71

   temp. (K)  partition function   enthalpy   heat capacity  entropy
                                   cal/mol     cal/K/mol   cal/K/mol   J/K/mol
 298.15  VIB  0.138E+26            30724.466    189.151    193.453
         ROT  0.255E+09              888.752      2.981     41.444
         INT  0.352E+34            31613.218    192.131    234.897
         TR   0.218E+29             1481.254      4.968     45.892
         TOT                       33094.4718   197.0996   280.7891  1174.8217

       T/K    H(0)-H(T)+PV         H(T)/Eh          T*S/Eh         G(T)/Eh
   ------------------------------------------------------------------------
    298.15    0.527394E-01    0.862400E+00    0.133412E+00    0.728988E+00
   ------------------------------------------------------------------------

         :::::::::::::::::::::::::::::::::::::::::::::::::::::
         ::                  THERMODYNAMIC                  ::
         :::::::::::::::::::::::::::::::::::::::::::::::::::::
         :: total free energy        -158.955555634214 Eh   ::
         ::.................................................::
         :: total energy             -159.684543499372 Eh   ::
         :: zero point energy           0.809660436928 Eh   ::
         :: G(RRHO) w/o ZPVE           -0.080672571770 Eh   ::
         :: G(RRHO) contrib.            0.728987865158 Eh   ::
         :::::::::::::::::::::::::::::::::::::::::::::::::::::

           -------------------------------------------------
          | TOTAL ENERGY             -159.684543499372 Eh   |
          | TOTAL ENTHALPY           -158.822143664644 Eh   |
          | TOTAL FREE ENERGY        -158.955555634214 Eh   |
          | GRADIENT NORM               0.000021719178 Eh/α |
          | HOMO-LUMO GAP               1.564230571938 eV   |
           -------------------------------------------------

 * finished run on 2025/09/05 at 04:29:36.547
