   * xtb version 6.7.1 (edcfbbe) compiled by 'albert@albert-system' on 2024-07-22

   ID    Z sym.   atoms
    1    8 O      1, 21, 25
    2   15 P      2, 24
    3    6 C      3-20, 22, 23, 26-41
    4    1 H      42-67

          program call               : xtb data2507/gas/DBFDPO/DBFDPO_gas_S0_crest.xyz --gfn 2 --ohess vtight --parallel 40 --molden --ceasefiles --namespace data2507/gas/DBFDPO/DBFDPO_gas_S0_finalOpt
          :  Hamiltonian                  GFN2-xTB          :
 * total energy  :  -107.6863274 Eh     change       -0.1852840E-08 Eh
 * total energy  :  -107.6863282 Eh     change       -0.7764656E-06 Eh
 * total energy  :  -107.6863287 Eh     change       -0.5317911E-06 Eh
 * total energy  :  -107.6863292 Eh     change       -0.5053164E-06 Eh
 * total energy  :  -107.6863297 Eh     change       -0.5377658E-06 Eh
 * total energy  :  -107.6863302 Eh     change       -0.5202441E-06 Eh
 * total energy  :  -107.6863307 Eh     change       -0.4593792E-06 Eh
 * total energy  :  -107.6863311 Eh     change       -0.4403208E-06 Eh
 * total energy  :  -107.6863317 Eh     change       -0.5176550E-06 Eh
 * total energy  :  -107.6863322 Eh     change       -0.5459818E-06 Eh
 * total energy  :  -107.6863334 Eh     change       -0.2865096E-06 Eh
 * total energy  :  -107.6863337 Eh     change       -0.2518845E-06 Eh
 * total energy  :  -107.6863339 Eh     change       -0.1780472E-06 Eh
 * total energy  :  -107.6863340 Eh     change       -0.1311027E-06 Eh
 * total energy  :  -107.6863341 Eh     change       -0.1228799E-06 Eh
 * total energy  :  -107.6863342 Eh     change       -0.1114114E-06 Eh
 * total energy  :  -107.6863344 Eh     change       -0.1311620E-06 Eh
 * total energy  :  -107.6863345 Eh     change       -0.1376858E-06 Eh
 * total energy  :  -107.6863345 Eh     change       -0.2055614E-08 Eh
   *** GEOMETRY OPTIMIZATION CONVERGED AFTER 22 ITERATIONS ***

 final structure:
================
67
 xtb: 6.7.1 (edcfbbe)
O            2.25710394240781        0.85986224365017       -1.83836648335837
P            2.66466472150995        0.35594290343340       -0.52040185951641
C            1.81368485857938        1.13864266575957        0.87997424680894
C            1.44904128952605        2.46503079965228        0.70419268019823
C            0.79976464707814        3.14406307009171        1.71855236144044
C            0.50775019291184        2.49356089475548        2.90533036747420
C            0.87886755479295        1.17119284344182        3.08398972301816
C            1.54085900854562        0.49322619813203        2.07770528120591
C            4.43978494148404        0.56569554845046       -0.18209777115999
C            5.00271336244773        0.20873465988009        1.03665574191790
C            6.35635749386626        0.39454508210363        1.24563577677063
C            7.14642862508319        0.93841422661972        0.24380864745056
C            6.58391623480292        1.30019780378792       -0.96910716291109
C            5.22901952998102        1.11473809682305       -1.18120409569483
C            2.37736660134558       -1.43675412885109       -0.33625029157484
C            3.34308593735691       -2.42123440859445       -0.47934183241513
C            3.00886731210131       -3.77220744030734       -0.42848540297156
C            1.70371008206514       -4.18921529283215       -0.24242111057407
C            0.71516266606620       -3.22245858275059       -0.10412626131866
C            1.07143930457315       -1.86043449412573       -0.15674003279600
O            0.00035396720528       -1.04643035926886       -0.00123958515405
C           -1.06953935247732       -1.86221290918717        0.15329319163896
C           -2.37608965909070       -1.44078500891634        0.33350109393034
P           -2.66639762545913        0.35112107172653        0.52073732330438
O           -2.26092489624093        0.85289173617483        1.84016597412437
C           -4.44168695426877        0.55824118087993        0.18145855004066
C           -5.23341007838146        1.09970492596891        1.18274719883660
C           -6.58868077154633        1.28221755250320        0.97048854342057
C           -7.14911925681214        0.92513518117840       -0.24478047154339
C           -6.35657944678247        0.38892049284213       -1.24877399664846
C           -5.00256920426147        0.20596880710609       -1.03959695322515
C           -1.81497398951745        1.13751252949425       -0.87724220835057
C           -1.54277234853584        0.49510930258094       -2.07675875978805
C           -0.88037341660010        1.17526433073984       -3.08127244705806
C           -0.50803141473865        2.49679763595277       -2.89898498912715
C           -0.79917662991444        3.14423013765123       -1.71032974200076
C           -1.44896823552624        2.46301188737295       -0.69775441973924
C           -3.34029672739053       -2.42690812760336        0.47547738965265
C           -3.00404616369389       -3.77731445645404        0.42298815629988
C           -1.69826292525607       -4.19207849441841        0.23632924307355
C           -0.71122548686508       -3.22363744746029        0.09903049993940
H            1.66944416506959        2.94049834340608       -0.24116039499522
H            0.51378559298064        4.17718799307047        1.58169316996486
H           -0.01764996806437        3.01397986112009        3.69201845249926
H            0.64251793699512        0.66510088942421        4.00823143449872
H            1.82805682089600       -0.54052933691101        2.21616817580393
H            4.37843034776455       -0.21143924353612        1.81221843000432
H            6.79956185909159        0.11677552978427        2.19098567786898
H            8.20381814353757        1.08165773158234        0.41223745437010
H            7.20124892253469        1.72581317103745       -1.74670334668302
H            4.76115382257091        1.38728157153422       -2.11628567693180
H            4.37221039321795       -2.12734768410749       -0.62973328321587
H            3.79082920123170       -4.50845721328301       -0.54019553194102
H            1.45503192288727       -5.23869938140997       -0.20600600467205
H           -4.76712467766898        1.36895141196659        2.11957080750880
H           -7.20791663214715        1.70190186844885        1.74979459046452
H           -8.20680219309945        1.06607049545688       -0.41332135207939
H           -6.79813605838907        0.11480744590748       -2.19596154943497
H           -4.37648175936404       -0.20833775034813       -1.81684111170450
H           -1.83075779016480       -0.53807534309773       -2.21791159216079
H           -0.64459077589391        0.67153706245418       -4.00695348259994
H            0.01778905633595        3.01886711782828       -3.68429092004840
H           -0.51210617361371        4.17666385865001       -1.57059343915489
H           -1.66862334963252        2.93598911591369        0.24901864243296
H           -4.36983025816025       -2.13469419962429        0.62634921050505
H           -3.78485029941110       -4.51490171073976        0.53397282915239
H           -1.44792885227543       -5.24112895301146        0.19875506112653

          :  Hamiltonian                  GFN2-xTB          :
         :: gradient norm              0.000029604756 Eh/a0 ::
         :: HOMO-LUMO gap              3.428104779734 eV    ::
         :: SCC energy              -109.564853662437 Eh    ::
         :: -> dispersion             -0.107270021439 Eh    ::
         :: repulsion energy           1.878519165838 Eh    ::

    * Orbital Energies and Occupations

         #    Occupation            Energy/Eh            Energy/eV
      -------------------------------------------------------------
         1        2.0000           -0.7447673             -20.2662
       ...           ...                  ...                  ...
        87        2.0000           -0.4165013             -11.3336
        88        2.0000           -0.4137659             -11.2591
        89        2.0000           -0.4137469             -11.2586
        90        2.0000           -0.4067088             -11.0671
        91        2.0000           -0.4052579             -11.0276
        92        2.0000           -0.4045979             -11.0097
        93        2.0000           -0.3993287             -10.8663
        94        2.0000           -0.3992279             -10.8635
        95        2.0000           -0.3968763             -10.7996
        96        2.0000           -0.3965098             -10.7896
        97        2.0000           -0.3961505             -10.7798
        98        2.0000           -0.3942567             -10.7283
        99        2.0000           -0.3937887             -10.7155 (HOMO)
       100                         -0.2678082              -7.2874 (LUMO)
       101                         -0.2489068              -6.7731
       102                         -0.2484616              -6.7610
       103                         -0.2471456              -6.7252
       104                         -0.2325389              -6.3277
       105                         -0.2323930              -6.3237
       106                         -0.2291516              -6.2355
       107                         -0.2272780              -6.1845
       108                         -0.2214795              -6.0268
       109                         -0.2201925              -5.9917
       110                         -0.2197442              -5.9795
       ...                                ...                  ...
       200                          1.2215760              33.2408
      -------------------------------------------------------------
                  HL-Gap            0.1259806 Eh            3.4281 eV

     #   Z          covCN         q      C6AA      α(0)
     1   8 O        0.808    -0.355    20.819     6.116
     2  15 P        4.071     0.080   156.717    22.488
     3   6 C        2.922     0.017    27.633     8.620
     4   6 C        3.044    -0.018    28.424     8.744
     5   6 C        2.920    -0.023    28.574     8.766
     6   6 C        2.921    -0.015    28.387     8.737
     7   6 C        2.921    -0.017    28.446     8.746
     8   6 C        2.972    -0.017    28.430     8.746
     9   6 C        2.921     0.009    27.809     8.648
    10   6 C        2.982    -0.026    28.633     8.777
    11   6 C        2.920    -0.028    28.695     8.784
    12   6 C        2.921    -0.025    28.638     8.776
    13   6 C        2.919    -0.027    28.685     8.783
    14   6 C        3.019    -0.021    28.498     8.757
    15   6 C        2.908    -0.009    28.250     8.715
    16   6 C        2.968    -0.027    28.661     8.781
    17   6 C        2.920    -0.037    28.928     8.820
    18   6 C        2.913    -0.031    28.769     8.795
    19   6 C        3.057    -0.021    28.466     8.750
    20   6 C        3.228     0.139    24.251     7.998
    21   8 O        1.716    -0.192    17.213     5.602
    22   6 C        3.228     0.139    24.252     7.999
    23   6 C        2.908    -0.009    28.250     8.715
    24  15 P        4.071     0.080   156.717    22.488
    25   8 O        0.808    -0.355    20.819     6.116
    26   6 C        2.921     0.009    27.809     8.648
    27   6 C        3.019    -0.021    28.498     8.757
    28   6 C        2.919    -0.027    28.685     8.783
    29   6 C        2.921    -0.025    28.638     8.776
    30   6 C        2.920    -0.028    28.695     8.784
    31   6 C        2.982    -0.026    28.633     8.777
    32   6 C        2.922     0.017    27.632     8.620
    33   6 C        2.972    -0.017    28.431     8.746
    34   6 C        2.921    -0.017    28.446     8.746
    35   6 C        2.921    -0.015    28.385     8.737
    36   6 C        2.920    -0.023    28.573     8.766
    37   6 C        3.043    -0.018    28.424     8.744
    38   6 C        2.968    -0.027    28.661     8.781
    39   6 C        2.920    -0.037    28.928     8.820
    40   6 C        2.913    -0.031    28.769     8.795
    41   6 C        3.057    -0.021    28.466     8.750
    42   1 H        0.926     0.051     2.309     2.376
    43   1 H        0.926     0.036     2.503     2.474
    44   1 H        0.926     0.043     2.413     2.429
    45   1 H        0.926     0.040     2.442     2.444
    46   1 H        0.925     0.029     2.600     2.522
    47   1 H        0.926     0.040     2.451     2.448
    48   1 H        0.926     0.036     2.500     2.472
    49   1 H        0.926     0.037     2.485     2.465
    50   1 H        0.926     0.039     2.463     2.454
    51   1 H        0.926     0.062     2.179     2.309
    52   1 H        0.926     0.046     2.375     2.410
    53   1 H        0.926     0.044     2.395     2.420
    54   1 H        0.926     0.045     2.383     2.414
    55   1 H        0.926     0.062     2.179     2.308
    56   1 H        0.926     0.039     2.463     2.454
    57   1 H        0.926     0.037     2.485     2.465
    58   1 H        0.926     0.036     2.500     2.472
    59   1 H        0.926     0.040     2.451     2.448
    60   1 H        0.925     0.029     2.600     2.522
    61   1 H        0.926     0.040     2.443     2.444
    62   1 H        0.926     0.043     2.413     2.429
    63   1 H        0.926     0.036     2.503     2.474
    64   1 H        0.926     0.051     2.309     2.376
    65   1 H        0.926     0.046     2.375     2.410
    66   1 H        0.926     0.044     2.395     2.420
    67   1 H        0.926     0.045     2.383     2.414

molecular dipole:
                 x           y           z       tot (Debye)
 q only:        0.002      -0.682      -0.001
   full:        0.003      -0.918      -0.001       2.334

 projected vibrational frequencies (cm⁻¹)
eigval :       -0.00    -0.00    -0.00     0.00     0.00     0.00
eigval :       13.59    15.81    22.33    26.22    27.39    30.02
eigval :       39.77    41.24    48.84    50.19    59.86    64.45
eigval :       87.45   100.11   103.70   111.80   145.16   154.17
eigval :      154.31   166.36   190.76   197.47   223.94   225.04
eigval :      227.70   231.98   248.16   253.34   267.96   284.65
eigval :      285.46   303.75   312.56   360.56   362.65   362.72
eigval :      367.67   369.39   372.71   408.91   413.36   436.34
eigval :      442.47   451.07   483.82   491.16   497.33   512.34
eigval :      518.55   538.73   543.36   544.18   569.30   572.94
eigval :      585.61   585.63   586.68   586.94   656.11   656.47
eigval :      659.40   659.49   664.07   672.82   691.83   695.11
eigval :      714.44   716.38   717.31   723.38   740.87   741.02
eigval :      745.17   745.90   795.34   801.63   845.48   848.85
eigval :      877.88   878.19   878.79   879.21   888.89   891.26
eigval :      891.36   902.32   902.44   904.04   905.78   916.96
eigval :      918.61   926.54   926.97   927.35   928.96   932.69
eigval :      934.01   934.11   934.17   973.51   973.96   976.26
eigval :      976.34  1064.46  1076.43  1076.44  1080.59  1080.78
eigval :     1092.01  1100.31  1110.81  1110.89  1116.59  1117.48
eigval :     1126.39  1126.52  1129.27  1129.58  1167.17  1176.82
eigval :     1180.54  1180.74  1180.82  1181.61  1187.61  1188.85
eigval :     1189.47  1193.52  1195.81  1198.58  1234.80  1236.05
eigval :     1255.09  1258.21  1268.21  1268.31  1274.91  1274.93
eigval :     1289.86  1323.26  1323.28  1327.64  1328.25  1343.53
eigval :     1355.40  1380.14  1396.44  1425.60  1425.67  1426.93
eigval :     1427.08  1453.28  1453.31  1457.27  1457.62  1459.76
eigval :     1482.22  1564.76  1584.18  1584.34  1586.56  1587.44
eigval :     1587.59  1587.77  1588.29  1590.65  1590.85  1593.41
eigval :     1608.33  3055.46  3055.66  3069.20  3069.91  3071.01
eigval :     3071.09  3074.85  3074.87  3075.43  3075.45  3077.61
eigval :     3079.02  3079.64  3079.67  3083.91  3084.29  3085.42
eigval :     3085.44  3086.52  3087.41  3091.64  3091.78  3095.41
eigval :     3095.62  3097.61  3099.49

   temp. (K)  partition function   enthalpy   heat capacity  entropy
                                   cal/mol     cal/K/mol   cal/K/mol   J/K/mol
 298.15  VIB  0.408E+17            20475.253    124.037    128.518
         ROT  0.188E+08              888.752      2.981     36.262
         INT  0.766E+24            21364.006    127.018    164.780
         TR   0.131E+29             1481.254      4.968     44.878
         TOT                       22845.2596   131.9864   209.6584   877.2107

       T/K    H(0)-H(T)+PV         H(T)/Eh          T*S/Eh         G(T)/Eh
   ------------------------------------------------------------------------
    298.15    0.364062E-01    0.539121E+00    0.996155E-01    0.439506E+00
   ------------------------------------------------------------------------

         :::::::::::::::::::::::::::::::::::::::::::::::::::::
         ::                  THERMODYNAMIC                  ::
         :::::::::::::::::::::::::::::::::::::::::::::::::::::
         :: total free energy        -107.246828708316 Eh   ::
         ::.................................................::
         :: total energy             -107.686334496599 Eh   ::
         :: zero point energy           0.502715015486 Eh   ::
         :: G(RRHO) w/o ZPVE           -0.063209227203 Eh   ::
         :: G(RRHO) contrib.            0.439505788283 Eh   ::
         :::::::::::::::::::::::::::::::::::::::::::::::::::::

           -------------------------------------------------
          | TOTAL ENERGY             -107.686334496599 Eh   |
          | TOTAL ENTHALPY           -107.147213242569 Eh   |
          | TOTAL FREE ENERGY        -107.246828708316 Eh   |
          | GRADIENT NORM               0.000029598151 Eh/α |
          | HOMO-LUMO GAP               3.428105308314 eV   |
           -------------------------------------------------

 * finished run on 2025/08/25 at 13:04:42.553
