   * xtb version 6.7.1 (edcfbbe) compiled by 'albert@albert-system' on 2024-07-22

   ID    Z sym.   atoms
    1    8 O      1, 21, 25
    2   15 P      2, 24
    3    6 C      3-20, 22, 23, 26-41
    4    1 H      42-67

          program call               : xtb data2507/gas/DBFDPO/DBFDPO_gas_S0_finalOpt.xtbopt.xyz --gfn 2 --spinpol --tblite --uhf 2 --ohess vtight --parallel 40 --molden --ceasefiles --namespace data2507/gas/DBFDPO/DBFDPO_gas_T1_preOpt
 * total energy  :  -107.5610011 Eh     change        0.2157539E-07 Eh
 * total energy  :  -107.5696754 Eh     change       -0.8674371E-02 Eh
 * total energy  :  -107.5723077 Eh     change       -0.2632279E-02 Eh
 * total energy  :  -107.5724995 Eh     change       -0.1917739E-03 Eh
 * total energy  :  -107.5725275 Eh     change       -0.2798814E-04 Eh
 * total energy  :  -107.5725358 Eh     change       -0.8324719E-05 Eh
 * total energy  :  -107.5725398 Eh     change       -0.4011538E-05 Eh
 * total energy  :  -107.5725444 Eh     change       -0.4533949E-05 Eh
 * total energy  :  -107.5725509 Eh     change       -0.6541409E-05 Eh
 * total energy  :  -107.5725563 Eh     change       -0.5450716E-05 Eh
 * total energy  :  -107.5726098 Eh     change       -0.2201613E-06 Eh
 * total energy  :  -107.5726103 Eh     change       -0.4662599E-06 Eh
 * total energy  :  -107.5726104 Eh     change       -0.1518219E-06 Eh
 * total energy  :  -107.5726107 Eh     change       -0.2797561E-06 Eh
 * total energy  :  -107.5726110 Eh     change       -0.3088351E-06 Eh
 * total energy  :  -107.5726113 Eh     change       -0.2694203E-06 Eh
 * total energy  :  -107.5726114 Eh     change       -0.1130008E-06 Eh
 * total energy  :  -107.5726115 Eh     change       -0.1203628E-06 Eh
 * total energy  :  -107.5726116 Eh     change       -0.5517052E-07 Eh
   *** GEOMETRY OPTIMIZATION CONVERGED AFTER 30 ITERATIONS ***

 final structure:
================
67
 xtb: 6.7.1 (edcfbbe)
O            2.31634861812392        0.91079521322599       -1.86611438839942
P            2.68268257714131        0.37767541221053       -0.54676638942164
C            1.82428378728560        1.17271642658227        0.84295270137213
C            1.47221908185011        2.50112170460939        0.65764752308654
C            0.81961735789305        3.19068816850215        1.66286842691378
C            0.51126267695161        2.54866823776409        2.85007181959810
C            0.86979251157022        1.22410027384319        3.03843367003204
C            1.53583915129779        0.53613187445116        2.04183628970774
C            4.45474902479879        0.54220729871563       -0.16923053027458
C            4.99232588681708        0.10766685385496        1.03562867989757
C            6.34439514929179        0.26290095919391        1.27717293184293
C            7.15791757282983        0.85393370648853        0.32191139226425
C            6.62074794663110        1.29244620301297       -0.87712292775111
C            5.26750734524744        1.13748225085427       -1.12182971319023
C            2.35322235730515       -1.40540964709653       -0.38499361989600
C            3.33931235828576       -2.42958328435049       -0.57098867483311
C            2.99021063577810       -3.78390510140408       -0.51896185782935
C            1.70366904014937       -4.20510685540966       -0.30912148295104
C            0.67982394024898       -3.20363683618872       -0.12831684165960
C            1.07291403423957       -1.81439684356108       -0.19060551261031
O            0.00082239826219       -1.00129459330898       -0.00082839671126
C           -1.07002070514341       -1.81644416542349        0.18727737375232
C           -2.35097787983383       -1.40982510560654        0.38235981321945
P           -2.68315755104646        0.37243371181921        0.54759357086003
O           -2.31758005020737        0.90356737317006        1.86795416270965
C           -4.45545549284215        0.53510914858763        0.17036523108927
C           -5.26904843379951        1.12761390921135        1.12397840910757
C           -6.62246984072685        1.28127830164477        0.87944060781351
C           -7.15898229086508        0.84424335763208       -0.32043228399756
C           -6.34463169858280        0.25597517247770       -1.27669104210954
C           -4.99238117247032        0.10205074472717       -1.03532027592047
C           -1.82608783603317        1.17148600672529       -0.84064847923805
C           -1.53640627395484        0.53759998997556       -2.04065967678897
C           -0.87163955975425        1.22861838708249       -3.03600312608506
C           -0.51563887373313        2.55352713892947       -2.84526207393521
C           -0.82523401833999        3.19283179860435       -1.65691505629278
C           -1.47655426321458        2.50022545630835       -0.65295398113125
C           -3.33550103206791       -2.43590027244513        0.56622305116025
C           -2.98429735000849       -3.78956761407565        0.51149708959643
C           -1.69708071573080       -4.20835165888387        0.30091248434450
C           -0.67477081271551       -3.20493608098799        0.12219981284120
H            1.70440187017354        2.97023381190452       -0.28798042727432
H            0.54382014409012        4.22547198718841        1.51820788087789
H           -0.01669499941797        3.07717387983328        3.62959942906766
H            0.62060803909595        0.72449216087656        3.96277469211224
H            1.81357908595426       -0.49887484894676        2.18854626511686
H            4.35003879348569       -0.34951252262029        1.77469963460375
H            6.76803738021204       -0.07549152436141        2.21166541548186
H            8.21390848863874        0.97340953982163        0.51574066612230
H            7.25646911913872        1.75376288944803       -1.61870471746999
H            4.81939525754697        1.46813693561531       -2.04779533520467
H            4.35867136088922       -2.13288239858387       -0.76210349062252
H            3.77070847871966       -4.51760775754532       -0.66024827372383
H            1.43890907731413       -5.24884813239367       -0.28047658343985
H           -4.82142956450458        1.45717861195958        2.05056817004405
H           -7.25883748527223        1.74045614606273        1.62180040925413
H           -8.21510593415859        0.96273652043519       -0.51412865992161
H           -6.76777001544806       -0.08126950710993       -2.21182121215082
H           -4.34944128187459       -0.35296606374764       -1.77516351512443
H           -1.81221491590722       -0.49765389937058       -2.18925435368085
H           -0.62145573269725        0.73113105853608       -3.96121720962462
H            0.01137386024533        3.08441804745401       -3.62380762157619
H           -0.55141007440364        4.22787745472980       -1.51039356281025
H           -1.70970115341879        2.96721299066243        0.29348890981847
H           -4.35532668816046       -2.14115905182641        0.75787021970588
H           -3.76366331465840       -4.52476679771034        0.65122622014603
H           -1.43070329718655       -5.25162122810469        0.27018504319026

 projected vibrational frequencies (cm⁻¹)
eigval :       -0.00    -0.00    -0.00    -0.00     0.00     0.00
eigval :       13.68    14.15    19.47    25.84    26.11    30.61
eigval :       37.74    39.49    44.49    50.68    60.19    64.28
eigval :       82.68    92.33   100.97   113.34   140.55   149.01
eigval :      152.38   152.42   191.41   194.64   195.66   215.47
eigval :      225.03   225.33   234.13   240.63   255.21   264.38
eigval :      267.45   284.10   284.75   342.11   349.34   362.40
eigval :      362.45   369.16   372.95   400.14   407.19   424.87
eigval :      433.03   442.10   446.60   454.16   462.64   479.61
eigval :      488.72   488.86   505.50   509.47   538.84   562.39
eigval :      585.10   585.17   585.90   586.58   602.25   630.84
eigval :      640.71   643.48   655.25   655.57   658.88   659.13
eigval :      675.85   683.37   688.44   692.19   715.49   715.85
eigval :      739.24   740.07   743.98   744.59   760.24   763.94
eigval :      806.65   810.38   875.72   876.50   876.74   877.74
eigval :      878.61   895.99   896.41   900.75   901.48   903.65
eigval :      903.87   905.19   925.95   926.51   927.30   928.51
eigval :      931.80   932.72   933.74   933.78   971.82   972.88
eigval :      975.69   975.86  1000.78  1059.11  1075.79  1076.11
eigval :     1076.97  1080.42  1080.49  1104.88  1110.52  1110.60
eigval :     1116.79  1117.52  1120.80  1126.45  1126.75  1127.95
eigval :     1131.33  1137.29  1169.45  1172.97  1180.35  1180.54
eigval :     1180.63  1181.04  1188.05  1188.60  1192.61  1194.84
eigval :     1197.70  1248.48  1251.18  1267.42  1267.43  1274.12
eigval :     1274.30  1280.03  1315.08  1323.21  1323.25  1326.58
eigval :     1327.77  1328.37  1351.71  1356.24  1420.08  1425.23
eigval :     1425.30  1426.56  1426.93  1450.53  1453.27  1453.45
eigval :     1456.90  1457.23  1539.02  1583.84  1583.97  1585.54
eigval :     1585.78  1586.44  1586.76  1587.84  1588.31  1592.49
eigval :     1615.60  3056.46  3056.60  3069.61  3070.25  3070.68
eigval :     3070.70  3074.83  3074.85  3077.90  3078.18  3078.42
eigval :     3079.37  3079.42  3079.45  3084.21  3084.71  3085.28
eigval :     3085.33  3091.52  3091.76  3095.32  3095.61  3095.74
eigval :     3096.18  3110.64  3113.72

   temp. (K)  partition function   enthalpy   heat capacity  entropy
                                   cal/mol     cal/K/mol   cal/K/mol   J/K/mol
 298.15  VIB  0.164E+18            21148.389    127.522    132.818
         ROT  0.188E+08              888.752      2.981     36.269
         INT  0.308E+25            22037.141    130.503    169.087
         TR   0.131E+29             1481.254      4.968     44.878
         TOT                       23518.3948   135.4711   213.9653   895.2310

       T/K    H(0)-H(T)+PV         H(T)/Eh          T*S/Eh         G(T)/Eh
   ------------------------------------------------------------------------
    298.15    0.374789E-01    0.533641E+00    0.101662E+00    0.431979E+00
   ------------------------------------------------------------------------

         :::::::::::::::::::::::::::::::::::::::::::::::::::::
         ::                  THERMODYNAMIC                  ::
         :::::::::::::::::::::::::::::::::::::::::::::::::::::
         :: total free energy        -107.140632872910 Eh   ::
         ::.................................................::
         :: total energy             -107.572611620716 Eh   ::
         :: zero point energy           0.496161637347 Eh   ::
         :: G(RRHO) w/o ZPVE           -0.064182889541 Eh   ::
         :: G(RRHO) contrib.            0.431978747806 Eh   ::
         :::::::::::::::::::::::::::::::::::::::::::::::::::::

           -------------------------------------------------
          | TOTAL ENERGY             -107.572611620716 Eh   |
          | TOTAL ENTHALPY           -107.038971035583 Eh   |
          | TOTAL FREE ENERGY        -107.140632872910 Eh   |
          | GRADIENT NORM               0.000051181177 Eh/α |
           -------------------------------------------------

 * finished run on 2025/08/25 at 13:04:49.306
