   * xtb version 6.7.1 (edcfbbe) compiled by 'albert@albert-system' on 2024-07-22

   ID    Z sym.   atoms
    1    8 O      1, 21, 25
    2   15 P      2, 24
    3    6 C      3-20, 22, 23, 26-41
    4    1 H      42-67

          program call               : xtb data2507/gas/DBFDPO/DBFDPO.xyz --gfn 2 --ohess vtight --parallel 40 --molden --ceasefiles --namespace data2507/gas/DBFDPO/DBFDPO_gas_S0_preOpt
          :  Hamiltonian                  GFN2-xTB          :
 * total energy  :  -107.6646936 Eh     change       -0.2452907E-08 Eh
 * total energy  :  -107.6793770 Eh     change       -0.1468344E-01 Eh
 * total energy  :  -107.6835723 Eh     change       -0.4195239E-02 Eh
 * total energy  :  -107.6841322 Eh     change       -0.5599549E-03 Eh
 * total energy  :  -107.6846727 Eh     change       -0.5404318E-03 Eh
 * total energy  :  -107.6850079 Eh     change       -0.3352058E-03 Eh
 * total energy  :  -107.6853506 Eh     change       -0.3427354E-03 Eh
 * total energy  :  -107.6856221 Eh     change       -0.2715204E-03 Eh
 * total energy  :  -107.6857278 Eh     change       -0.1056448E-03 Eh
 * total energy  :  -107.6857717 Eh     change       -0.4391385E-04 Eh
 * total energy  :  -107.6862958 Eh     change       -0.9940155E-06 Eh
 * total energy  :  -107.6862967 Eh     change       -0.9476980E-06 Eh
 * total energy  :  -107.6862976 Eh     change       -0.8509453E-06 Eh
 * total energy  :  -107.6862983 Eh     change       -0.7937741E-06 Eh
 * total energy  :  -107.6862991 Eh     change       -0.7216945E-06 Eh
 * total energy  :  -107.6862997 Eh     change       -0.6604673E-06 Eh
 * total energy  :  -107.6863004 Eh     change       -0.6217996E-06 Eh
 * total energy  :  -107.6863009 Eh     change       -0.5848682E-06 Eh
 * total energy  :  -107.6863009 Eh     change       -0.1159738E-07 Eh
   *** GEOMETRY OPTIMIZATION CONVERGED AFTER 94 ITERATIONS ***

 final structure:
================
67
 xtb: 6.7.1 (edcfbbe)
O            2.20597872249011        0.77710922255243       -1.96288398179405
P            2.65258888511547        0.29194027202437       -0.65045539552926
C            1.85477227755694        1.10706672839201        0.76253082087225
C            1.50763832647297        2.43690044282872        0.57684600499487
C            0.90218565108974        3.14292305537612        1.59979005574833
C            0.63530579567174        2.51566696333156        2.80493899188507
C            0.98823228065312        1.18960988231956        2.99295686962429
C            1.60786744584210        0.48492439645808        1.97801990376601
C            4.43950510060386        0.49176634045593       -0.37371907482297
C            5.20298357653038        1.00520214928768       -1.41102873994293
C            6.56623586853150        1.17770257996109       -1.24683613983140
C            7.16278974264254        0.83876600464877       -0.04361490203241
C            6.39852377541773        0.33082279659770        0.99637607766016
C            5.03668754410684        0.15775503325534        0.83518770827493
C            2.36182164040716       -1.49630539080673       -0.43243792288880
C            3.31960655241470       -2.48280377102875       -0.61175310966301
C            2.98683326843141       -3.83321117355935       -0.54338995814936
C            1.68945668740820       -4.24774870097793       -0.30523474676589
C            0.70887236143362       -3.27906223245077       -0.12965477810949
C            1.06376563262856       -1.91731664234765       -0.19812265352419
O            0.00008693317232       -1.10248960396769       -0.00011180112202
C           -1.06344839929995       -1.91755327066176        0.19769361031309
C           -2.36157864560297       -1.49682720375082        0.43211140994186
P           -2.65264505584885        0.29132014934387        0.65054069128394
O           -2.20610617712646        0.77627403274415        1.96307283402863
C           -4.43959337452184        0.49092149052618        0.37385153758658
C           -5.20313323028548        1.00412108153401        1.41123267284729
C           -6.56641188273072        1.17644826389936        1.24707648620015
C           -7.16293225364511        0.83757107396011        0.04382204215094
C           -6.39860518912910        0.32986810487759       -0.99624149381792
C           -5.03674167350661        0.15697970161759       -0.83509162988428
C           -1.85497009295371        1.10689035703091       -0.76226941626570
C           -1.60798432384806        0.48505949418279       -1.97790157406914
C           -0.98845125940962        1.19006264235380       -2.99268008960879
C           -0.63570919338124        2.51612598805836       -2.80436141839613
C           -0.90268009982862        3.14307283756139       -1.59907206643203
C           -1.50802918477339        2.43673247600334       -0.57628591663536
C           -3.31919173681279       -2.48353768303938        0.61117658593246
C           -2.98618200455547       -3.83386966658512        0.54247166169170
C           -1.68873275698351       -4.24812068665922        0.30421373851714
C           -0.70831641242794       -3.27921903393092        0.12888308797493
H            1.70683551316604        2.89411731457328       -0.38217410677168
H            0.63076941120504        4.17894220190053        1.45550996952308
H            0.14383983329411        3.05741177435852        3.59918202447812
H            0.77091674291105        0.70194887590967        3.93152601647070
H            1.88251412466753       -0.55104243521319        2.12444638829343
H            4.70881942523001        1.26068639777842       -2.33736558156288
H            7.16363544569770        1.57526390165183       -2.05427810795811
H            8.22680317310761        0.97175274565811        0.08733210384668
H            6.86834942635878        0.07080971723356        1.93388004964730
H            4.43223080839312       -0.23491581334065        1.64033019456472
H            4.34191430108030       -2.19030812768567       -0.80529136656368
H            3.76292800997453       -4.57065039359497       -0.68421839076924
H            1.44045348916083       -5.29668672941680       -0.25741959771321
H           -4.70899765363701        1.25954651878304        2.33760104100323
H           -7.16385895851565        1.57382552967736        2.05457391863828
H           -8.22696310597534        0.97044004229141       -0.08710298804739
H           -6.86840265141254        0.06991697437330       -1.93377676630207
H           -4.43223881988857       -0.23550555812970       -1.64029002702104
H           -1.88247166823506       -0.55091724799232       -2.12455689892225
H           -0.77107327009197        0.70264574040921       -3.93136174112139
H           -0.14434259508623        3.05812716481512       -3.59849109582325
H           -0.63142368378932        4.17910183458371       -1.45456257389207
H           -1.70728398537042        2.89370292690549        0.38283964436619
H           -4.34155211884666       -2.19127066944682        0.80478151578248
H           -3.76214837861052       -4.57148017166428        0.68311024460641
H           -1.43954693673544       -5.29700301581910        0.25613114923785

          :  Hamiltonian                  GFN2-xTB          :
         :: gradient norm              0.000062296012 Eh/a0 ::
         :: HOMO-LUMO gap              3.434109395820 eV    ::
         :: SCC energy              -109.564826410273 Eh    ::
         :: -> dispersion             -0.107325104595 Eh    ::
         :: repulsion energy           1.878525461014 Eh    ::

    * Orbital Energies and Occupations

         #    Occupation            Energy/Eh            Energy/eV
      -------------------------------------------------------------
         1        2.0000           -0.7449161             -20.2702
       ...           ...                  ...                  ...
        87        2.0000           -0.4167324             -11.3399
        88        2.0000           -0.4138904             -11.2625
        89        2.0000           -0.4138817             -11.2623
        90        2.0000           -0.4069556             -11.0738
        91        2.0000           -0.4055096             -11.0345
        92        2.0000           -0.4052790             -11.0282
        93        2.0000           -0.3994400             -10.8693
        94        2.0000           -0.3992480             -10.8641
        95        2.0000           -0.3971262             -10.8064
        96        2.0000           -0.3966234             -10.7927
        97        2.0000           -0.3964071             -10.7868
        98        2.0000           -0.3945120             -10.7352
        99        2.0000           -0.3940698             -10.7232 (HOMO)
       100                         -0.2678686              -7.2891 (LUMO)
       101                         -0.2490546              -6.7771
       102                         -0.2485353              -6.7630
       103                         -0.2472182              -6.7271
       104                         -0.2327556              -6.3336
       105                         -0.2325296              -6.3275
       106                         -0.2295275              -6.2458
       107                         -0.2275713              -6.1925
       108                         -0.2216532              -6.0315
       109                         -0.2205145              -6.0005
       110                         -0.2201327              -5.9901
       ...                                ...                  ...
       200                          1.2211949              33.2304
      -------------------------------------------------------------
                  HL-Gap            0.1262012 Eh            3.4341 eV

     #   Z          covCN         q      C6AA      α(0)
     1   8 O        0.808    -0.355    20.822     6.117
     2  15 P        4.070     0.080   156.704    22.487
     3   6 C        2.922     0.017    27.636     8.621
     4   6 C        3.045    -0.019    28.432     8.745
     5   6 C        2.920    -0.023    28.591     8.768
     6   6 C        2.921    -0.016    28.402     8.740
     7   6 C        2.921    -0.017    28.439     8.745
     8   6 C        2.971    -0.017    28.425     8.745
     9   6 C        2.921     0.009    27.811     8.648
    10   6 C        3.019    -0.021    28.499     8.757
    11   6 C        2.919    -0.027    28.686     8.783
    12   6 C        2.921    -0.025    28.638     8.776
    13   6 C        2.920    -0.028    28.694     8.784
    14   6 C        2.982    -0.026    28.633     8.777
    15   6 C        2.908    -0.009    28.250     8.715
    16   6 C        2.970    -0.026    28.658     8.781
    17   6 C        2.920    -0.037    28.926     8.820
    18   6 C        2.913    -0.031    28.768     8.795
    19   6 C        3.057    -0.021    28.463     8.749
    20   6 C        3.224     0.139    24.290     8.010
    21   8 O        1.716    -0.193    17.226     5.604
    22   6 C        3.224     0.139    24.290     8.010
    23   6 C        2.908    -0.009    28.250     8.715
    24  15 P        4.070     0.080   156.704    22.487
    25   8 O        0.808    -0.355    20.822     6.117
    26   6 C        2.921     0.009    27.811     8.648
    27   6 C        3.019    -0.021    28.499     8.757
    28   6 C        2.919    -0.027    28.686     8.783
    29   6 C        2.921    -0.025    28.638     8.776
    30   6 C        2.920    -0.028    28.694     8.784
    31   6 C        2.982    -0.026    28.633     8.777
    32   6 C        2.922     0.017    27.636     8.621
    33   6 C        2.971    -0.017    28.425     8.745
    34   6 C        2.921    -0.017    28.439     8.745
    35   6 C        2.921    -0.016    28.402     8.740
    36   6 C        2.920    -0.023    28.591     8.768
    37   6 C        3.045    -0.019    28.432     8.745
    38   6 C        2.970    -0.026    28.658     8.781
    39   6 C        2.920    -0.037    28.926     8.820
    40   6 C        2.913    -0.031    28.768     8.795
    41   6 C        3.057    -0.021    28.463     8.749
    42   1 H        0.926     0.051     2.311     2.377
    43   1 H        0.926     0.036     2.506     2.475
    44   1 H        0.926     0.043     2.415     2.430
    45   1 H        0.926     0.042     2.429     2.437
    46   1 H        0.925     0.030     2.592     2.517
    47   1 H        0.926     0.062     2.180     2.309
    48   1 H        0.926     0.039     2.463     2.454
    49   1 H        0.926     0.037     2.485     2.465
    50   1 H        0.926     0.036     2.499     2.472
    51   1 H        0.926     0.040     2.451     2.448
    52   1 H        0.926     0.046     2.374     2.410
    53   1 H        0.926     0.044     2.394     2.420
    54   1 H        0.926     0.045     2.382     2.414
    55   1 H        0.926     0.062     2.180     2.309
    56   1 H        0.926     0.039     2.463     2.454
    57   1 H        0.926     0.037     2.485     2.465
    58   1 H        0.926     0.036     2.499     2.472
    59   1 H        0.926     0.040     2.451     2.448
    60   1 H        0.925     0.030     2.592     2.517
    61   1 H        0.926     0.042     2.429     2.437
    62   1 H        0.926     0.043     2.415     2.430
    63   1 H        0.926     0.036     2.506     2.475
    64   1 H        0.926     0.051     2.311     2.377
    65   1 H        0.926     0.046     2.374     2.410
    66   1 H        0.926     0.044     2.394     2.420
    67   1 H        0.926     0.045     2.382     2.414

molecular dipole:
                 x           y           z       tot (Debye)
 q only:        0.000      -0.667      -0.000
   full:        0.000      -0.894      -0.000       2.272

 projected vibrational frequencies (cm⁻¹)
eigval :       -0.00    -0.00    -0.00    -0.00     0.00     0.00
eigval :       15.01    15.54    22.22    26.34    26.72    29.01
eigval :       39.65    41.46    48.88    50.49    59.89    64.56
eigval :       87.17   100.60   104.03   111.63   144.84   153.83
eigval :      154.22   166.08   191.01   197.71   223.99   224.59
eigval :      227.72   231.66   247.90   252.82   268.05   284.52
eigval :      285.32   304.22   312.49   360.26   362.63   362.69
eigval :      367.21   369.35   372.60   409.08   413.66   436.18
eigval :      442.76   450.37   484.35   491.35   497.17   512.34
eigval :      518.35   538.85   543.42   544.11   569.14   572.90
eigval :      585.59   585.64   586.63   586.96   656.16   656.53
eigval :      659.38   659.49   664.08   672.72   691.91   695.12
eigval :      714.41   716.48   717.47   723.25   740.96   741.06
eigval :      745.05   745.74   795.27   801.56   845.43   848.61
eigval :      877.62   878.23   878.64   879.06   888.99   891.17
eigval :      891.51   902.40   902.47   904.37   905.53   916.94
eigval :      918.60   926.67   926.99   927.37   928.51   932.73
eigval :      933.50   934.13   934.14   973.46   974.04   976.24
eigval :      976.39  1064.67  1076.40  1076.41  1080.56  1080.75
eigval :     1092.44  1100.62  1110.84  1110.87  1116.67  1117.31
eigval :     1126.39  1126.49  1129.28  1129.63  1167.04  1176.66
eigval :     1180.72  1180.73  1181.07  1181.34  1187.55  1188.88
eigval :     1189.39  1193.59  1195.45  1198.27  1234.43  1235.69
eigval :     1254.79  1257.88  1268.24  1268.30  1274.63  1274.94
eigval :     1289.92  1323.23  1323.24  1327.39  1328.14  1343.65
eigval :     1355.48  1380.02  1396.25  1425.62  1425.69  1426.86
eigval :     1426.99  1453.25  1453.28  1457.09  1457.57  1459.79
eigval :     1482.06  1564.91  1584.19  1584.34  1586.50  1587.36
eigval :     1587.58  1587.74  1588.19  1590.59  1590.78  1593.22
eigval :     1608.48  3056.74  3056.88  3069.07  3069.62  3070.93
eigval :     3070.94  3074.79  3074.81  3075.32  3075.33  3077.24
eigval :     3078.82  3079.58  3079.59  3084.79  3085.14  3085.41
eigval :     3085.46  3086.64  3087.53  3091.67  3091.80  3095.68
eigval :     3095.87  3097.74  3099.62

   temp. (K)  partition function   enthalpy   heat capacity  entropy
                                   cal/mol     cal/K/mol   cal/K/mol   J/K/mol
 298.15  VIB  0.396E+17            20477.271    124.037    128.481
         ROT  0.188E+08              888.752      2.981     36.266
         INT  0.744E+24            21366.023    127.018    164.747
         TR   0.131E+29             1481.254      4.968     44.878
         TOT                       22847.2770   131.9862   209.6253   877.0723

       T/K    H(0)-H(T)+PV         H(T)/Eh          T*S/Eh         G(T)/Eh
   ------------------------------------------------------------------------
    298.15    0.364095E-01    0.539118E+00    0.995997E-01    0.439518E+00
   ------------------------------------------------------------------------

         :::::::::::::::::::::::::::::::::::::::::::::::::::::
         ::                  THERMODYNAMIC                  ::
         :::::::::::::::::::::::::::::::::::::::::::::::::::::
         :: total free energy        -107.246782914217 Eh   ::
         ::.................................................::
         :: total energy             -107.686300949258 Eh   ::
         :: zero point energy           0.502708331341 Eh   ::
         :: G(RRHO) w/o ZPVE           -0.063190296300 Eh   ::
         :: G(RRHO) contrib.            0.439518035041 Eh   ::
         :::::::::::::::::::::::::::::::::::::::::::::::::::::

           -------------------------------------------------
          | TOTAL ENERGY             -107.686300949258 Eh   |
          | TOTAL ENTHALPY           -107.147183164444 Eh   |
          | TOTAL FREE ENERGY        -107.246782914217 Eh   |
          | GRADIENT NORM               0.000062298786 Eh/α |
          | HOMO-LUMO GAP               3.434109212173 eV   |
           -------------------------------------------------

 * finished run on 2025/08/25 at 13:00:17.383
