   * xtb version 6.7.1 (edcfbbe) compiled by 'albert@albert-system' on 2024-07-22

   ID    Z sym.   atoms
    1    8 O      1, 21, 25
    2   15 P      2, 24
    3    6 C      3-20, 22, 23, 26-41
    4    1 H      42-67

          program call               : xtb data2507/gas/DBFDPO/DBFDPO_gas_T1_crest.xyz --gfn 2 --spinpol --tblite --uhf 2 --ohess vtight --parallel 40 --molden --ceasefiles --namespace data2507/gas/DBFDPO/DBFDPO_gas_T1_finalOpt
 * total energy  :  -107.5726872 Eh     change        0.4209804E-07 Eh
 * total energy  :  -107.5727201 Eh     change       -0.3287717E-04 Eh
 * total energy  :  -107.5727297 Eh     change       -0.9628186E-05 Eh
 * total energy  :  -107.5727321 Eh     change       -0.2359222E-05 Eh
 * total energy  :  -107.5727351 Eh     change       -0.3040323E-05 Eh
 * total energy  :  -107.5727385 Eh     change       -0.3423519E-05 Eh
 * total energy  :  -107.5727422 Eh     change       -0.3651629E-05 Eh
 * total energy  :  -107.5727457 Eh     change       -0.3472311E-05 Eh
 * total energy  :  -107.5727488 Eh     change       -0.3138219E-05 Eh
 * total energy  :  -107.5727516 Eh     change       -0.2791982E-05 Eh
 * total energy  :  -107.5727805 Eh     change       -0.2061138E-06 Eh
 * total energy  :  -107.5727807 Eh     change       -0.1939634E-06 Eh
 * total energy  :  -107.5727809 Eh     change       -0.1939638E-06 Eh
 * total energy  :  -107.5727810 Eh     change       -0.1846336E-06 Eh
 * total energy  :  -107.5727814 Eh     change       -0.3282474E-06 Eh
 * total energy  :  -107.5727816 Eh     change       -0.2803622E-06 Eh
 * total energy  :  -107.5727819 Eh     change       -0.2865403E-06 Eh
 * total energy  :  -107.5727819 Eh     change        0.2417373E-07 Eh
 * total energy  :  -107.5727819 Eh     change       -0.2821636E-07 Eh
   *** GEOMETRY OPTIMIZATION CONVERGED AFTER 45 ITERATIONS ***

 final structure:
================
67
 xtb: 6.7.1 (edcfbbe)
O            2.00911204022041        0.25075368201473       -1.84865605533740
P            2.38280999970228        0.10048491108279       -0.43788251667922
C            1.57460848500829        1.28740014063149        0.67752836647318
C            1.16058492713495        2.48502452643259        0.11432744714646
C            0.59727643094896        3.46635840983798        0.90935789933152
C            0.46642224773299        3.25689257467224        2.27213937350017
C            0.87495575546799        2.05751324225924        2.83510238964369
C            1.42207103927221        1.06718195831060        2.03962152423487
C            4.16518733881105        0.32612389041079       -0.14412259879728
C            4.72437178069079        0.36552426862702        1.12680034390819
C            6.08859742775071        0.53883225795808        1.26986789338999
C            6.89464675157984        0.67575791395329        0.14994410625835
C            6.33680496648884        0.64297698727241       -1.11737601116446
C            4.97185827625657        0.46949984960640       -1.26335030231569
C            1.99210213926342       -1.54221727942578        0.23866132582871
C            2.94180662543296       -2.51909382169012        0.63906525699674
C            2.53559063154764       -3.80695992223478        1.02761920958778
C            1.22526134557318       -4.19528692042082        1.02432852121198
C            0.23610920155398       -3.23938611298601        0.61233215046973
C            0.67961370886416       -1.91511228523243        0.24189106197177
O           -0.37134599981525       -1.13509007927055       -0.10373130882497
C           -1.48562572011072       -1.92553089467411       -0.01876794498870
C           -2.76073914789843       -1.58364636643623       -0.34709683690792
P           -3.32984890990044        0.03321998770339       -0.93182357585143
O           -4.58304609482919       -0.05917953168436       -1.69303383234439
C           -1.97371275271664        0.77504493704349       -1.89048045518746
C           -1.31793244711220       -0.00921029864385       -2.82759609807325
C           -0.37954228868633        0.56374283513206       -3.66470656860992
C           -0.11298614160362        1.91980358065775       -3.57689770759076
C           -0.78056373764943        2.70377263281683       -2.65107453390612
C           -1.71287012976986        2.13257173270348       -1.80251471371550
C           -3.50203115985358        1.00047164721693        0.60162515178691
C           -4.76089771938317        1.50516526626500        0.89350328077968
C           -4.96766169503643        2.20608876294195        2.06821854177966
C           -3.91802933714015        2.38611923273412        2.95374403291278
C           -2.66192042187869        1.87558237887228        2.66226903283673
C           -2.44679918410551        1.18336386969963        1.48518825826506
C           -3.77577338356178       -2.60525931117696       -0.18149473811881
C           -3.46322108969889       -3.87545385716350        0.28025213058977
C           -2.17437044171615       -4.23168349197552        0.60543083345272
C           -1.13344773810483       -3.23986482281027        0.44324875647625
H            1.28015010344461        2.62027092258078       -0.95050620228811
H            0.26798859494486        4.39703495745992        0.47133911612731
H            0.04038366773806        4.02807906752897        2.89743885747965
H            0.76850724391998        1.89380380694865        3.89844796327198
H            1.72158991322921        0.12173850258605        2.47180510494169
H            4.09355944020342        0.26211194437140        1.99753224893685
H            6.52698282514100        0.56803561944717        2.25693895481384
H            7.95984378587766        0.81046147473335        0.26807521512673
H            6.96540144017004        0.75254150235126       -1.98886973493737
H            4.50844202925850        0.44233101476810       -2.23897429814838
H            3.98922653027265       -2.26186972996334        0.63194742011755
H            3.29834007706593       -4.51013147854003        1.32948163165489
H            0.92097013718584       -5.18775968978420        1.31268956286062
H           -1.55003889678293       -1.06418143584390       -2.89312033711190
H            0.14655205636856       -0.04523576992349       -4.38379604856689
H            0.62098828668331        2.36617923746206       -4.23140840645525
H           -0.57695880524869        3.76387435297625       -2.59000541802678
H           -2.23843864944787        2.73397018478011       -1.07218108789455
H           -5.56025195942284        1.34216587551718        0.18502965573797
H           -5.94488384375589        2.60627863391980        2.29564015219907
H           -4.07760126002583        2.92434456371265        3.87686119212908
H           -1.84826985986888        2.01629052434000        3.35745355856975
H           -1.46852674317533        0.79278852708506        1.24375949275746
H           -4.78450451015118       -2.33236472711324       -0.44716703118122
H           -4.25630329658663       -4.60135293841042        0.38482249264718
H           -1.91976731286749       -5.21438121741754        0.96440157991154

 projected vibrational frequencies (cm⁻¹)
eigval :       -0.00    -0.00    -0.00     0.00     0.00     0.00
eigval :       14.60    16.49    24.17    27.62    29.31    37.02
eigval :       39.23    46.78    48.45    60.21    67.11    74.86
eigval :       82.52    89.94    95.84   116.09   137.50   150.55
eigval :      152.42   157.82   188.29   191.97   203.22   210.38
eigval :      229.08   231.81   233.60   252.47   253.16   264.09
eigval :      267.98   274.61   285.56   340.12   355.93   362.76
eigval :      365.06   366.77   370.77   386.35   408.24   421.65
eigval :      432.41   436.24   447.53   465.18   466.97   479.78
eigval :      492.11   502.14   506.84   510.86   537.78   562.91
eigval :      583.97   584.94   585.81   586.96   608.87   619.23
eigval :      650.95   652.87   654.80   656.67   659.59   662.16
eigval :      678.28   684.79   691.51   699.10   714.87   716.62
eigval :      739.24   740.22   742.34   747.72   751.77   780.20
eigval :      797.72   814.54   868.72   875.19   877.55   878.03
eigval :      881.52   895.98   897.66   899.10   902.40   904.92
eigval :      905.15   924.16   927.08   928.19   928.65   930.28
eigval :      931.64   934.34   934.57   937.63   968.38   973.74
eigval :      974.01   975.91  1012.74  1059.48  1076.26  1076.76
eigval :     1078.61  1078.74  1079.38  1097.15  1110.72  1111.21
eigval :     1113.66  1116.88  1117.28  1121.56  1126.24  1127.29
eigval :     1128.47  1143.04  1171.44  1176.27  1179.46  1180.27
eigval :     1180.53  1181.84  1186.50  1188.28  1189.79  1194.01
eigval :     1205.07  1251.45  1258.97  1267.30  1268.37  1271.03
eigval :     1273.79  1280.16  1313.61  1322.85  1322.91  1324.15
eigval :     1324.76  1328.91  1354.60  1362.96  1410.20  1424.09
eigval :     1424.48  1426.20  1427.14  1449.74  1453.58  1455.64
eigval :     1456.00  1464.65  1525.77  1562.80  1579.29  1581.05
eigval :     1583.55  1583.85  1585.19  1586.40  1586.90  1588.35
eigval :     1602.54  3052.41  3053.75  3056.16  3069.22  3070.46
eigval :     3073.30  3074.14  3077.35  3078.27  3079.07  3079.12
eigval :     3080.94  3081.62  3082.25  3084.90  3086.72  3087.27
eigval :     3088.58  3092.60  3093.16  3097.37  3097.85  3098.33
eigval :     3104.60  3110.24  3116.93

   temp. (K)  partition function   enthalpy   heat capacity  entropy
                                   cal/mol     cal/K/mol   cal/K/mol   J/K/mol
 298.15  VIB  0.404E+17            21045.447    128.153    131.848
         ROT  0.359E+08              888.752      2.981     37.553
         INT  0.145E+25            21934.199    131.134    169.401
         TR   0.131E+29             1481.254      4.968     44.878
         TOT                       23415.4534   136.1025   214.2785   896.5414

       T/K    H(0)-H(T)+PV         H(T)/Eh          T*S/Eh         G(T)/Eh
   ------------------------------------------------------------------------
    298.15    0.373149E-01    0.533710E+00    0.101811E+00    0.431900E+00
   ------------------------------------------------------------------------

         :::::::::::::::::::::::::::::::::::::::::::::::::::::
         ::                  THERMODYNAMIC                  ::
         :::::::::::::::::::::::::::::::::::::::::::::::::::::
         :: total free energy        -107.140882194248 Eh   ::
         ::.................................................::
         :: total energy             -107.572781930308 Eh   ::
         :: zero point energy           0.496395480225 Eh   ::
         :: G(RRHO) w/o ZPVE           -0.064495744165 Eh   ::
         :: G(RRHO) contrib.            0.431899736060 Eh   ::
         :::::::::::::::::::::::::::::::::::::::::::::::::::::

           -------------------------------------------------
          | TOTAL ENERGY             -107.572781930308 Eh   |
          | TOTAL ENTHALPY           -107.039071549971 Eh   |
          | TOTAL FREE ENERGY        -107.140882194248 Eh   |
          | GRADIENT NORM               0.000052518682 Eh/α |
           -------------------------------------------------

 * finished run on 2025/08/25 at 13:10:12.360
