   * xtb version 6.7.1 (edcfbbe) compiled by 'albert@albert-system' on 2024-07-22

   ID    Z sym.   atoms
    1    8 O      1
    2    6 C      2-6, 8-37, 39-66
    3    7 N      7, 38
    4    1 H      67-104

          program call               : xtb data2507/toluene/SPAC-FO/SPAC-FO_toluene_S0_finalOpt.xtbopt.xyz --gfn 2 --uhf 2 --gbsa toluene --ohess vtight --parallel 40 --molden --ceasefiles --namespace data2507/toluene/SPAC-FO/SPAC-FO_toluene_T1_preOpt
      * Solvation model:               GBSA
        Solvent                        toluene
        Solvent mass                       9.2140E+01 g/mol
          :  Hamiltonian                  GFN2-xTB          :
 * total energy  :  -164.2891457 Eh     change       -0.1770189E-08 Eh
 * total energy  :  -164.2934644 Eh     change       -0.4318710E-02 Eh
 * total energy  :  -164.2944181 Eh     change       -0.9536975E-03 Eh
 * total energy  :  -164.2944650 Eh     change       -0.4681975E-04 Eh
 * total energy  :  -164.2944884 Eh     change       -0.2340861E-04 Eh
 * total energy  :  -164.2945066 Eh     change       -0.1820869E-04 Eh
 * total energy  :  -164.2945189 Eh     change       -0.1236363E-04 Eh
 * total energy  :  -164.2945420 Eh     change       -0.2305454E-04 Eh
 * total energy  :  -164.2945552 Eh     change       -0.1323115E-04 Eh
 * total energy  :  -164.2945705 Eh     change       -0.1529566E-04 Eh
 * total energy  :  -164.2949540 Eh     change       -0.1194088E-05 Eh
 * total energy  :  -164.2949548 Eh     change       -0.8264768E-06 Eh
 * total energy  :  -164.2949554 Eh     change       -0.6520259E-06 Eh
 * total energy  :  -164.2949561 Eh     change       -0.6184945E-06 Eh
 * total energy  :  -164.2949568 Eh     change       -0.7233640E-06 Eh
 * total energy  :  -164.2949578 Eh     change       -0.9630824E-06 Eh
 * total energy  :  -164.2949591 Eh     change       -0.1333302E-05 Eh
 * total energy  :  -164.2949609 Eh     change       -0.1790871E-05 Eh
 * total energy  :  -164.2949609 Eh     change       -0.5483770E-08 Eh
   *** GEOMETRY OPTIMIZATION CONVERGED AFTER 122 ITERATIONS ***

 final structure:
================
104
 xtb: 6.7.1 (edcfbbe)
O           -0.00389575074517        6.35647681476210        0.22411751129453
C            0.00342959235308        5.09921749202640        0.19106579420462
C            1.15974947450675        4.22398430044283        0.21439931208114
C            2.51613942233566        4.53161638077959        0.26991457915963
C            3.43784016937925        3.50773103027959        0.25981111589025
C            3.01444106976112        2.16947667552216        0.19857690780262
N            3.99945964373851        1.13739993731443        0.18010709119405
C            4.67625342471601        0.88635280240050       -0.99594699504547
C            4.35499398601798        1.60056366209583       -2.15931423048008
C            5.02919468684525        1.36692444709747       -3.33745812441591
C            6.03580200740020        0.41232736159771       -3.38991926063234
C            6.34577981101981       -0.31124512873804       -2.25344443595214
C            5.67880717546943       -0.09271183408567       -1.05677906224040
C            6.04074537010312       -0.92798927616096        0.14232552488379
C            5.89947945814701       -2.40719571161961       -0.18292452936793
C            4.75812622539830       -3.09538364203273       -0.52972751327467
C            4.85999931734838       -4.45602927060669       -0.79104684662067
C            6.08223077500230       -5.10554408864920       -0.70600307680777
C            7.23250767200658       -4.41520005004246       -0.35707726322088
C            7.13758758243630       -3.05822896536603       -0.09398299890947
C            8.14807223245481       -2.08303991885309        0.28929715509708
C            9.50934097460780       -2.21782812011519        0.50899706625870
C           10.23714446398550       -1.09533844224210        0.87213036585067
C            9.62009993274240        0.13850307888829        1.01381910837578
C            8.25564368754661        0.28053087334844        0.79460711924180
C            7.53017119956077       -0.83304297817602        0.43368910699445
C            5.23838099714077       -0.57193946837350        1.36516992507203
C            5.47798248775304       -1.25699753180787        2.54759081480032
C            4.78301948411478       -0.95651050836036        3.70423140031609
C            3.83356329345816        0.05621864749741        3.68607389505196
C            3.57854993063426        0.74764210459406        2.52240488132414
C            4.26734177548651        0.44015951775746        1.34037487679889
C            1.66852784661284        1.83918366278732        0.15298718023581
C            0.73213550112059        2.85979428594360        0.16041834125329
C           -0.69936647244762        2.85293799769754        0.10170332257644
C           -1.62342331604646        1.82290839690881        0.04700540656866
C           -2.97311896941512        2.13902044541035        0.00066815439491
N           -3.94800250406692        1.10042361181973       -0.05562981484310
C           -4.13701277200284        0.41129700433433       -1.23722345722620
C           -3.35656329890655        0.70995214995525       -2.36341105367048
C           -3.53016589674294        0.02234371107433       -3.54423800349800
C           -4.48936517869815       -0.97676823911776       -3.63765120924800
C           -5.27850441774538       -1.26422124511093       -2.53980119202526
C           -5.12095622476784       -0.58341267743399       -1.34112952016669
C           -6.03565696004182       -0.91510912277509       -0.19262672272730
C           -6.00582724020141       -2.40418956013762        0.11443742613564
C           -4.93870236996895       -3.16171313291829        0.54365696051513
C           -5.13873395939657       -4.51772068217786        0.77004111034844
C           -6.38333653440221       -5.09495621547621        0.56809465421724
C           -7.45927031130363       -4.33480159639428        0.13666386309185
C           -7.26656290458785       -2.98170221683507       -0.09042365182807
C           -8.18537050824239       -1.94400153113295       -0.53534199078862
C           -9.52938360381620       -1.99662123189092       -0.86729324127006
C          -10.16105327963561       -0.82822313802882       -1.26397262472767
C           -9.46625558637658        0.37009261444707       -1.32959321812125
C           -8.11834231028415        0.42963697846996       -0.99848096869609
C           -7.48867238257406       -0.72953894973783       -0.60298543030409
C           -5.72818781269001       -0.11795026742997        1.04657534435490
C           -6.47543153132304       -0.34498581578107        2.19323431782904
C           -6.21866959295331        0.34284287059064        3.36453561452436
C           -5.18294279903768        1.26652762235041        3.39972064221792
C           -4.43067115155722        1.50934446698587        2.27176852123154
C           -4.70075668682268        0.83645754543823        1.07116534060897
C           -3.41119288543637        3.47473440562509        0.00505400089127
C           -2.50200805473493        4.50792703910298        0.06216822538929
C           -1.14259375087099        4.21344072879343        0.11702065897227
H            2.83126518088937        5.56419508800951        0.31699195095973
H            4.49630319072614        3.71944013223212        0.30191727850864
H            3.56860056920805        2.33821232787380       -2.12703127456917
H            4.76692555790858        1.93047189018769       -4.22011464894725
H            6.56759797574623        0.22952412688244       -4.31073583077004
H            7.11911790322375       -1.06435421878867       -2.28778355441234
H            3.80499962693794       -2.59137955926035       -0.59846638970798
H            3.97624387715479       -5.01361538431910       -1.06455826163475
H            6.13797488390428       -6.16410115599119       -0.91483550021184
H            8.18199436894441       -4.92526283520147       -0.29262571584490
H            9.99434646817065       -3.17644747147032        0.40037652775219
H           11.29964538597347       -1.18172781637628        1.04777638306766
H           10.20653968599975        0.99999464491463        1.29789247673802
H            7.77751711241902        1.24301413291978        0.90625679543525
H            6.22589953248256       -2.03615305714473        2.55461407957862
H            4.98392154169070       -1.50071290428288        4.61397487943800
H            3.29138399353271        0.31006847688082        4.58444388699616
H            2.84630129288011        1.53980926189291        2.51643156427559
H            1.36732368970038        0.80259117471536        0.10647929006856
H           -1.30969981649863        0.78894166515370        0.04359633982674
H           -2.61610123778189        1.49182093183172       -2.30242907370869
H           -2.91629375840123        0.26910021867629       -4.39730722068048
H           -4.62618389233947       -1.51860252977126       -4.56058837094001
H           -6.03800376551242       -2.02900233812377       -2.60690514039586
H           -3.96844562340514       -2.71399463200568        0.70271731908141
H           -4.31452744949679       -5.12911355229557        1.10711853891603
H           -6.51562443741865       -6.15152046826125        0.75085809809701
H           -8.42676762882093       -4.78854384721109       -0.01825727888570
H          -10.07475559222003       -2.92725632439439       -0.81832510053195
H          -11.20896819550879       -0.85050823052730       -1.52602437996312
H           -9.97804947149679        1.26863953172808       -1.64171321116246
H           -7.57966506787003        1.36477484849820       -1.05146307045687
H           -7.26975634445680       -1.07599719163704        2.15992304925864
H           -6.81292833641469        0.15456075002715        4.24515237697620
H           -4.95883573028005        1.79842176420049        4.31199244264983
H           -3.62099731390003        2.22100851210368        2.30920676687197
H           -4.47134375964399        3.67680185713259       -0.04181909473418
H           -2.82903617495305        5.53785478109974        0.06496724662635

          :  Hamiltonian                  GFN2-xTB          :
         :: gradient norm              0.000059849263 Eh/a0 ::
         :: HOMO-LUMO gap              0.954381006080 eV    ::
         :: SCC energy              -167.364150429479 Eh    ::
         :: -> dispersion             -0.164861973804 Eh    ::
         :: -> Gsolv                  -0.078494882735 Eh    ::
         :: repulsion energy           3.069189549025 Eh    ::

    * Orbital Energies and Occupations

         #    Occupation            Energy/Eh            Energy/eV
      -------------------------------------------------------------
         1        2.0000           -0.6851881             -18.6449
       ...           ...                  ...                  ...
       142        2.0000           -0.4052014             -11.0261
       143        2.0000           -0.4048994             -11.0179
       144        2.0000           -0.4039335             -10.9916
       145        2.0000           -0.4038427             -10.9891
       146        2.0000           -0.4020778             -10.9411
       147        2.0000           -0.4013947             -10.9225
       148        2.0000           -0.3851584             -10.4807
       149        2.0000           -0.3850901             -10.4788
       150        2.0000           -0.3756345             -10.2215
       151        1.8778           -0.3634770              -9.8907
       152        1.7113           -0.3624600              -9.8630
       153        1.4109           -0.3612611              -9.8304
       154        1.0000           -0.2923010              -7.9539 (HOMO)
       155                         -0.2572279              -6.9995 (LUMO)
       156                         -0.2571626              -6.9977
       157                         -0.2450088              -6.6670
       158                         -0.2446110              -6.6562
       159                         -0.2435518              -6.6274
       160                         -0.2353614              -6.4045
       161                         -0.2351545              -6.3989
       162                         -0.2338623              -6.3637
       163                         -0.2334937              -6.3537
       164                         -0.2305865              -6.2746
       165                         -0.2305108              -6.2725
       ...                                ...                  ...
       302                          0.7323621              19.9286
      -------------------------------------------------------------
                  HL-Gap            0.0350731 Eh            0.9544 eV

     #   Z          covCN         q      C6AA      α(0)
     1   8 O        0.856    -0.524    24.329     6.613
     2   6 C        2.874     0.176    24.226     8.069
     3   6 C        3.068    -0.041    28.935     8.820
     4   6 C        2.910    -0.026    28.664     8.779
     5   6 C        2.919    -0.050    29.231     8.866
     6   6 C        2.929     0.043    27.026     8.526
     7   7 N        2.754    -0.025    21.722     6.922
     8   6 C        2.927     0.063    26.598     8.458
     9   6 C        2.922    -0.047    29.177     8.858
    10   6 C        2.918    -0.027    28.687     8.783
    11   6 C        2.917    -0.032    28.795     8.800
    12   6 C        2.924    -0.032    28.804     8.801
    13   6 C        2.982     0.002    27.985     8.678
    14   6 C        3.948     0.013    20.282     6.399
    15   6 C        3.057     0.003    27.901     8.662
    16   6 C        2.914    -0.033    28.813     8.802
    17   6 C        2.923    -0.031    28.774     8.797
    18   6 C        2.921    -0.031    28.784     8.798
    19   6 C        2.915    -0.033    28.833     8.805
    20   6 C        3.033     0.003    27.935     8.669
    21   6 C        3.033     0.002    27.938     8.670
    22   6 C        2.915    -0.034    28.835     8.805
    23   6 C        2.921    -0.031    28.784     8.798
    24   6 C        2.923    -0.031    28.772     8.796
    25   6 C        2.914    -0.032    28.809     8.802
    26   6 C        3.056     0.003    27.904     8.663
    27   6 C        2.982     0.001    27.987     8.678
    28   6 C        2.924    -0.032    28.802     8.801
    29   6 C        2.917    -0.032    28.799     8.800
    30   6 C        2.918    -0.027    28.687     8.783
    31   6 C        2.922    -0.048    29.183     8.859
    32   6 C        2.926     0.062    26.602     8.458
    33   6 C        2.911    -0.044    29.105     8.846
    34   6 C        3.046    -0.016    28.356     8.734
    35   6 C        3.046    -0.016    28.356     8.734
    36   6 C        2.911    -0.045    29.110     8.847
    37   6 C        2.928     0.043    27.027     8.526
    38   7 N        2.753    -0.024    21.705     6.919
    39   6 C        2.926     0.062    26.607     8.459
    40   6 C        2.922    -0.048    29.188     8.860
    41   6 C        2.918    -0.027    28.687     8.783
    42   6 C        2.917    -0.032    28.796     8.800
    43   6 C        2.924    -0.032    28.802     8.801
    44   6 C        2.982     0.002    27.983     8.677
    45   6 C        3.948     0.013    20.282     6.399
    46   6 C        3.056     0.003    27.903     8.663
    47   6 C        2.914    -0.033    28.811     8.802
    48   6 C        2.923    -0.031    28.773     8.797
    49   6 C        2.921    -0.031    28.784     8.798
    50   6 C        2.915    -0.033    28.834     8.805
    51   6 C        3.033     0.003    27.935     8.669
    52   6 C        3.033     0.003    27.936     8.670
    53   6 C        2.915    -0.033    28.833     8.805
    54   6 C        2.921    -0.031    28.783     8.798
    55   6 C        2.923    -0.031    28.772     8.796
    56   6 C        2.914    -0.033    28.811     8.802
    57   6 C        3.057     0.003    27.902     8.663
    58   6 C        2.982     0.002    27.981     8.677
    59   6 C        2.924    -0.032    28.803     8.801
    60   6 C        2.917    -0.032    28.791     8.799
    61   6 C        2.918    -0.027    28.687     8.783
    62   6 C        2.922    -0.047    29.171     8.857
    63   6 C        2.928     0.062    26.603     8.458
    64   6 C        2.919    -0.049    29.223     8.865
    65   6 C        2.909    -0.026    28.663     8.779
    66   6 C        3.068    -0.040    28.925     8.819
    67   1 H        0.926     0.028     2.621     2.532
    68   1 H        0.926     0.031     2.567     2.506
    69   1 H        0.926     0.043     2.414     2.430
    70   1 H        0.926     0.043     2.404     2.425
    71   1 H        0.926     0.044     2.397     2.421
    72   1 H        0.926     0.041     2.431     2.438
    73   1 H        0.926     0.028     2.611     2.527
    74   1 H        0.926     0.036     2.505     2.475
    75   1 H        0.926     0.036     2.499     2.472
    76   1 H        0.926     0.038     2.480     2.463
    77   1 H        0.926     0.038     2.478     2.462
    78   1 H        0.926     0.036     2.503     2.474
    79   1 H        0.926     0.035     2.517     2.481
    80   1 H        0.926     0.027     2.626     2.534
    81   1 H        0.926     0.041     2.433     2.439
    82   1 H        0.926     0.044     2.397     2.421
    83   1 H        0.926     0.044     2.400     2.423
    84   1 H        0.926     0.043     2.415     2.430
    85   1 H        0.926     0.036     2.497     2.471
    86   1 H        0.926     0.037     2.488     2.467
    87   1 H        0.926     0.043     2.404     2.425
    88   1 H        0.926     0.044     2.397     2.421
    89   1 H        0.926     0.044     2.395     2.420
    90   1 H        0.926     0.041     2.431     2.438
    91   1 H        0.926     0.029     2.606     2.525
    92   1 H        0.926     0.036     2.504     2.475
    93   1 H        0.926     0.036     2.500     2.472
    94   1 H        0.926     0.038     2.481     2.463
    95   1 H        0.926     0.038     2.476     2.461
    96   1 H        0.926     0.036     2.502     2.474
    97   1 H        0.926     0.035     2.517     2.481
    98   1 H        0.926     0.027     2.629     2.536
    99   1 H        0.926     0.041     2.429     2.437
   100   1 H        0.926     0.044     2.395     2.420
   101   1 H        0.926     0.044     2.402     2.424
   102   1 H        0.926     0.043     2.409     2.427
   103   1 H        0.926     0.031     2.565     2.505
   104   1 H        0.926     0.028     2.618     2.530

molecular dipole:
                 x           y           z       tot (Debye)
 q only:       -0.022      -5.719      -0.189
   full:       -0.023      -5.565      -0.186      14.153

 projected vibrational frequencies (cm⁻¹)
eigval :       -0.00    -0.00    -0.00     0.00     0.00     0.00
eigval :       -2.51     4.39     8.10     8.74    20.31    24.47
eigval :       34.50    41.36    44.30    45.27    46.60    49.83
eigval :       64.75    71.95    84.55    85.04    95.23    99.27
eigval :      104.84   111.60   117.19   131.62   132.32   137.67
eigval :      138.95   140.26   161.54   171.26   173.32   204.40
eigval :      234.86   235.13   237.58   238.87   243.55   244.06
eigval :      247.42   247.63   274.51   280.89   286.59   292.37
eigval :      293.82   328.32   353.95   360.37   379.49   386.91
eigval :      387.87   389.75   390.83   399.45   400.72   402.77
eigval :      406.59   412.57   415.29   420.35   425.85   426.16
eigval :      440.48   441.08   452.70   458.45   459.23   462.61
eigval :      475.23   478.56   501.73   502.04   503.43   503.71
eigval :      515.61   525.50   537.94   538.66   554.45   558.21
eigval :      562.93   565.66   586.38   586.55   595.62   596.01
eigval :      596.37   599.98   600.06   616.95   618.57   622.81
eigval :      632.22   636.55   660.28   670.87   677.82   678.11
eigval :      681.84   684.05   690.85   690.97   691.04   697.05
eigval :      697.36   720.09   729.09   729.65   739.18   752.70
eigval :      753.25   767.31   768.84   769.68   770.73   774.19
eigval :      775.78   784.53   786.73   801.45   806.23   809.35
eigval :      857.61   861.41   865.41   866.96   869.49   870.91
eigval :      871.65   877.07   877.72   878.42   878.65   889.94
eigval :      890.37   895.90   896.06   899.42   903.41   908.69
eigval :      909.43   910.44   910.79   912.42   912.90   914.82
eigval :      915.25   917.94   917.99   922.68   923.21   923.25
eigval :      923.74   925.10   927.83   928.34   928.96   941.53
eigval :      944.47   944.74   980.90  1001.52  1001.65  1018.53
eigval :     1072.52  1072.62  1077.98  1078.09  1081.25  1084.67
eigval :     1088.11  1098.93  1100.13  1100.22  1101.80  1114.31
eigval :     1124.36  1124.48  1129.36  1137.36  1140.83  1141.21
eigval :     1171.59  1172.96  1174.07  1175.38  1175.94  1176.48
eigval :     1177.16  1178.59  1179.22  1182.37  1183.53  1184.50
eigval :     1185.65  1198.64  1199.44  1205.79  1219.90  1222.30
eigval :     1226.76  1230.58  1232.09  1237.38  1237.84  1238.92
eigval :     1254.11  1255.38  1256.09  1256.78  1261.82  1271.71
eigval :     1272.47  1281.58  1282.12  1300.03  1301.84  1307.90
eigval :     1310.59  1322.24  1322.88  1323.17  1329.44  1329.92
eigval :     1334.24  1334.53  1354.14  1364.74  1365.07  1401.46
eigval :     1402.17  1416.83  1417.24  1425.45  1425.86  1426.65
eigval :     1426.71  1429.50  1431.10  1436.57  1452.94  1453.10
eigval :     1457.47  1458.10  1459.01  1468.63  1469.23  1470.35
eigval :     1473.23  1505.86  1515.77  1541.39  1550.33  1550.51
eigval :     1554.53  1560.80  1561.51  1565.60  1575.08  1575.29
eigval :     1583.75  1584.30  1586.27  1587.66  1594.65  1594.88
eigval :     1598.51  1598.76  1600.67  1600.78  3071.19  3071.23
eigval :     3071.51  3071.63  3071.86  3071.91  3073.38  3074.76
eigval :     3075.15  3075.29  3075.58  3076.01  3082.29  3082.74
eigval :     3083.30  3083.41  3083.47  3083.59  3083.81  3084.05
eigval :     3084.57  3085.23  3086.83  3087.24  3087.27  3088.43
eigval :     3090.48  3090.60  3092.04  3092.32  3098.68  3098.90
eigval :     3099.10  3100.34  3106.46  3107.68  3107.98  3108.37

   temp. (K)  partition function   enthalpy   heat capacity  entropy
                                   cal/mol     cal/K/mol   cal/K/mol   J/K/mol
 298.15  VIB  0.192E+25            29695.523    191.178    186.541
         ROT  0.213E+09              888.752      2.981     41.089
         INT  0.409E+33            30584.275    194.159    227.630
         TR   0.235E+29             1481.254      4.968     46.037
         TOT                       32065.5288   199.1267   273.6676  1145.0252

       T/K    H(0)-H(T)+PV         H(T)/Eh          T*S/Eh         G(T)/Eh
   ------------------------------------------------------------------------
    298.15    0.510997E-01    0.840436E+00    0.130028E+00    0.710408E+00
   ------------------------------------------------------------------------

         :::::::::::::::::::::::::::::::::::::::::::::::::::::
         ::                  THERMODYNAMIC                  ::
         :::::::::::::::::::::::::::::::::::::::::::::::::::::
         :: total free energy        -163.584552846861 Eh   ::
         ::.................................................::
         :: total energy             -164.294960880229 Eh   ::
         :: zero point energy           0.789336661456 Eh   ::
         :: G(RRHO) w/o ZPVE           -0.078928628088 Eh   ::
         :: G(RRHO) contrib.            0.710408033368 Eh   ::
         :::::::::::::::::::::::::::::::::::::::::::::::::::::

           -------------------------------------------------
          | TOTAL ENERGY             -164.294960880229 Eh   |
          | TOTAL ENTHALPY           -163.454524545995 Eh   |
          | TOTAL FREE ENERGY        -163.584552846861 Eh   |
          | GRADIENT NORM               0.000060065860 Eh/α |
          | HOMO-LUMO GAP               0.954387948399 eV   |
           -------------------------------------------------

 * finished run on 2025/08/24 at 02:50:52.387
