   * xtb version 6.7.1 (edcfbbe) compiled by 'albert@albert-system' on 2024-07-22

   ID    Z sym.   atoms
    1    8 O      1
    2    6 C      2-6, 8-37, 39-66
    3    7 N      7, 38
    4    1 H      67-104

          program call               : xtb data2507/toluene/SPAC-FO/SPAC-FO_toluene_T1_crest.xyz --gfn 2 --uhf 2 --gbsa toluene --ohess vtight --parallel 40 --molden --ceasefiles --namespace data2507/toluene/SPAC-FO/SPAC-FO_toluene_T1_finalOpt
      * Solvation model:               GBSA
        Solvent                        toluene
        Solvent mass                       9.2140E+01 g/mol
          :  Hamiltonian                  GFN2-xTB          :
 * total energy  :  -164.2947406 Eh     change       -0.6259654E-08 Eh
 * total energy  :  -164.2948814 Eh     change       -0.1408833E-03 Eh
 * total energy  :  -164.2949148 Eh     change       -0.3338422E-04 Eh
 * total energy  :  -164.2949205 Eh     change       -0.5677140E-05 Eh
 * total energy  :  -164.2949242 Eh     change       -0.3677835E-05 Eh
 * total energy  :  -164.2949269 Eh     change       -0.2700038E-05 Eh
 * total energy  :  -164.2949290 Eh     change       -0.2098633E-05 Eh
 * total energy  :  -164.2949313 Eh     change       -0.2356268E-05 Eh
 * total energy  :  -164.2949338 Eh     change       -0.2508466E-05 Eh
 * total energy  :  -164.2949359 Eh     change       -0.2075008E-05 Eh
 * total energy  :  -164.2950543 Eh     change       -0.5552383E-06 Eh
 * total energy  :  -164.2950547 Eh     change       -0.4202316E-06 Eh
 * total energy  :  -164.2950552 Eh     change       -0.4876156E-06 Eh
 * total energy  :  -164.2950557 Eh     change       -0.5132042E-06 Eh
 * total energy  :  -164.2950562 Eh     change       -0.4579733E-06 Eh
 * total energy  :  -164.2950566 Eh     change       -0.4779972E-06 Eh
 * total energy  :  -164.2950571 Eh     change       -0.5146387E-06 Eh
 * total energy  :  -164.2950577 Eh     change       -0.5598974E-06 Eh
 * total energy  :  -164.2950577 Eh     change       -0.4394053E-08 Eh
   *** GEOMETRY OPTIMIZATION CONVERGED AFTER 94 ITERATIONS ***

 final structure:
================
104
 xtb: 6.7.1 (edcfbbe)
O            0.01382288125656        6.35371618825536       -0.30994873543511
C            0.01673165848971        5.09728810711116       -0.25034970509055
C            1.17094621243482        4.22098876256772       -0.19231667165424
C            2.52896349557518        4.52611808177942       -0.18817073792507
C            3.44739288655942        3.50051976149586       -0.13234237969639
C            3.01883299114376        2.16402232014343       -0.07674817731603
N            3.99986638581777        1.12944225997181       -0.01554977056313
C            4.65699849413922        0.76521119251197       -1.17265879010243
C            4.32238827153511        1.37134969462550       -2.39225642935791
C            4.97742801529473        1.02468769978889       -3.55325603631299
C            5.97650770591559        0.06091687623738       -3.53174640609695
C            6.30007592054289       -0.55618033629310       -2.33767712001814
C            5.65370971464952       -0.22171792419140       -1.15656453749070
C            6.03786553387925       -0.93523922622712        0.11199140736137
C            5.90665318641428       -2.44077966557314       -0.05949113114508
C            4.76748268582752       -3.16999893340239       -0.31861461308160
C            4.87764960632419       -4.55017975963340       -0.43340882521847
C            6.10559944054453       -5.17858683850272       -0.29137654211254
C            7.25388364249394       -4.44693888980383       -0.03109666013745
C            7.15092179113460       -3.07007763632381        0.08445936928962
C            8.15737755903000       -2.05237435638394        0.34998840919519
C            9.52252702477556       -2.15275446468979        0.56397289576004
C           10.24460379141252       -0.99284237055419        0.79798067095402
C            9.61850786790814        0.24436550614989        0.81732021116824
C            8.25013782291701        0.35204923882944        0.60315946149215
C            7.53033575041582       -0.79887558608015        0.37107777440090
C            5.25045743053285       -0.46700185991762        1.30669820805312
C            5.50243353189883       -1.04198195257750        2.54398398329856
C            4.82067711866074       -0.63602287332139        3.67595546957318
C            3.87256040783575        0.37321014152694        3.57617929044488
C            3.60626768120046        0.95728933769448        2.35756887549836
C            4.28100598815305        0.54142048229741        1.20068073709009
C            1.67116144607115        1.83692016075980       -0.07475893376408
C            0.73831566556633        2.85885228416692       -0.13220880704839
C           -0.69454633936134        2.85454621086516       -0.15281914343483
C           -1.62270905667453        1.82744422893859       -0.11083483341281
C           -2.97176814597679        2.14736156137072       -0.13756605596023
N           -3.95110334476319        1.10953462974254       -0.09907801685146
C           -4.25740281777288        0.43053982422467       -1.26035222905214
C           -3.58562415454372        0.73480929628293       -2.45300395454328
C           -3.87679258886052        0.05854828518476       -3.61707532176566
C           -4.84704588643520       -0.93444197896034       -3.62514854879473
C           -5.52498416549238       -1.23166016100002       -2.45756478889631
C           -5.24759002756331       -0.56316823398273       -1.27394490028758
C           -6.03725927778262       -0.90870469486112       -0.03957330198878
C           -5.99482966448748       -2.40453993931081        0.22821775231066
C           -4.89752224229903       -3.18418599393501        0.51924653171087
C           -5.08948238736561       -4.54362998592273        0.73164759946401
C           -6.35624820853348       -5.10229369827234        0.65277670058154
C           -7.46226916758205       -4.32029707835799        0.35820283069521
C           -7.27751287648292       -2.96385992859885        0.14483182278653
C           -8.22479564596380       -1.90600235192880       -0.17547329795170
C           -9.59667153179234       -1.93653445463960       -0.36640357344301
C          -10.25155204308243       -0.75221896652251       -0.66641035124742
C           -9.55257002995202        0.44073875385967       -0.77335858525531
C           -8.17681372860667        0.47812864270983       -0.58407993966211
C           -7.52372625081610       -0.69734291523116       -0.28691640035112
C           -5.59188753403061       -0.13598975994621        1.17320853141519
C           -6.20365266863070       -0.38634648700948        2.39286661949151
C           -5.83016059184559        0.29584930534192        3.53588998273141
C           -4.81916837982066        1.24474222185725        3.46526361361267
C           -4.19887439627615        1.50961375673048        2.26435721557519
C           -4.57970853517289        0.83219550256183        1.09701980983176
C           -3.40649076936986        3.48089958055761       -0.20667478747861
C           -2.49282885900828        4.51138113269867       -0.25133323531457
C           -1.13347965134683        4.21414574205818       -0.22287167176915
H            2.84817326304354        5.55773415641154       -0.22826329226734
H            4.50705277258206        3.71031157984008       -0.12540235905997
H            3.54197811780212        2.11569161900019       -2.41599335945259
H            4.70643086931987        1.50693590333928       -4.48030264054058
H            6.49304934654111       -0.21040388644023       -4.43932584732718
H            7.06871651481844       -1.31451234979567       -2.31282856980204
H            3.80959846232477       -2.68288051244383       -0.42969616029466
H            3.99570843798006       -5.13978170577405       -0.63651848362017
H            6.16709436051427       -6.25318777982842       -0.38487199773404
H            8.20781103509890       -4.94081649096213        0.07844248382992
H           10.01508194934406       -3.11356464101960        0.54987658655428
H           11.31000512229655       -1.05215740332108        0.96727676365307
H           10.20056985983200        1.13546155336630        1.00145867090212
H            7.76482296511915        1.31728956585933        0.61896714717517
H            6.24938140048730       -1.81881647016823        2.61407934756997
H            5.03024769670777       -1.09638428498780        4.62903355862348
H            3.34045882346927        0.70851554297423        4.45358940917771
H            2.87513462840915        1.74734697262633        2.28777922738599
H            1.36606792882460        0.80135536651115       -0.03071179443693
H           -1.31292459661669        0.79379233050546       -0.05623575520278
H           -2.83676507889327        1.51126095390226       -2.45430439958390
H           -3.34647806436500        0.30868098960690       -4.52351250799279
H           -5.07694420955098       -1.46610719026100       -4.53545658058826
H           -6.28909414114198       -1.99494415037343       -2.45684377719113
H           -3.90983551581630       -2.75093811819275        0.58203992797503
H           -4.24160216501522       -5.17196838659865        0.96189283255386
H           -6.48217726009701       -6.16172162313707        0.82304470751998
H           -8.44651113817322       -4.76011296534148        0.29739440400705
H          -10.14560572389610       -2.86272697811469       -0.28424778213478
H          -11.32121081943982       -0.75740345603421       -0.81838987881877
H          -10.08296794158782        1.35222172561583       -1.00710571236373
H           -7.63497887121662        1.40905268054500       -0.66920353058761
H           -6.98520518242041       -1.13016727156974        2.44017705041234
H           -6.31916255540289        0.08792199861589        4.47495873221230
H           -4.51190282109630        1.77930903959362        4.35138845845080
H           -3.40984908562020        2.24365889033319        2.21547854354973
H           -4.46711703505342        3.68462757054655       -0.22888511183082
H           -2.81703271090350        5.54070574640583       -0.30706750150749

          :  Hamiltonian                  GFN2-xTB          :
         :: gradient norm              0.000054461746 Eh/a0 ::
         :: HOMO-LUMO gap              0.951065638016 eV    ::
         :: SCC energy              -167.364512529200 Eh    ::
         :: -> dispersion             -0.164808698040 Eh    ::
         :: -> Gsolv                  -0.078591985589 Eh    ::
         :: repulsion energy           3.069454819359 Eh    ::

    * Orbital Energies and Occupations

         #    Occupation            Energy/Eh            Energy/eV
      -------------------------------------------------------------
         1        2.0000           -0.6851783             -18.6446
       ...           ...                  ...                  ...
       142        2.0000           -0.4049075             -11.0181
       143        2.0000           -0.4047685             -11.0143
       144        2.0000           -0.4041034             -10.9962
       145        2.0000           -0.4040071             -10.9936
       146        2.0000           -0.4020664             -10.9408
       147        2.0000           -0.4013784             -10.9221
       148        2.0000           -0.3851922             -10.4816
       149        2.0000           -0.3851622             -10.4808
       150        2.0000           -0.3752121             -10.2100
       151        1.8703           -0.3636261              -9.8948
       152        1.6891           -0.3625742              -9.8661
       153        1.4406           -0.3615913              -9.8394
       154        1.0000           -0.2922048              -7.9513 (HOMO)
       155                         -0.2572536              -7.0002 (LUMO)
       156                         -0.2572415              -6.9999
       157                         -0.2450249              -6.6675
       158                         -0.2446816              -6.6581
       159                         -0.2434178              -6.6237
       160                         -0.2353387              -6.4039
       161                         -0.2352502              -6.4015
       162                         -0.2339182              -6.3652
       163                         -0.2336032              -6.3567
       164                         -0.2306107              -6.2752
       165                         -0.2305610              -6.2739
       ...                                ...                  ...
       302                          0.7328265              19.9412
      -------------------------------------------------------------
                  HL-Gap            0.0349513 Eh            0.9511 eV

     #   Z          covCN         q      C6AA      α(0)
     1   8 O        0.856    -0.523    24.299     6.609
     2   6 C        2.874     0.176    24.227     8.069
     3   6 C        3.068    -0.041    28.938     8.821
     4   6 C        2.910    -0.027    28.666     8.779
     5   6 C        2.919    -0.050    29.237     8.867
     6   6 C        2.929     0.043    27.034     8.527
     7   7 N        2.754    -0.024    21.712     6.920
     8   6 C        2.927     0.063    26.597     8.458
     9   6 C        2.922    -0.047    29.174     8.857
    10   6 C        2.918    -0.027    28.684     8.783
    11   6 C        2.917    -0.032    28.791     8.799
    12   6 C        2.924    -0.032    28.802     8.801
    13   6 C        2.982     0.002    27.983     8.677
    14   6 C        3.948     0.013    20.281     6.399
    15   6 C        3.056     0.003    27.901     8.662
    16   6 C        2.914    -0.033    28.812     8.802
    17   6 C        2.923    -0.031    28.774     8.797
    18   6 C        2.921    -0.031    28.784     8.798
    19   6 C        2.915    -0.033    28.832     8.805
    20   6 C        3.033     0.003    27.934     8.669
    21   6 C        3.033     0.003    27.936     8.670
    22   6 C        2.915    -0.033    28.833     8.805
    23   6 C        2.921    -0.031    28.783     8.798
    24   6 C        2.923    -0.031    28.772     8.796
    25   6 C        2.914    -0.032    28.810     8.802
    26   6 C        3.057     0.003    27.902     8.663
    27   6 C        2.982     0.002    27.983     8.677
    28   6 C        2.924    -0.032    28.802     8.801
    29   6 C        2.917    -0.032    28.794     8.799
    30   6 C        2.918    -0.027    28.684     8.783
    31   6 C        2.922    -0.048    29.180     8.858
    32   6 C        2.927     0.062    26.600     8.458
    33   6 C        2.911    -0.044    29.105     8.846
    34   6 C        3.047    -0.016    28.359     8.734
    35   6 C        3.047    -0.016    28.359     8.734
    36   6 C        2.911    -0.045    29.106     8.846
    37   6 C        2.929     0.043    27.034     8.527
    38   7 N        2.754    -0.024    21.719     6.922
    39   6 C        2.927     0.063    26.598     8.458
    40   6 C        2.922    -0.048    29.182     8.859
    41   6 C        2.918    -0.027    28.685     8.783
    42   6 C        2.917    -0.032    28.796     8.800
    43   6 C        2.924    -0.032    28.802     8.801
    44   6 C        2.982     0.002    27.985     8.678
    45   6 C        3.948     0.014    20.281     6.399
    46   6 C        3.056     0.003    27.903     8.663
    47   6 C        2.914    -0.032    28.809     8.802
    48   6 C        2.923    -0.031    28.773     8.797
    49   6 C        2.921    -0.031    28.784     8.798
    50   6 C        2.915    -0.033    28.834     8.805
    51   6 C        3.033     0.003    27.936     8.669
    52   6 C        3.033     0.003    27.935     8.669
    53   6 C        2.915    -0.033    28.832     8.805
    54   6 C        2.921    -0.031    28.784     8.798
    55   6 C        2.923    -0.031    28.772     8.796
    56   6 C        2.914    -0.033    28.812     8.802
    57   6 C        3.057     0.003    27.900     8.662
    58   6 C        2.982     0.002    27.984     8.677
    59   6 C        2.924    -0.032    28.802     8.801
    60   6 C        2.917    -0.032    28.793     8.799
    61   6 C        2.918    -0.027    28.684     8.783
    62   6 C        2.922    -0.047    29.172     8.857
    63   6 C        2.928     0.063    26.595     8.457
    64   6 C        2.919    -0.050    29.237     8.867
    65   6 C        2.910    -0.027    28.665     8.779
    66   6 C        3.068    -0.041    28.940     8.821
    67   1 H        0.926     0.027     2.623     2.533
    68   1 H        0.926     0.031     2.570     2.507
    69   1 H        0.926     0.043     2.411     2.428
    70   1 H        0.926     0.044     2.401     2.423
    71   1 H        0.926     0.044     2.394     2.420
    72   1 H        0.926     0.041     2.429     2.437
    73   1 H        0.926     0.028     2.609     2.526
    74   1 H        0.926     0.036     2.504     2.475
    75   1 H        0.926     0.036     2.499     2.472
    76   1 H        0.926     0.038     2.480     2.462
    77   1 H        0.926     0.038     2.476     2.461
    78   1 H        0.926     0.036     2.502     2.473
    79   1 H        0.926     0.035     2.516     2.481
    80   1 H        0.926     0.027     2.627     2.535
    81   1 H        0.926     0.041     2.430     2.438
    82   1 H        0.926     0.044     2.394     2.420
    83   1 H        0.926     0.044     2.398     2.422
    84   1 H        0.926     0.043     2.412     2.429
    85   1 H        0.926     0.036     2.499     2.472
    86   1 H        0.926     0.036     2.497     2.471
    87   1 H        0.926     0.043     2.413     2.429
    88   1 H        0.926     0.044     2.399     2.422
    89   1 H        0.926     0.044     2.395     2.420
    90   1 H        0.926     0.041     2.430     2.438
    91   1 H        0.926     0.029     2.606     2.524
    92   1 H        0.926     0.036     2.504     2.475
    93   1 H        0.926     0.036     2.500     2.473
    94   1 H        0.926     0.038     2.482     2.464
    95   1 H        0.926     0.038     2.474     2.460
    96   1 H        0.926     0.036     2.501     2.473
    97   1 H        0.926     0.035     2.517     2.481
    98   1 H        0.926     0.027     2.631     2.537
    99   1 H        0.926     0.041     2.429     2.437
   100   1 H        0.926     0.044     2.395     2.420
   101   1 H        0.926     0.044     2.401     2.423
   102   1 H        0.926     0.043     2.414     2.430
   103   1 H        0.926     0.031     2.577     2.510
   104   1 H        0.926     0.027     2.624     2.533

molecular dipole:
                 x           y           z       tot (Debye)
 q only:        0.014      -5.739       0.277
   full:        0.013      -5.579       0.270      14.198

 projected vibrational frequencies (cm⁻¹)
eigval :       -0.00    -0.00    -0.00    -0.00     0.00     0.00
eigval :        2.51     6.18     8.51     9.75    19.28    22.61
eigval :       34.02    40.30    45.30    46.08    48.86    51.97
eigval :       64.82    71.66    85.80    87.29    91.13    98.93
eigval :      102.70   108.97   112.84   131.72   132.27   136.26
eigval :      138.69   141.58   159.89   170.94   173.14   203.54
eigval :      235.56   236.44   239.00   239.63   243.09   243.91
eigval :      245.69   247.24   274.42   279.59   286.58   294.03
eigval :      294.53   328.10   354.19   360.76   379.64   388.43
eigval :      388.87   390.37   390.70   399.49   400.64   403.25
eigval :      406.55   412.62   414.90   419.50   425.38   425.55
eigval :      440.46   441.95   453.31   458.08   458.48   463.24
eigval :      475.29   480.50   501.69   501.95   503.96   504.02
eigval :      514.86   525.66   538.95   540.44   554.54   557.75
eigval :      564.65   565.26   586.57   586.75   595.43   596.26
eigval :      596.63   600.31   600.54   617.04   618.38   623.24
eigval :      632.05   637.20   660.32   670.96   677.97   678.32
eigval :      681.86   683.97   690.90   691.19   691.76   696.94
eigval :      697.34   719.96   729.69   730.21   739.88   752.85
eigval :      753.40   767.72   768.67   768.84   769.42   774.24
eigval :      775.14   785.68   785.83   801.69   805.63   807.72
eigval :      855.24   858.24   864.33   865.88   867.68   868.55
eigval :      870.78   876.99   877.11   878.16   878.95   890.07
eigval :      890.26   895.92   896.05   899.76   900.11   907.88
eigval :      910.11   910.28   910.63   910.97   910.99   913.74
eigval :      914.41   917.99   918.10   921.01   921.54   923.83
eigval :      925.05   927.33   928.01   928.32   928.90   941.87
eigval :      944.42   944.63   981.19  1001.58  1001.66  1018.96
eigval :     1072.92  1073.32  1078.12  1078.25  1081.64  1085.28
eigval :     1088.30  1098.39  1099.68  1100.36  1101.34  1114.23
eigval :     1124.54  1124.94  1129.44  1137.32  1141.03  1141.65
eigval :     1172.41  1173.32  1175.54  1175.75  1176.13  1177.33
eigval :     1178.51  1178.69  1179.63  1182.37  1183.70  1184.13
eigval :     1184.87  1198.72  1199.20  1205.85  1219.96  1221.97
eigval :     1227.31  1230.00  1231.24  1237.44  1237.82  1238.91
eigval :     1253.89  1255.82  1256.01  1256.19  1262.66  1272.04
eigval :     1272.74  1281.84  1282.67  1302.03  1303.88  1309.46
eigval :     1311.07  1320.88  1322.99  1323.11  1329.79  1329.92
eigval :     1334.37  1334.58  1354.90  1364.95  1365.00  1401.55
eigval :     1403.11  1417.00  1417.09  1425.44  1425.90  1426.83
eigval :     1427.07  1429.75  1431.35  1436.51  1452.77  1453.00
eigval :     1457.49  1457.70  1459.52  1468.26  1469.21  1471.11
eigval :     1474.05  1507.47  1516.86  1542.64  1550.19  1550.30
eigval :     1555.58  1560.59  1561.25  1565.67  1575.06  1575.11
eigval :     1583.96  1584.01  1586.44  1587.66  1594.67  1594.85
eigval :     1598.54  1598.77  1600.76  1600.82  3071.22  3071.40
eigval :     3071.43  3071.95  3071.99  3072.26  3073.67  3074.89
eigval :     3075.37  3075.48  3075.88  3076.26  3082.69  3082.82
eigval :     3083.10  3083.54  3083.63  3083.70  3084.07  3084.27
eigval :     3084.43  3085.00  3086.25  3087.59  3088.19  3088.35
eigval :     3090.48  3090.78  3091.98  3092.58  3098.38  3098.68
eigval :     3099.32  3099.55  3106.52  3106.81  3107.24  3107.75

   temp. (K)  partition function   enthalpy   heat capacity  entropy
                                   cal/mol     cal/K/mol   cal/K/mol   J/K/mol
 298.15  VIB  0.132E+25            29699.345    191.245    186.298
         ROT  0.213E+09              888.752      2.981     41.090
         INT  0.281E+33            30588.097    194.226    227.388
         TR   0.235E+29             1481.254      4.968     46.037
         TOT                       32069.3508   199.1945   273.4255  1144.0124

       T/K    H(0)-H(T)+PV         H(T)/Eh          T*S/Eh         G(T)/Eh
   ------------------------------------------------------------------------
    298.15    0.511058E-01    0.840457E+00    0.129913E+00    0.710543E+00
   ------------------------------------------------------------------------

         :::::::::::::::::::::::::::::::::::::::::::::::::::::
         ::                  THERMODYNAMIC                  ::
         :::::::::::::::::::::::::::::::::::::::::::::::::::::
         :: total free energy        -163.584514382804 Eh   ::
         ::.................................................::
         :: total energy             -164.295057711933 Eh   ::
         :: zero point energy           0.789350855773 Eh   ::
         :: G(RRHO) w/o ZPVE           -0.078807526644 Eh   ::
         :: G(RRHO) contrib.            0.710543329129 Eh   ::
         :::::::::::::::::::::::::::::::::::::::::::::::::::::

           -------------------------------------------------
          | TOTAL ENERGY             -164.295057711933 Eh   |
          | TOTAL ENTHALPY           -163.454601092577 Eh   |
          | TOTAL FREE ENERGY        -163.584514382804 Eh   |
          | GRADIENT NORM               0.000056019252 Eh/α |
          | HOMO-LUMO GAP               0.951072306285 eV   |
           -------------------------------------------------

 * finished run on 2025/08/24 at 03:05:52.629
