   * xtb version 6.7.1 (edcfbbe) compiled by 'albert@albert-system' on 2024-07-22

   ID    Z sym.   atoms
    1    8 O      1
    2    6 C      2-6, 8-37, 39-66
    3    7 N      7, 38
    4    1 H      67-104

          program call               : xtb data2507/toluene/SPAC-FO/SPAC-FO_toluene_S0_crest.xyz --gfn 2 --gbsa toluene --ohess vtight --parallel 40 --molden --ceasefiles --namespace data2507/toluene/SPAC-FO/SPAC-FO_toluene_S0_finalOpt
      * Solvation model:               GBSA
        Solvent                        toluene
        Solvent mass                       9.2140E+01 g/mol
          :  Hamiltonian                  GFN2-xTB          :
 * total energy  :  -164.3501156 Eh     change       -0.8628319E-08 Eh
 * total energy  :  -164.3501955 Eh     change       -0.7995328E-04 Eh
 * total energy  :  -164.3502169 Eh     change       -0.2138432E-04 Eh
 * total energy  :  -164.3502247 Eh     change       -0.7845702E-05 Eh
 * total energy  :  -164.3502320 Eh     change       -0.7269008E-05 Eh
 * total energy  :  -164.3502370 Eh     change       -0.5027995E-05 Eh
 * total energy  :  -164.3502411 Eh     change       -0.4038087E-05 Eh
 * total energy  :  -164.3502457 Eh     change       -0.4655983E-05 Eh
 * total energy  :  -164.3502508 Eh     change       -0.5049827E-05 Eh
 * total energy  :  -164.3502547 Eh     change       -0.3892326E-05 Eh
 * total energy  :  -164.3502592 Eh     change       -0.1980443E-05 Eh
 * total energy  :  -164.3502608 Eh     change       -0.1606563E-05 Eh
 * total energy  :  -164.3502622 Eh     change       -0.1407131E-05 Eh
 * total energy  :  -164.3502636 Eh     change       -0.1455458E-05 Eh
 * total energy  :  -164.3502651 Eh     change       -0.1476570E-05 Eh
 * total energy  :  -164.3502663 Eh     change       -0.1143132E-05 Eh
 * total energy  :  -164.3502670 Eh     change       -0.7352683E-06 Eh
 * total energy  :  -164.3502675 Eh     change       -0.4826451E-06 Eh
 * total energy  :  -164.3502675 Eh     change       -0.2555331E-07 Eh
   *** GEOMETRY OPTIMIZATION CONVERGED AFTER 20 ITERATIONS ***

 final structure:
================
104
 xtb: 6.7.1 (edcfbbe)
O           -0.00286092689559        6.43837064857617        0.02267901003575
C            0.00378666978751        5.22120733434177        0.01931823836529
C            1.18150554462821        4.32221671470597        0.02892431010940
C            2.52797211090560        4.63100612202372        0.04195035525618
C            3.44734617409024        3.59062615062250        0.04501851883583
C            3.02277659318781        2.26460076746635        0.03062901946413
N            3.97584153771556        1.21935557879349        0.02865863233346
C            4.79472616341387        1.04477071801025       -1.08347538721631
C            4.63745715513123        1.85099467636904       -2.21495540202784
C            5.45058476764933        1.69300042723140       -3.31880167058425
C            6.43268575579684        0.71707308287004       -3.32866163775220
C            6.56774937061699       -0.11040178434207       -2.23013085649681
C            5.75888000295043        0.03381755844696       -1.11166358375361
C            5.93459935554031       -0.93660294707238        0.03070290564982
C            5.78624476103111       -2.36548069462298       -0.45954349442449
C            4.67881825038796       -2.96459715697926       -1.01838371548957
C            4.76547834059547       -4.29834447671002       -1.39634296539196
C            5.94053524270635       -5.01211881640576       -1.21504628155554
C            7.05745113143999       -4.41306674323956       -0.65359487846148
C            6.97686507271895       -3.08271201031856       -0.27531567562966
C            7.96152889192270       -2.19673941436301        0.32880470144146
C            9.27729886246009       -2.41595347457213        0.70286666252598
C            9.99090259684508       -1.36857001941663        1.26439478561714
C            9.40337988922888       -0.12621073690282        1.45056302495047
C            8.08476398054094        0.09935565418485        1.07690599971463
C            7.37205907282120       -0.93851250674400        0.51776894884492
C            4.98810056429590       -0.66487717815229        1.17416701146577
C            5.05432212720022       -1.48095434283285        2.29465305924637
C            4.24240455840081       -1.26535033935341        3.39209514005743
C            3.36424318825826       -0.19505244649410        3.37931890958972
C            3.28522886702608        0.62717299874047        2.27360101138742
C            4.07380207077189        0.39132132424429        1.14316256805740
C            1.65812246310250        1.94979154509105        0.01719594870997
C            0.74735625416178        2.98172894294735        0.01873479416058
C           -0.71610608063812        2.97388410577910        0.00351695194216
C           -1.61586805202054        1.93205097558505        0.00005879706514
C           -2.98347736373900        2.23297269505237       -0.00478933006498
N           -3.92904014031526        1.18011790502926       -0.00450307484904
C           -4.04467844869632        0.36972041802907       -1.12976220125922
C           -3.25512681771488        0.60592305906843       -2.25929490580028
C           -3.35285686919519       -0.19991127112305       -3.37560894307325
C           -4.25005978788669       -1.25404779947187       -3.39932611528539
C           -5.06164913316669       -1.47007401827365       -2.30164719203960
C           -4.97705204809576       -0.67047230509439       -1.17063577119971
C           -5.93029368933998       -0.93525750298150       -0.03079158815884
C           -5.85667687250285       -2.38576938784755        0.40873494219803
C           -4.78137164165189       -3.06133664614211        0.94269623819319
C           -4.93829571390998       -4.40037775709224        1.27677040940303
C           -6.15017961074761       -5.04421304393612        1.07680317023681
C           -7.23490919614980       -4.36822947692719        0.54016672474769
C           -7.08425477295453       -3.03230097035218        0.20562556563790
C           -8.02196517646025       -2.07528506993230       -0.36379997125165
C           -9.34812623230689       -2.21196729492413       -0.74045368856022
C          -10.00668785337471       -1.10969589089591       -1.26274418800636
C           -9.35500152679909        0.10588271049885       -1.40749069659840
C           -8.02564734634467        0.24874140055014       -1.03134018847075
C           -7.36754259208664       -0.84400730727790       -0.51123027386508
C           -5.70275683220843       -0.01341063058897        1.14227031470429
C           -6.48367276772309       -0.18155577131933        2.27710554980559
C           -6.30592197289918        0.60792398548910        3.39742029538214
C           -5.31049013370818        1.57033297402949        3.39162262323005
C           -4.52483165906944        1.75182173622726        2.27165461559040
C           -4.72365630162478        0.98301542037770        1.12086473034567
C           -3.42235674077427        3.55424801702135       -0.00582640564868
C           -2.51417527477603        4.60442047763302        0.00018569037024
C           -1.16458256585386        4.30958411474409        0.00478124377064
H            2.85244960086980        5.66047874659868        0.05730904916440
H            4.50618556924996        3.80171097746417        0.05911895924911
H            3.86617184562896        2.60517937044494       -2.23449216184466
H            5.31028566221359        2.33461182499109       -4.17620494456862
H            7.07590419092917        0.59239274201022       -4.18626522513695
H            7.31374994315484       -0.89200969387762       -2.23315163657258
H            3.76223339882735       -2.41034638926538       -1.16093190254421
H            3.90710986558084       -4.78509611497724       -1.83626980286032
H            5.98557149466027       -6.04901221546543       -1.51604313657862
H            7.97032314788937       -4.97347535149889       -0.51509771374024
H            9.73932817917294       -3.38189054320109        0.56097882583112
H           11.01821986924507       -1.52165629616718        1.56250308062506
H            9.97837951100315        0.67576603477858        1.89042803885578
H            7.62919077041653        1.06840338821404        1.22229624425230
H            5.76142660756046       -2.29791674258720        2.29998270864290
H            4.30557976316665       -1.91498972478123        4.25164529586386
H            2.73864808734953        0.00787324566990        4.23603118012419
H            2.60965027164695        1.46825073498006        2.29212152360850
H            1.34608115763917        0.91667009011245        0.00156657593471
H           -1.29294613869913        0.90219327027774        0.00755131643822
H           -2.56393381078735        1.43434104320944       -2.26870847123775
H           -2.72654559761536        0.00303163512019       -4.23179585583148
H           -4.32834290572814       -1.89057070716764       -4.26741235543592
H           -5.78345280904770       -2.27399056261443       -2.31557759808562
H           -3.83631414895498       -2.56141710845482        1.09953528652648
H           -4.10653709728971       -4.94692644337556        1.69706802570892
H           -6.24967910374673       -6.08658342748746        1.34389183177831
H           -8.17680657181724       -4.87413086158849        0.38708927168186
H           -9.86009574805439       -3.15659901985618       -0.63028227167086
H          -11.04134989796549       -1.19801871959564       -1.56176846747796
H           -9.88775527527183        0.95170992211612       -1.81733331901673
H           -7.51996159975427        1.19690528813998       -1.14547536055242
H           -7.24269358696557       -0.95055932033638        2.27525628910281
H           -6.92784729369759        0.46500936146251        4.26777886873228
H           -5.13837612167333        2.18272827586712        4.26443557895296
H           -3.74285578294012        2.49502483531435        2.29208305918514
H           -4.48354802533211        3.75363981754260       -0.01020688955053
H           -2.84953123986426        5.63047793180395       -0.00501830618617

          :  Hamiltonian                  GFN2-xTB          :
         :: gradient norm              0.000190055309 Eh/a0 ::
         :: HOMO-LUMO gap              0.996333836036 eV    ::
         :: SCC energy              -167.430028648419 Eh    ::
         :: -> dispersion             -0.165107838762 Eh    ::
         :: -> Gsolv                  -0.066563599979 Eh    ::
         :: repulsion energy           3.079761140285 Eh    ::

    * Orbital Energies and Occupations

         #    Occupation            Energy/Eh            Energy/eV
      -------------------------------------------------------------
         1        2.0000           -0.7165638             -19.4987
       ...           ...                  ...                  ...
       141        2.0000           -0.4096039             -11.1459
       142        2.0000           -0.4038241             -10.9886
       143        2.0000           -0.4009478             -10.9103
       144        2.0000           -0.3990202             -10.8579
       145        2.0000           -0.3989419             -10.8558
       146        2.0000           -0.3968322             -10.7984
       147        2.0000           -0.3967061             -10.7949
       148        2.0000           -0.3947740             -10.7423
       149        2.0000           -0.3945848             -10.7372
       150        2.0000           -0.3800457             -10.3416
       151        2.0000           -0.3799791             -10.3398
       152        2.0000           -0.3543010              -9.6410
       153        2.0000           -0.3527850              -9.5998 (HOMO)
       154                         -0.3161702              -8.6034 (LUMO)
       155                         -0.2672101              -7.2712
       156                         -0.2524877              -6.8705
       157                         -0.2524272              -6.8689
       158                         -0.2473505              -6.7307
       159                         -0.2339483              -6.3661
       160                         -0.2337917              -6.3618
       161                         -0.2260154              -6.1502
       162                         -0.2258263              -6.1450
       163                         -0.2256898              -6.1413
       164                         -0.2256513              -6.1403
       ...                                ...                  ...
       302                          0.7275307              19.7971
      -------------------------------------------------------------
                  HL-Gap            0.0366147 Eh            0.9963 eV

     #   Z          covCN         q      C6AA      α(0)
     1   8 O        0.856    -0.405    21.787     6.258
     2   6 C        2.868     0.230    23.186     7.893
     3   6 C        3.045    -0.030    28.696     8.786
     4   6 C        2.912    -0.013    28.345     8.730
     5   6 C        2.923    -0.039    28.959     8.825
     6   6 C        2.928     0.075    26.314     8.412
     7   7 N        2.752    -0.062    22.440     7.036
     8   6 C        2.923     0.058    26.704     8.474
     9   6 C        2.924    -0.058    29.432     8.897
    10   6 C        2.920    -0.032    28.810     8.802
    11   6 C        2.917    -0.042    29.042     8.837
    12   6 C        2.926    -0.035    28.871     8.812
    13   6 C        2.983    -0.006    28.167     8.706
    14   6 C        3.950     0.012    20.302     6.403
    15   6 C        3.057     0.002    27.930     8.667
    16   6 C        2.914    -0.034    28.837     8.806
    17   6 C        2.922    -0.033    28.813     8.803
    18   6 C        2.921    -0.033    28.828     8.805
    19   6 C        2.914    -0.035    28.874     8.811
    20   6 C        3.033     0.001    27.984     8.677
    21   6 C        3.034     0.000    27.984     8.677
    22   6 C        2.914    -0.035    28.874     8.811
    23   6 C        2.921    -0.033    28.829     8.805
    24   6 C        2.922    -0.033    28.813     8.803
    25   6 C        2.914    -0.034    28.836     8.806
    26   6 C        3.057     0.002    27.931     8.667
    27   6 C        2.983    -0.006    28.165     8.706
    28   6 C        2.926    -0.035    28.869     8.811
    29   6 C        2.917    -0.042    29.041     8.837
    30   6 C        2.920    -0.033    28.811     8.802
    31   6 C        2.924    -0.058    29.433     8.897
    32   6 C        2.924     0.058    26.701     8.474
    33   6 C        2.915    -0.038    28.948     8.823
    34   6 C        3.039     0.011    27.743     8.639
    35   6 C        3.039     0.011    27.742     8.639
    36   6 C        2.915    -0.038    28.948     8.823
    37   6 C        2.928     0.076    26.311     8.412
    38   7 N        2.752    -0.063    22.452     7.037
    39   6 C        2.924     0.058    26.699     8.474
    40   6 C        2.924    -0.058    29.439     8.898
    41   6 C        2.920    -0.033    28.813     8.802
    42   6 C        2.917    -0.042    29.045     8.838
    43   6 C        2.926    -0.035    28.871     8.812
    44   6 C        2.983    -0.006    28.170     8.706
    45   6 C        3.949     0.012    20.302     6.403
    46   6 C        3.057     0.002    27.930     8.667
    47   6 C        2.914    -0.033    28.834     8.805
    48   6 C        2.922    -0.033    28.813     8.803
    49   6 C        2.921    -0.033    28.829     8.805
    50   6 C        2.914    -0.035    28.875     8.812
    51   6 C        3.033     0.000    27.985     8.677
    52   6 C        3.034     0.000    27.984     8.677
    53   6 C        2.914    -0.035    28.873     8.811
    54   6 C        2.921    -0.033    28.829     8.805
    55   6 C        2.922    -0.033    28.814     8.803
    56   6 C        2.914    -0.034    28.839     8.806
    57   6 C        3.057     0.002    27.932     8.667
    58   6 C        2.983    -0.006    28.168     8.706
    59   6 C        2.926    -0.035    28.872     8.812
    60   6 C        2.917    -0.042    29.044     8.837
    61   6 C        2.920    -0.033    28.810     8.802
    62   6 C        2.924    -0.057    29.429     8.896
    63   6 C        2.924     0.058    26.703     8.474
    64   6 C        2.923    -0.038    28.952     8.824
    65   6 C        2.912    -0.013    28.344     8.730
    66   6 C        3.045    -0.029    28.691     8.785
    67   1 H        0.926     0.056     2.240     2.341
    68   1 H        0.926     0.056     2.245     2.343
    69   1 H        0.926     0.031     2.566     2.505
    70   1 H        0.926     0.033     2.537     2.491
    71   1 H        0.926     0.031     2.573     2.509
    72   1 H        0.926     0.029     2.599     2.521
    73   1 H        0.926     0.026     2.641     2.541
    74   1 H        0.926     0.032     2.555     2.500
    75   1 H        0.926     0.032     2.556     2.500
    76   1 H        0.926     0.033     2.548     2.496
    77   1 H        0.926     0.033     2.547     2.496
    78   1 H        0.926     0.032     2.556     2.500
    79   1 H        0.926     0.032     2.559     2.501
    80   1 H        0.926     0.026     2.646     2.544
    81   1 H        0.926     0.029     2.599     2.521
    82   1 H        0.926     0.031     2.572     2.508
    83   1 H        0.926     0.034     2.535     2.490
    84   1 H        0.926     0.032     2.564     2.504
    85   1 H        0.926     0.058     2.218     2.329
    86   1 H        0.926     0.059     2.215     2.327
    87   1 H        0.926     0.031     2.565     2.505
    88   1 H        0.926     0.034     2.537     2.491
    89   1 H        0.926     0.031     2.575     2.510
    90   1 H        0.926     0.029     2.602     2.522
    91   1 H        0.926     0.026     2.640     2.541
    92   1 H        0.926     0.032     2.556     2.500
    93   1 H        0.926     0.032     2.556     2.500
    94   1 H        0.926     0.033     2.549     2.497
    95   1 H        0.926     0.033     2.546     2.495
    96   1 H        0.926     0.032     2.556     2.500
    97   1 H        0.926     0.032     2.559     2.501
    98   1 H        0.926     0.026     2.648     2.545
    99   1 H        0.926     0.029     2.600     2.522
   100   1 H        0.926     0.031     2.574     2.509
   101   1 H        0.926     0.033     2.539     2.492
   102   1 H        0.926     0.031     2.576     2.510
   103   1 H        0.926     0.056     2.249     2.345
   104   1 H        0.926     0.057     2.239     2.340

molecular dipole:
                 x           y           z       tot (Debye)
 q only:        0.036      -1.361       0.000
   full:        0.034      -1.413      -0.000       3.592

 projected vibrational frequencies (cm⁻¹)
eigval :       -0.00    -0.00    -0.00     0.00     0.00     0.00
eigval :       -3.99     4.28     8.94    11.91    17.33    25.20
eigval :       34.64    38.48    45.86    46.17    48.72    51.66
eigval :       63.32    68.94    85.87    87.26    91.77    96.20
eigval :      106.54   115.88   119.99   126.96   132.31   132.72
eigval :      140.31   140.81   162.52   172.92   176.83   201.25
eigval :      237.34   237.82   239.10   239.76   244.92   246.80
eigval :      249.76   251.11   273.29   275.25   290.65   294.24
eigval :      295.33   318.58   352.78   353.54   382.98   386.38
eigval :      387.42   390.02   391.36   398.37   401.12   402.18
eigval :      407.91   414.09   417.25   425.13   427.74   430.68
eigval :      435.94   437.31   460.30   462.69   463.58   464.71
eigval :      476.14   498.78   501.43   504.14   508.32   510.97
eigval :      512.18   512.83   539.45   540.04   551.57   563.84
eigval :      570.91   587.40   587.50   588.33   599.72   600.89
eigval :      602.27   602.83   603.29   618.29   621.52   639.42
eigval :      655.12   658.11   659.47   673.14   674.41   675.50
eigval :      684.95   685.16   691.06   693.34   698.57   704.47
eigval :      724.90   730.45   730.97   741.19   745.92   753.24
eigval :      753.88   766.89   770.65   771.41   772.26   777.32
eigval :      777.44   785.12   788.58   801.38   832.71   841.34
eigval :      864.62   867.14   868.75   869.39   876.06   876.18
eigval :      877.53   877.70   878.71   883.23   885.43   891.39
eigval :      891.87   898.35   898.89   906.94   907.33   910.07
eigval :      910.10   911.82   912.53   916.46   917.59   918.26
eigval :      919.44   919.76   919.79   922.29   922.68   922.87
eigval :      923.87   924.75   930.52   930.89   933.22   947.60
eigval :      947.97   950.94   987.80  1004.98  1005.03  1030.87
eigval :     1072.92  1073.04  1077.60  1078.15  1081.62  1085.68
eigval :     1089.47  1107.77  1107.99  1109.62  1109.85  1117.49
eigval :     1124.68  1125.02  1132.69  1139.48  1140.12  1141.33
eigval :     1170.32  1174.82  1176.00  1176.48  1177.16  1177.67
eigval :     1179.28  1182.31  1182.82  1183.55  1183.94  1186.90
eigval :     1187.62  1201.80  1202.90  1206.62  1217.24  1221.43
eigval :     1228.75  1233.41  1235.64  1236.50  1237.39  1243.78
eigval :     1250.57  1257.29  1257.97  1265.13  1266.52  1273.34
eigval :     1273.77  1282.92  1282.95  1301.42  1306.99  1307.59
eigval :     1318.47  1322.48  1324.50  1324.63  1328.72  1329.10
eigval :     1331.35  1331.64  1365.06  1365.31  1366.15  1398.35
eigval :     1425.24  1427.62  1427.80  1428.02  1428.59  1432.25
eigval :     1432.78  1434.73  1436.60  1450.08  1457.58  1458.85
eigval :     1459.68  1469.68  1470.12  1476.06  1476.57  1488.72
eigval :     1489.65  1567.96  1570.51  1572.67  1572.74  1578.96
eigval :     1584.49  1584.76  1585.38  1586.33  1587.06  1587.23
eigval :     1587.89  1594.84  1595.01  1598.69  1598.75  1601.44
eigval :     1601.48  1603.23  1603.28  1692.93  3067.76  3067.81
eigval :     3068.39  3069.04  3071.46  3071.69  3072.08  3072.14
eigval :     3076.42  3076.81  3076.86  3076.99  3078.46  3078.83
eigval :     3079.23  3079.49  3079.81  3080.01  3080.47  3080.58
eigval :     3086.85  3087.07  3089.00  3089.10  3089.15  3089.20
eigval :     3092.56  3092.88  3093.04  3093.07  3095.08  3097.93
eigval :     3098.58  3099.19  3100.32  3100.35  3101.38  3101.50

   temp. (K)  partition function   enthalpy   heat capacity  entropy
                                   cal/mol     cal/K/mol   cal/K/mol   J/K/mol
 298.15  VIB  0.835E+24            29560.481    190.175    185.202
         ROT  0.210E+09              888.752      2.981     41.061
         INT  0.175E+33            30449.233    193.156    226.263
         TR   0.235E+29             1481.254      4.968     46.037
         TOT                       31930.4873   198.1238   272.3005  1139.3053

       T/K    H(0)-H(T)+PV         H(T)/Eh          T*S/Eh         G(T)/Eh
   ------------------------------------------------------------------------
    298.15    0.508845E-01    0.842884E+00    0.129379E+00    0.713505E+00
   ------------------------------------------------------------------------

         :::::::::::::::::::::::::::::::::::::::::::::::::::::
         ::                  THERMODYNAMIC                  ::
         :::::::::::::::::::::::::::::::::::::::::::::::::::::
         :: total free energy        -163.636762280835 Eh   ::
         ::.................................................::
         :: total energy             -164.350267506399 Eh   ::
         :: zero point energy           0.791999509351 Eh   ::
         :: G(RRHO) w/o ZPVE           -0.078494283787 Eh   ::
         :: G(RRHO) contrib.            0.713505225565 Eh   ::
         :::::::::::::::::::::::::::::::::::::::::::::::::::::

           -------------------------------------------------
          | TOTAL ENERGY             -164.350267506399 Eh   |
          | TOTAL ENTHALPY           -163.507383526615 Eh   |
          | TOTAL FREE ENERGY        -163.636762280835 Eh   |
          | GRADIENT NORM               0.000190046708 Eh/α |
          | HOMO-LUMO GAP               0.996337396604 eV   |
           -------------------------------------------------

 * finished run on 2025/08/24 at 02:50:25.612
