   * xtb version 6.7.1 (edcfbbe) compiled by 'albert@albert-system' on 2024-07-22

   ID    Z sym.   atoms
    1    8 O      1
    2    6 C      2-6, 8-37, 39-66
    3    7 N      7, 38
    4    1 H      67-104

          program call               : xtb data2507/toluene/SPAC-FO/SPAC-FO.xyz --gfn 2 --gbsa toluene --ohess vtight --parallel 40 --molden --ceasefiles --namespace data2507/toluene/SPAC-FO/SPAC-FO_toluene_S0_preOpt
      * Solvation model:               GBSA
        Solvent                        toluene
        Solvent mass                       9.2140E+01 g/mol
          :  Hamiltonian                  GFN2-xTB          :
 * total energy  :  -164.3180809 Eh     change       -0.2581373E-08 Eh
 * total energy  :  -164.3400662 Eh     change       -0.2198530E-01 Eh
 * total energy  :  -164.3475329 Eh     change       -0.7466685E-02 Eh
 * total energy  :  -164.3485425 Eh     change       -0.1009639E-02 Eh
 * total energy  :  -164.3489147 Eh     change       -0.3721410E-03 Eh
 * total energy  :  -164.3490604 Eh     change       -0.1457227E-03 Eh
 * total energy  :  -164.3491094 Eh     change       -0.4896716E-04 Eh
 * total energy  :  -164.3491318 Eh     change       -0.2248855E-04 Eh
 * total energy  :  -164.3491463 Eh     change       -0.1441883E-04 Eh
 * total energy  :  -164.3491526 Eh     change       -0.6387140E-05 Eh
 * total energy  :  -164.3502378 Eh     change       -0.1162464E-05 Eh
 * total energy  :  -164.3502387 Eh     change       -0.8896696E-06 Eh
 * total energy  :  -164.3502394 Eh     change       -0.7033302E-06 Eh
 * total energy  :  -164.3502400 Eh     change       -0.5843344E-06 Eh
 * total energy  :  -164.3502406 Eh     change       -0.5842006E-06 Eh
 * total energy  :  -164.3502417 Eh     change       -0.1105949E-05 Eh
 * total energy  :  -164.3502430 Eh     change       -0.1329640E-05 Eh
 * total energy  :  -164.3502444 Eh     change       -0.1429191E-05 Eh
 * total energy  :  -164.3502444 Eh     change       -0.4460190E-08 Eh
   *** GEOMETRY OPTIMIZATION CONVERGED AFTER 221 ITERATIONS ***

 final structure:
================
104
 xtb: 6.7.1 (edcfbbe)
O           -0.02956732433845        6.56866120857788        0.07956340771695
C           -0.02010982769076        5.35175872399398        0.06981951530824
C            1.15851151698718        4.45617583612728       -0.01018333955090
C            2.50095289492154        4.76968579154418       -0.09884419289894
C            3.42136390850471        3.73199507380373       -0.16437703071975
C            3.00092886613700        2.40514949917703       -0.14001032131482
N            3.95824212837129        1.36427252077951       -0.20787087758065
C            4.65721228226475        1.16255789492533       -1.39367745468647
C            4.35181939191064        1.91549364152605       -2.53140677279462
C            5.03821281321779        1.72601095567133       -3.71359329512553
C            6.03902917196251        0.77257409306159       -3.79416947421492
C            6.32395482243955        0.00138894029909       -2.68311993448953
C            5.64340857306378        0.17723068641682       -1.48662088087718
C            5.98372010949941       -0.72426971185804       -0.32496472443849
C            5.89142314212237       -2.18194823159471       -0.73652880162709
C            4.78299249394450       -2.87891511178253       -1.16488724749708
C            4.92844779881552       -4.22082411361695       -1.49249706904865
C            6.16225459175863       -4.84608636535015       -1.39244157534521
C            7.28027015293311       -4.14871206214637       -0.96198281488821
C            7.14059513813744       -2.81040790285049       -0.63217836148933
C            8.11051997371137       -1.83496768873251       -0.15562828675520
C            9.46444783026340       -1.95193890554459        0.11356431160760
C           10.14949394508522       -0.83583998235752        0.56798396544587
C            9.49676165408965        0.37391961130197        0.75155590493860
C            8.13958384704075        0.49695537957251        0.48321565699631
C            7.45511722934135       -0.60949768822051        0.03049278737271
C            5.12992995359500       -0.45311776260434        0.88976642589070
C            5.32755489065698       -1.22997019449305        2.02243857232080
C            4.61170398743127       -1.00644218544102        3.18347555088526
C            3.69437305711173        0.02989640250894        3.21945921014945
C            3.48488446362078        0.81315112017921        2.10243324002606
C            4.18070235727020        0.57215016853364        0.91389856988821
C            1.64073974378654        2.08519516255847       -0.05151248984991
C            0.72884982169508        3.11458502768532        0.01193245242972
C           -0.73212407880090        3.10223616165350        0.09766723283558
C           -1.62703946466790        2.05729293509988        0.14248656502590
C           -2.99355986569747        2.35303242216737        0.22334930003867
N           -3.93547450601439        1.29833886862471        0.26404269563983
C           -4.10883032220725        0.49490828796166       -0.85928047696053
C           -3.36492185640979        0.72472480524291       -2.02067130236966
C           -3.51991483908712       -0.07587007532465       -3.13428249257231
C           -4.43048956527349       -1.11860861296822       -3.12323516299615
C           -5.19870681665381       -1.32705257094081       -1.99340680811680
C           -5.05653763858102       -0.53232589415381       -0.86468319137591
C           -5.97389544559254       -0.78054510023565        0.30807393660628
C           -5.94533282990959       -2.23991494063878        0.72187492184820
C           -4.88183681929432       -2.96760757751600        1.20910623039967
C           -5.08327413841642       -4.30394133541017        1.52989429689683
C           -6.32712988802794       -4.89402196699162        1.36296396142216
C           -7.40005153161315       -4.16573924586020        0.87292665101093
C           -7.20494858667317       -2.83226090645824        0.55185759895547
C           -8.12096722835178       -1.82872416625935        0.02921930083969
C           -9.46273969104414       -1.90604969031229       -0.30683576676237
C          -10.09254263707726       -0.76933732133276       -0.78923531550979
C           -9.39750213571763        0.42194539341978       -0.93417612931086
C           -8.05210179819973        0.50507078784396       -0.59934617735110
C           -7.42246987954892       -0.62206991266217       -0.11905989637725
C           -5.66451786191536        0.11177246693923        1.48500360758366
C           -6.38360748367539       -0.06556232876968        2.65864460105724
C           -6.12791465734614        0.69734638072845        3.78233924119639
C           -5.11652420139530        1.64211661205751        3.73916704186106
C           -4.39297411324576        1.83359691376841        2.57974015344659
C           -4.67082244514357        1.09205084149509        1.42749879607341
C           -3.43516133215124        3.67297435294962        0.26419022456128
C           -2.53171893721161        4.72620311188991        0.22055247363077
C           -1.18356819637300        4.43641355865683        0.13507134974092
H            2.82201107659098        5.80026263994784       -0.11075842536492
H            4.47743081975985        3.94566273289402       -0.23484045368762
H            3.56359295920180        2.65140699234217       -2.49169123460520
H            4.78417746354752        2.32483063556706       -4.57582991040681
H            6.58294936698914        0.62273356812838       -4.71421325691480
H            7.08900051428959       -0.75965934855329       -2.73792646203929
H            3.82100002448246       -2.39340378671455       -1.24535379812682
H            4.07022356790459       -4.78425157073508       -1.82913632058598
H            6.25257801874696       -5.89079833441322       -1.65348729573777
H            8.23894841798850       -4.64027086443788       -0.88536579946922
H            9.97720519281104       -2.89213800416604       -0.02675192844391
H           11.20597445725803       -0.90871051112261        0.78305695508927
H           10.05054427800179        1.23065843412414        1.10732497601384
H            7.63279088211876        1.44027414414154        0.62838278917557
H            6.06304460610448       -2.02084798314227        1.98681680713367
H            4.77839606752928       -1.62409016521501        4.05268521354996
H            3.13993093770717        0.23673595845875        4.12295476969769
H            2.77991787939742        1.62819413496623        2.15648834100298
H            1.33232107661063        1.05093510405554       -0.03996283507194
H           -1.30067948371410        1.02870478159165        0.12158939702837
H           -2.66468476554764        1.54462886816213       -2.05784518224843
H           -2.92764277765286        0.12229017345121       -4.01544347707712
H           -4.55328028392109       -1.75121614848493       -3.98898189971865
H           -5.93217898899984       -2.12032864007449       -1.97996961481523
H           -3.91207000604199       -2.50958158637316        1.34091989269897
H           -4.26136775909244       -4.89067714416717        1.91391235829393
H           -6.46124702422300       -5.93513904504887        1.61947143435226
H           -8.36697821239733       -4.62980847653461        0.74514331895110
H          -10.00844098342471       -2.83153718247284       -0.19614071899338
H          -11.13877313355582       -0.81123096452168       -1.05647633266457
H           -9.90824244793372        1.29562436628609       -1.31241183339727
H           -7.51258381841836        1.43420935852159       -0.71493968263340
H           -7.15578850360950       -0.82092037774394        2.68486754043844
H           -6.70193932079234        0.54713241046569        4.68383094543496
H           -4.88332556067217        2.23232412459032        4.61313175782302
H           -3.59680171472686        2.56189256377530        2.56938377184507
H           -4.49505088183041        3.86884578717419        0.32887378910210
H           -2.87008754879261        5.75100226892688        0.24413331756291

          :  Hamiltonian                  GFN2-xTB          :
         :: gradient norm              0.000049084991 Eh/a0 ::
         :: HOMO-LUMO gap              0.985150576125 eV    ::
         :: SCC energy              -167.430005007294 Eh    ::
         :: -> dispersion             -0.165129967774 Eh    ::
         :: -> Gsolv                  -0.066540742963 Eh    ::
         :: repulsion energy           3.079760570485 Eh    ::

    * Orbital Energies and Occupations

         #    Occupation            Energy/Eh            Energy/eV
      -------------------------------------------------------------
         1        2.0000           -0.7169485             -19.5092
       ...           ...                  ...                  ...
       141        2.0000           -0.4094710             -11.1423
       142        2.0000           -0.4040838             -10.9957
       143        2.0000           -0.4012416             -10.9183
       144        2.0000           -0.3990268             -10.8581
       145        2.0000           -0.3988812             -10.8541
       146        2.0000           -0.3967932             -10.7973
       147        2.0000           -0.3966006             -10.7921
       148        2.0000           -0.3948036             -10.7432
       149        2.0000           -0.3945763             -10.7370
       150        2.0000           -0.3800360             -10.3413
       151        2.0000           -0.3799190             -10.3381
       152        2.0000           -0.3541829              -9.6378
       153        2.0000           -0.3526870              -9.5971 (HOMO)
       154                         -0.3164834              -8.6120 (LUMO)
       155                         -0.2674610              -7.2780
       156                         -0.2524990              -6.8708
       157                         -0.2523744              -6.8675
       158                         -0.2475378              -6.7358
       159                         -0.2339163              -6.3652
       160                         -0.2336509              -6.3580
       161                         -0.2260056              -6.1499
       162                         -0.2257566              -6.1432
       163                         -0.2257170              -6.1421
       164                         -0.2255889              -6.1386
       ...                                ...                  ...
       302                          0.7275668              19.7981
      -------------------------------------------------------------
                  HL-Gap            0.0362036 Eh            0.9851 eV

     #   Z          covCN         q      C6AA      α(0)
     1   8 O        0.856    -0.404    21.769     6.255
     2   6 C        2.868     0.230    23.181     7.892
     3   6 C        3.045    -0.029    28.684     8.784
     4   6 C        2.912    -0.013    28.341     8.730
     5   6 C        2.923    -0.038    28.945     8.823
     6   6 C        2.928     0.076    26.306     8.411
     7   7 N        2.752    -0.063    22.465     7.040
     8   6 C        2.924     0.058    26.701     8.474
     9   6 C        2.924    -0.058    29.431     8.897
    10   6 C        2.920    -0.033    28.811     8.802
    11   6 C        2.917    -0.042    29.048     8.838
    12   6 C        2.926    -0.035    28.872     8.812
    13   6 C        2.983    -0.006    28.172     8.707
    14   6 C        3.949     0.012    20.302     6.403
    15   6 C        3.057     0.002    27.931     8.667
    16   6 C        2.914    -0.033    28.834     8.805
    17   6 C        2.922    -0.033    28.814     8.803
    18   6 C        2.921    -0.033    28.829     8.805
    19   6 C        2.914    -0.035    28.876     8.812
    20   6 C        3.034     0.000    27.985     8.677
    21   6 C        3.034     0.000    27.985     8.677
    22   6 C        2.914    -0.035    28.874     8.811
    23   6 C        2.921    -0.033    28.830     8.805
    24   6 C        2.922    -0.033    28.814     8.803
    25   6 C        2.914    -0.034    28.839     8.806
    26   6 C        3.057     0.002    27.931     8.667
    27   6 C        2.983    -0.006    28.173     8.707
    28   6 C        2.926    -0.035    28.871     8.812
    29   6 C        2.917    -0.042    29.049     8.838
    30   6 C        2.920    -0.033    28.813     8.802
    31   6 C        2.924    -0.058    29.441     8.898
    32   6 C        2.924     0.058    26.697     8.473
    33   6 C        2.915    -0.038    28.944     8.822
    34   6 C        3.039     0.011    27.739     8.638
    35   6 C        3.040     0.011    27.741     8.639
    36   6 C        2.915    -0.038    28.949     8.823
    37   6 C        2.927     0.076    26.311     8.412
    38   7 N        2.752    -0.062    22.445     7.036
    39   6 C        2.923     0.058    26.700     8.474
    40   6 C        2.924    -0.058    29.441     8.898
    41   6 C        2.920    -0.033    28.812     8.802
    42   6 C        2.917    -0.042    29.043     8.837
    43   6 C        2.926    -0.035    28.871     8.812
    44   6 C        2.983    -0.006    28.168     8.706
    45   6 C        3.949     0.012    20.302     6.403
    46   6 C        3.057     0.002    27.930     8.667
    47   6 C        2.914    -0.033    28.832     8.805
    48   6 C        2.922    -0.033    28.812     8.803
    49   6 C        2.921    -0.033    28.828     8.805
    50   6 C        2.914    -0.035    28.876     8.812
    51   6 C        3.034     0.000    27.985     8.677
    52   6 C        3.034     0.001    27.984     8.677
    53   6 C        2.914    -0.035    28.872     8.811
    54   6 C        2.921    -0.033    28.829     8.805
    55   6 C        2.922    -0.033    28.815     8.803
    56   6 C        2.914    -0.034    28.841     8.806
    57   6 C        3.057     0.002    27.931     8.667
    58   6 C        2.983    -0.006    28.166     8.706
    59   6 C        2.926    -0.035    28.871     8.812
    60   6 C        2.917    -0.042    29.040     8.837
    61   6 C        2.920    -0.032    28.809     8.802
    62   6 C        2.924    -0.057    29.423     8.895
    63   6 C        2.924     0.058    26.704     8.474
    64   6 C        2.923    -0.038    28.952     8.824
    65   6 C        2.912    -0.013    28.341     8.730
    66   6 C        3.045    -0.030    28.693     8.785
    67   1 H        0.926     0.057     2.236     2.338
    68   1 H        0.926     0.056     2.247     2.344
    69   1 H        0.926     0.030     2.581     2.512
    70   1 H        0.926     0.033     2.541     2.493
    71   1 H        0.926     0.031     2.577     2.510
    72   1 H        0.926     0.029     2.602     2.523
    73   1 H        0.926     0.026     2.640     2.541
    74   1 H        0.926     0.032     2.556     2.500
    75   1 H        0.926     0.032     2.557     2.501
    76   1 H        0.926     0.033     2.550     2.497
    77   1 H        0.926     0.033     2.547     2.496
    78   1 H        0.926     0.032     2.556     2.500
    79   1 H        0.926     0.032     2.559     2.502
    80   1 H        0.926     0.026     2.649     2.545
    81   1 H        0.926     0.029     2.604     2.524
    82   1 H        0.926     0.031     2.577     2.511
    83   1 H        0.926     0.033     2.539     2.492
    84   1 H        0.926     0.031     2.571     2.508
    85   1 H        0.926     0.059     2.213     2.326
    86   1 H        0.926     0.059     2.210     2.325
    87   1 H        0.926     0.032     2.559     2.502
    88   1 H        0.926     0.034     2.535     2.490
    89   1 H        0.926     0.031     2.574     2.509
    90   1 H        0.926     0.029     2.600     2.521
    91   1 H        0.926     0.026     2.638     2.540
    92   1 H        0.926     0.032     2.556     2.500
    93   1 H        0.926     0.032     2.557     2.500
    94   1 H        0.926     0.033     2.550     2.497
    95   1 H        0.926     0.033     2.545     2.495
    96   1 H        0.926     0.032     2.555     2.500
    97   1 H        0.926     0.032     2.558     2.501
    98   1 H        0.926     0.026     2.648     2.545
    99   1 H        0.926     0.029     2.598     2.521
   100   1 H        0.926     0.031     2.572     2.508
   101   1 H        0.926     0.034     2.537     2.491
   102   1 H        0.926     0.031     2.575     2.509
   103   1 H        0.926     0.056     2.250     2.346
   104   1 H        0.926     0.057     2.238     2.339

molecular dipole:
                 x           y           z       tot (Debye)
 q only:       -0.039      -1.334      -0.006
   full:       -0.038      -1.383      -0.007       3.516

 projected vibrational frequencies (cm⁻¹)
eigval :       -0.00    -0.00     0.00     0.00     0.00     0.00
eigval :        2.24     3.33     6.59     8.60    16.18    26.46
eigval :       33.75    38.43    44.13    45.11    47.18    51.48
eigval :       63.86    69.67    82.72    84.42    93.87    95.30
eigval :      105.36   115.30   119.00   127.21   132.32   133.08
eigval :      138.94   139.76   162.43   172.61   176.41   201.28
eigval :      235.38   236.62   238.44   239.09   245.05   245.97
eigval :      249.24   251.28   274.27   275.20   290.45   293.72
eigval :      293.83   320.45   352.56   352.96   385.04   386.28
eigval :      388.20   389.77   390.65   398.65   401.45   402.57
eigval :      408.45   414.14   417.04   425.26   427.09   432.97
eigval :      435.11   437.61   459.69   462.45   462.67   464.32
eigval :      477.04   498.83   501.52   503.94   507.62   511.16
eigval :      511.33   511.84   538.48   539.48   551.45   563.87
eigval :      570.59   587.40   587.51   588.97   599.62   600.80
eigval :      602.35   602.48   603.35   618.32   621.27   639.54
eigval :      655.22   658.48   659.45   672.90   674.04   675.37
eigval :      684.94   685.07   690.66   693.15   698.66   706.35
eigval :      724.91   729.76   730.27   742.24   745.82   753.27
eigval :      753.92   764.05   764.75   771.13   771.35   776.70
eigval :      777.48   781.77   782.35   801.44   829.84   838.96
eigval :      864.10   864.72   870.49   870.81   874.96   875.13
eigval :      876.14   877.33   877.70   883.12   884.35   891.41
eigval :      891.51   897.92   898.20   905.91   906.15   908.27
eigval :      908.35   908.69   908.75   912.18   912.53   918.26
eigval :      919.43   919.76   919.98   920.29   920.69   921.73
eigval :      922.34   922.44   922.78   923.34   925.17   947.61
eigval :      948.03   950.90   987.56  1004.95  1004.98  1030.46
eigval :     1073.14  1073.29  1077.69  1077.90  1081.54  1085.84
eigval :     1089.52  1107.72  1107.92  1109.72  1109.83  1117.21
eigval :     1124.76  1124.85  1132.74  1139.73  1140.93  1142.12
eigval :     1170.09  1176.04  1176.32  1176.61  1177.31  1177.51
eigval :     1178.64  1182.38  1183.67  1183.89  1183.92  1187.76
eigval :     1188.76  1202.47  1203.03  1206.76  1217.02  1221.13
eigval :     1228.69  1233.30  1236.15  1236.76  1237.76  1243.89
eigval :     1250.61  1257.72  1258.55  1266.34  1267.38  1273.29
eigval :     1273.50  1282.87  1282.97  1301.34  1307.03  1307.78
eigval :     1319.25  1322.88  1324.50  1324.60  1328.69  1329.55
eigval :     1331.52  1331.91  1364.96  1365.17  1365.78  1398.22
eigval :     1425.43  1427.74  1427.84  1427.97  1428.77  1432.75
eigval :     1432.98  1435.04  1436.81  1450.12  1457.68  1459.27
eigval :     1460.06  1469.67  1470.17  1476.24  1476.93  1489.12
eigval :     1490.11  1568.10  1570.72  1572.66  1572.83  1579.27
eigval :     1584.52  1584.73  1585.45  1586.35  1587.21  1587.32
eigval :     1587.92  1594.83  1594.94  1598.76  1598.84  1601.50
eigval :     1601.55  1603.23  1603.27  1694.05  3068.22  3068.22
eigval :     3068.53  3068.87  3071.58  3072.13  3072.32  3072.54
eigval :     3075.32  3075.96  3075.99  3077.02  3078.13  3078.45
eigval :     3078.88  3079.00  3079.51  3079.73  3080.45  3080.70
eigval :     3087.13  3087.25  3089.24  3089.33  3089.39  3089.43
eigval :     3092.15  3092.31  3092.39  3092.95  3095.00  3097.87
eigval :     3098.72  3099.21  3099.85  3100.01  3101.60  3102.02

   temp. (K)  partition function   enthalpy   heat capacity  entropy
                                   cal/mol     cal/K/mol   cal/K/mol   J/K/mol
 298.15  VIB  0.435E+25            29606.275    190.193    186.930
         ROT  0.212E+09              888.752      2.981     41.077
         INT  0.921E+33            30495.027    193.173    228.007
         TR   0.235E+29             1481.254      4.968     46.037
         TOT                       31976.2812   198.1415   274.0445  1146.6021

       T/K    H(0)-H(T)+PV         H(T)/Eh          T*S/Eh         G(T)/Eh
   ------------------------------------------------------------------------
    298.15    0.509574E-01    0.842726E+00    0.130207E+00    0.712519E+00
   ------------------------------------------------------------------------

         :::::::::::::::::::::::::::::::::::::::::::::::::::::
         ::                  THERMODYNAMIC                  ::
         :::::::::::::::::::::::::::::::::::::::::::::::::::::
         :: total free energy        -163.637725687046 Eh   ::
         ::.................................................::
         :: total energy             -164.350244440584 Eh   ::
         :: zero point energy           0.791768684008 Eh   ::
         :: G(RRHO) w/o ZPVE           -0.079249930470 Eh   ::
         :: G(RRHO) contrib.            0.712518753538 Eh   ::
         :::::::::::::::::::::::::::::::::::::::::::::::::::::

           -------------------------------------------------
          | TOTAL ENERGY             -164.350244440584 Eh   |
          | TOTAL ENTHALPY           -163.507518308863 Eh   |
          | TOTAL FREE ENERGY        -163.637725687046 Eh   |
          | GRADIENT NORM               0.000049084014 Eh/α |
          | HOMO-LUMO GAP               0.985149307497 eV   |
           -------------------------------------------------

 * finished run on 2025/08/24 at 02:39:10.669
