   * xtb version 6.7.1 (edcfbbe) compiled by 'albert@albert-system' on 2024-07-22

   ID    Z sym.   atoms
    1    6 C      1-9, 11-19, 21-39, 41, 42, 44-47, 49-55
    2    7 N      10, 20, 40, 48
    3    9 F      43
    4    1 H      56-92

          program call               : xtb data2507/gas/2DMAC-BP-F/2DMAC-BP-F_gas_T1_crest.xyz --gfn 2 --spinpol --tblite --uhf 2 --ohess vtight --parallel 40 --molden --ceasefiles --namespace data2507/gas/2DMAC-BP-F/2DMAC-BP-F_gas_T1_finalOpt
 * total energy  :  -142.4325083 Eh     change        0.8648442E-09 Eh
 * total energy  :  -142.4325337 Eh     change       -0.2543745E-04 Eh
 * total energy  :  -142.4325403 Eh     change       -0.6603148E-05 Eh
 * total energy  :  -142.4325426 Eh     change       -0.2312904E-05 Eh
 * total energy  :  -142.4325447 Eh     change       -0.2054367E-05 Eh
 * total energy  :  -142.4325466 Eh     change       -0.1875073E-05 Eh
 * total energy  :  -142.4325484 Eh     change       -0.1886934E-05 Eh
 * total energy  :  -142.4325502 Eh     change       -0.1786254E-05 Eh
 * total energy  :  -142.4325519 Eh     change       -0.1628652E-05 Eh
 * total energy  :  -142.4325534 Eh     change       -0.1507790E-05 Eh
 * total energy  :  -142.4326136 Eh     change       -0.8264216E-06 Eh
 * total energy  :  -142.4326143 Eh     change       -0.7791628E-06 Eh
 * total energy  :  -142.4326151 Eh     change       -0.7770647E-06 Eh
 * total energy  :  -142.4326158 Eh     change       -0.7115499E-06 Eh
 * total energy  :  -142.4326167 Eh     change       -0.8289359E-06 Eh
 * total energy  :  -142.4326174 Eh     change       -0.7456755E-06 Eh
 * total energy  :  -142.4326182 Eh     change       -0.7845304E-06 Eh
 * total energy  :  -142.4326182 Eh     change        0.2656378E-08 Eh
 * total energy  :  -142.4326182 Eh     change       -0.2443375E-07 Eh
   *** GEOMETRY OPTIMIZATION CONVERGED AFTER 69 ITERATIONS ***

 final structure:
================
92
 xtb: 6.7.1 (edcfbbe)
C            6.19062541819789        3.37331587925253        0.05087196265546
C            6.21821855370044        1.83403020430528        0.02500012128579
C            7.67259671191020        1.32798761279473        0.00412127444097
C            5.54330745198704        1.31328948887518        1.27890182670312
C            6.04662296165452        1.66190885393989        2.52450524129499
C            5.47386558337658        1.21085814523208        3.69944301932958
C            4.36365028821487        0.38636187885923        3.64080367540652
C            3.84298963350915        0.02293124616425        2.41782116681356
C            4.42208901287885        0.47631773145622        1.22750447028030
N            3.87534395603033        0.09488610986809        0.01607215450419
C            2.80405110743166       -0.84414567141752        0.01030360613020
C            3.09819407155162       -2.21455296374723        0.00698582573250
C            2.07254955068546       -3.11944597727076        0.00057644613712
C            0.73269203485217       -2.69516795184419       -0.00291933090138
C            0.42676030944125       -1.31200726001251        0.00100402235387
C            1.49824184470193       -0.40699654890904        0.00771819722261
C           -0.95313190413941       -0.89261008949237       -0.00219538105418
C           -1.34212102125372        0.45499716324063        0.00240080908017
C           -2.67138228878067        0.81497597167244       -0.00193596414602
N           -3.04136416564041        2.19080498321965        0.00097316478886
C           -3.31821476872956        2.80411266203558        1.20877226160524
C           -3.11930504624637        2.09880024207711        2.40086495927498
C           -3.38544492731464        2.68227508199527        3.62042855027179
C           -3.85490619490965        3.98335381792079        3.67396735070896
C           -4.04841020968428        4.68376558491891        2.49755875559832
C           -3.78781070174940        4.12239600859515        1.25525027854394
C           -4.02350384004795        4.93823843712090       -0.00070804013931
C           -5.51299980969071        5.32467072441597       -0.06281305255378
C           -3.14750009984807        6.20314141033135        0.05931381300119
C           -3.67373619941239        4.16139782024218       -1.25487943414646
C           -3.82250032535575        4.76158009014541       -2.49747898450503
C           -3.52886310890881        4.09600801622708       -3.67336102822833
C           -3.07429315458555        2.78971273127868       -3.61893707731975
C           -2.91796219233630        2.16808360951371       -2.39919628733796
C           -3.21178024839692        2.84034391811720       -1.20764113397398
C           -3.67671418990035       -0.16158445998465       -0.00965212727759
C           -3.32601789406116       -1.48382547642486       -0.01312668338281
C           -1.97549024834268       -1.87230743681925       -0.01001166677003
C           -1.66085832299456       -3.26508861829636       -0.01480885947296
N           -2.62184775676460       -4.17865435327243       -0.02253372055439
C           -2.34033387682626       -5.48309186743006       -0.02611421917853
C           -3.32189099824778       -6.47501991682100       -0.03404353869594
F           -4.62069082792990       -6.09403302961543       -0.03735557103822
C           -3.01557865304875       -7.82219879876557       -0.03834031517597
C           -1.68570795297448       -8.21526432133617       -0.03481875264793
C           -0.67239662968810       -7.27451691768151       -0.02699215294364
C           -0.96186641899913       -5.91117365371481       -0.02238329950414
N           -0.00863217143581       -4.97568599913835       -0.01503273697186
C           -0.30131373316234       -3.68043573850860       -0.01094777569145
C            4.40232476025548        0.51514858217249       -1.19130118177492
C            3.80656483628128        0.09684985975860       -2.38622382359839
C            4.30690293255142        0.50046846596199       -3.60508053680378
C            5.41368046792061        1.33012859247676       -3.65497847896600
C            6.00456979580904        1.74433252045464       -2.47547244916811
C            5.52194310987175        1.35481728705412       -1.23379930370761
H            6.69611908997729        3.75565594589385        0.93315157482572
H            6.68125884445311        3.78496432356999       -0.82659780223445
H            5.16068690533620        3.72487977149119        0.06542924644289
H            7.68578545394747        0.23976045063816       -0.01441006224504
H            8.19713512893765        1.69202477563423       -0.87489832195907
H            8.21200243648919        1.66224457752525        0.88596980310378
H            6.91299600383629        2.30283551852365        2.58678528126917
H            5.89178449644967        1.50079285076057        4.65127670079119
H            3.90178879581219        0.02462056803789        4.54710179344134
H            2.97773028240681       -0.62047341539035        2.37586405672496
H            4.12912809010886       -2.53429893808535        0.00952012749375
H            2.26248582974224       -4.18155699823946       -0.00250469807912
H            1.32122034199106        0.65701381945444        0.01034695783926
H           -0.60478624438348        1.24228036711120        0.00838235249662
H           -2.75347597565911        1.08438528483235        2.36284156425501
H           -3.22635995511298        2.11984550687034        4.52808910483917
H           -4.06907774809361        4.45021865107339        4.62310415561497
H           -4.41575221859232        5.69712656231558        2.55591897112247
H           -5.80205867526308        5.89603303873399        0.81487141171567
H           -5.72140935722562        5.92461270691857       -0.94427099295458
H           -6.12695232732686        4.42694142195137       -0.10558144742868
H           -3.30120454604451        6.82355877257393       -0.81907630034568
H           -2.09646562094649        5.92386106717258        0.10325756530909
H           -3.38196392961684        6.79603313171413        0.93886424670740
H           -4.18056818867267        5.77820118433317       -2.55670025397992
H           -3.65665764371939        4.59290790788534       -4.62280910153389
H           -2.84219932036782        2.25252424286625       -4.52616259675809
H           -2.56679016292072        1.14853900120371       -2.36098997427394
H           -4.71174455921772        0.14432955678447       -0.01236689789683
H           -4.07346603541694       -2.26205207301040       -0.01929519341940
H           -3.81693292312493       -8.54313344067962       -0.04440314346545
H           -1.44037104120216       -9.26573353019458       -0.03822146717269
H            0.36367834530813       -7.57372409120527       -0.02420768393110
H            2.94484872823463       -0.55168313545215       -2.35128221182162
H            3.83213567311024        0.16561322417678       -4.51503550030276
H            5.81557773244475        1.65162843626126       -4.60356706313408
H            6.86898760591941        2.38850922746209       -2.53098417168794

 projected vibrational frequencies (cm⁻¹)
eigval :       -0.00    -0.00     0.00     0.00     0.00     0.00
eigval :       -5.28    -4.04    12.67    16.13    19.02    19.56
eigval :       34.52    42.15    47.49    63.91    80.53    83.68
eigval :       90.01    92.64    97.98   100.94   102.21   125.97
eigval :      128.40   128.44   135.08   140.97   149.64   172.56
eigval :      190.76   190.86   191.95   218.55   218.70   221.91
eigval :      227.59   233.46   240.40   241.73   252.02   268.38
eigval :      302.92   305.17   316.63   329.09   329.18   331.11
eigval :      342.44   344.23   345.38   350.58   364.96   377.39
eigval :      381.12   383.55   387.34   409.48   411.47   412.62
eigval :      432.21   434.29   444.12   449.77   449.95   460.50
eigval :      463.60   487.53   500.98   501.50   505.95   511.87
eigval :      512.13   529.59   535.05   537.11   545.65   545.80
eigval :      546.05   548.25   573.96   584.48   584.58   586.21
eigval :      595.58   607.14   626.95   627.07   641.72   653.72
eigval :      653.95   673.39   678.46   683.89   684.07   690.68
eigval :      695.01   695.81   696.27   712.75   723.30   739.55
eigval :      743.68   774.29   774.81   775.85   776.20   779.46
eigval :      809.85   816.90   817.82   827.68   828.27   841.17
eigval :      854.06   857.54   865.34   865.72   866.01   866.22
eigval :      870.70   894.77   897.16   912.91   913.01   913.66
eigval :      913.79   914.14   915.65   916.14   916.54   920.60
eigval :      920.67   920.73   920.80   937.78   937.98   952.11
eigval :      956.89   956.91   998.60  1013.25  1013.31  1022.75
eigval :     1041.06  1076.81  1076.88  1078.46  1085.09  1091.27
eigval :     1096.42  1110.53  1110.91  1116.96  1117.18  1139.75
eigval :     1139.81  1142.34  1144.45  1157.31  1157.59  1163.73
eigval :     1166.49  1167.56  1184.76  1185.11  1185.17  1185.39
eigval :     1188.40  1189.55  1215.43  1220.70  1222.37  1240.43
eigval :     1240.87  1246.70  1246.92  1248.65  1253.43  1263.30
eigval :     1264.34  1270.14  1292.31  1294.15  1294.17  1297.31
eigval :     1308.63  1309.88  1317.42  1324.88  1325.04  1335.13
eigval :     1335.44  1338.55  1339.09  1339.50  1355.45  1363.85
eigval :     1400.71  1400.93  1401.49  1404.84  1417.32  1417.94
eigval :     1420.86  1433.80  1435.57  1437.02  1437.95  1438.90
eigval :     1460.96  1469.03  1469.80  1469.90  1479.13  1487.27
eigval :     1487.37  1487.73  1487.99  1489.07  1489.35  1497.40
eigval :     1497.60  1502.02  1502.15  1511.25  1532.29  1541.19
eigval :     1550.54  1567.90  1568.54  1573.19  1579.51  1584.12
eigval :     1586.02  1586.99  1587.39  1597.72  1598.41  3026.82
eigval :     3026.98  3028.49  3028.98  3040.26  3040.35  3042.86
eigval :     3043.00  3047.74  3047.82  3051.74  3051.98  3080.38
eigval :     3080.54  3080.88  3081.07  3084.84  3084.96  3085.33
eigval :     3085.52  3090.47  3092.00  3094.27  3095.26  3095.40
eigval :     3095.96  3096.44  3097.54  3101.44  3101.72  3102.30
eigval :     3102.50  3102.96  3103.73  3104.77  3108.07  3115.61

   temp. (K)  partition function   enthalpy   heat capacity  entropy
                                   cal/mol     cal/K/mol   cal/K/mol   J/K/mol
 298.15  VIB  0.177E+22            26675.276    169.359    166.348
         ROT  0.131E+09              888.752      2.981     40.129
         INT  0.232E+30            27564.029    172.340    206.477
         TR   0.184E+29             1481.254      4.968     45.552
         TOT                       29045.2828   177.3077   252.0286  1054.4878

       T/K    H(0)-H(T)+PV         H(T)/Eh          T*S/Eh         G(T)/Eh
   ------------------------------------------------------------------------
    298.15    0.462866E-01    0.760014E+00    0.119747E+00    0.640267E+00
   ------------------------------------------------------------------------

         :::::::::::::::::::::::::::::::::::::::::::::::::::::
         ::                  THERMODYNAMIC                  ::
         :::::::::::::::::::::::::::::::::::::::::::::::::::::
         :: total free energy        -141.792350931541 Eh   ::
         ::.................................................::
         :: total energy             -142.432618219398 Eh   ::
         :: zero point energy           0.713727614272 Eh   ::
         :: G(RRHO) w/o ZPVE           -0.073460326415 Eh   ::
         :: G(RRHO) contrib.            0.640267287857 Eh   ::
         :::::::::::::::::::::::::::::::::::::::::::::::::::::

           -------------------------------------------------
          | TOTAL ENERGY             -142.432618219398 Eh   |
          | TOTAL ENTHALPY           -141.672604000775 Eh   |
          | TOTAL FREE ENERGY        -141.792350931541 Eh   |
          | GRADIENT NORM               0.000133088938 Eh/α |
           -------------------------------------------------

 * finished run on 2025/09/09 at 11:10:46.074
