   * xtb version 6.7.1 (edcfbbe) compiled by 'albert@albert-system' on 2024-07-22

   ID    Z sym.   atoms
    1    6 C      1-9, 11-19, 21-39, 41, 42, 44-47, 49-55
    2    7 N      10, 20, 40, 48
    3    9 F      43
    4    1 H      56-92

          program call               : xtb data2507/gas/2DMAC-BP-F/2DMAC-BP-F.xyz --gfn 2 --ohess vtight --parallel 40 --molden --ceasefiles --namespace data2507/gas/2DMAC-BP-F/2DMAC-BP-F_gas_S0_preOpt
          :  Hamiltonian                  GFN2-xTB          :
 * total energy  :  -142.4371179 Eh     change       -0.2799311E-08 Eh
 * total energy  :  -142.4616797 Eh     change       -0.2456182E-01 Eh
 * total energy  :  -142.4703448 Eh     change       -0.8665143E-02 Eh
 * total energy  :  -142.4721050 Eh     change       -0.1760199E-02 Eh
 * total energy  :  -142.4729752 Eh     change       -0.8702221E-03 Eh
 * total energy  :  -142.4732019 Eh     change       -0.2266892E-03 Eh
 * total energy  :  -142.4732420 Eh     change       -0.4006847E-04 Eh
 * total energy  :  -142.4732573 Eh     change       -0.1530950E-04 Eh
 * total energy  :  -142.4732650 Eh     change       -0.7684775E-05 Eh
 * total energy  :  -142.4732726 Eh     change       -0.7593943E-05 Eh
 * total energy  :  -142.4732862 Eh     change       -0.2694735E-05 Eh
 * total energy  :  -142.4732897 Eh     change       -0.3541316E-05 Eh
 * total energy  :  -142.4732933 Eh     change       -0.3552397E-05 Eh
 * total energy  :  -142.4732956 Eh     change       -0.2338054E-05 Eh
 * total energy  :  -142.4732967 Eh     change       -0.1065726E-05 Eh
 * total energy  :  -142.4732970 Eh     change       -0.2844138E-06 Eh
 * total energy  :  -142.4732977 Eh     change       -0.7262003E-06 Eh
 * total energy  :  -142.4732981 Eh     change       -0.3496484E-06 Eh
 * total energy  :  -142.4732981 Eh     change       -0.8939867E-07 Eh
   *** GEOMETRY OPTIMIZATION CONVERGED AFTER 25 ITERATIONS ***

 final structure:
================
92
 xtb: 6.7.1 (edcfbbe)
C            6.68726442387331        3.08835057113013        0.00133858752429
C            5.14949226184523        3.01597007118339       -0.00023617986885
C            4.54970011833951        4.43395785690798       -0.00187041348490
C            4.69816365032579        2.29679152669583       -1.25766024131595
C            5.03054866186734        2.81654829471452       -2.50099293656882
C            4.64616745381652        2.20420728057783       -3.67967453413168
C            3.90652733275404        1.03684822811889       -3.62617601967423
C            3.56221929363207        0.49798949474228       -2.40444197062157
C            3.95070640435268        1.11563516537928       -1.21234103517640
N            3.58752334148418        0.55137704896348       -0.00017015287641
C            2.86090905772491       -0.67041186574768       -0.00009400331331
C            3.54739693621327       -1.88527358328656       -0.00012026218751
C            2.83394446791504       -3.05938424021079        0.00011140089763
C            1.43586314118858       -3.04846462372520        0.00029519752411
C            0.73132941302115       -1.82778368688440        0.00022033469965
C            1.47878576953910       -0.64623140766879        0.00006078863292
C           -0.72524962821253       -1.82727152428594        0.00031785600987
C           -1.47408650611578       -0.64674930871158        0.00007056393450
C           -2.85632021068303       -0.67394926703026        0.00005449707161
N           -3.58431503848198        0.54700156547477       -0.00020055127637
C           -3.94703346192437        1.11155955810897        1.21186675815030
C           -3.55740959613195        0.49473720903907        2.40403649982761
C           -3.90060591304529        1.03447112759969        3.62566791683183
C           -4.64019036493229        2.20187232179456        3.67897128297250
C           -5.02606444094897        2.81313939611030        2.50021327889342
C           -4.69486045972076        2.29245254293094        1.25696500942863
C           -5.14789199414712        3.01015067628210       -0.00071668387036
C           -6.68565575536164        3.08191162449547       -0.00050799613100
C           -4.54830127304664        4.42823242093709       -0.00124159951458
C           -4.69523274969095        2.29168939004811       -1.25809634355248
C           -5.02680182319364        2.81162218473196       -2.50156272582047
C           -4.64124362852318        2.19965968521020       -3.68006346820532
C           -3.90159105041553        1.03232407985477       -3.62626924210140
C           -3.55803053639912        0.49333435979840       -2.40441136690465
C           -3.94736078337093        1.11084382215840       -1.21250178154215
C           -3.54138710839796       -1.88962365360373        0.00027538378305
C           -2.82688184523520       -3.06313447954144        0.00050414659768
C           -1.42871675967264       -3.04822357859349        0.00055616325592
C           -0.70962234060045       -4.30167321339052        0.00077204419997
N           -1.39290361237111       -5.42913881844670        0.00110948688266
C           -0.70784510343380       -6.57795189258799        0.00132924830546
C           -1.37624552356655       -7.82473550225437        0.00172488205105
F           -2.71999039337073       -7.83957897896692        0.00187889059830
C           -0.68580814171553       -9.00303429391328        0.00195647320028
C            0.72015474173184       -8.99109563962572        0.00179672174932
C            1.41528019362537       -7.81566960163634        0.00141026316985
C            0.72098034381957       -6.58733920535552        0.00117363293979
N            1.40134298178211       -5.43312826343432        0.00080908943494
C            0.71876662429401       -4.30430651936474        0.00061755490663
C            3.94816763605230        1.11730468457325        1.21198410976463
C            3.55754638421829        0.50109148642788        2.40412950940313
C            3.89934550505677        1.04161821889770        3.62583272109449
C            4.63865637784518        2.20918799804675        3.67925600813908
C            5.02534685345174        2.81998887281835        2.50053190859433
C            4.69549313413386        2.29854857366372        1.25723104689177
H            7.05240787639639        3.61013416973408       -0.87891554683546
H            7.05054151537765        3.61134233099768        0.88164594865450
H            7.10496747718954        2.08321486287191        0.00247583514375
H            3.46278060397100        4.37585548102021       -0.00296408553064
H            4.86226562729541        4.98871249299800        0.87848788383558
H            4.86410305554336        4.98747321774975       -0.88235454331966
H            5.60749966229672        3.72721521808701       -2.55845873102104
H            4.92220195224579        2.63605973721085       -4.62950912259016
H            3.59533536227861        0.54267643277067       -4.53446061859581
H            2.98509554470485       -0.41370234873729       -2.36894638204135
H            4.62677443321484       -1.88565108688393       -0.00035255070816
H            3.33001933590754       -4.01688899616581        0.00007792504627
H            0.99553559494544        0.31760878023521        0.00013355991742
H           -0.99299872313784        0.31820850769343       -0.00013102359839
H           -2.98086784692682       -0.41729714954128        2.36870379411268
H           -3.58884837515081        0.54078100833714        4.53402458931841
H           -4.91536928306164        2.63437427437493        4.62876672896879
H           -5.60333014304409        3.72362018022600        2.55758698001844
H           -7.04999711783915        3.60436457735433        0.87968786943728
H           -7.05026314242739        3.60380998418083       -0.88092287979617
H           -7.10281071065056        2.07656384290559       -0.00012803002114
H           -4.86195118858370        4.98205074203274       -0.88180850616367
H           -3.46135130581886        4.37016775451027       -0.00139683236846
H           -4.86167070959999        4.98258134018703        0.87909108244306
H           -5.60410779186336        3.72205309137163       -2.55931892998022
H           -4.91671090606221        2.63157962990968       -4.63004015918070
H           -3.59006331187320        0.53810650054832       -4.53441804711058
H           -2.98142879347331       -0.41864755323095       -2.36869500257873
H           -4.62068980768445       -1.89146579983979        0.00028942271195
H           -3.32146205070774       -4.02151671425470        0.00073040476843
H           -1.22637339446624       -9.93651363924612        0.00226369238708
H            1.24546632711338       -9.93388837275082        0.00199397986901
H            2.49325860174404       -7.79012829047031        0.00128699903809
H            2.98084986801261       -0.41087179030731        2.36870267363331
H            3.58651098168002        0.54854279510758        4.53414855469646
H            4.91266893833786        2.64238457679551        4.62906324102755
H            5.60203838292393        3.73082502307210        2.55793807718949

          :  Hamiltonian                  GFN2-xTB          :
         :: gradient norm              0.000129147345 Eh/a0 ::
         :: HOMO-LUMO gap              0.832915521545 eV    ::
         :: SCC energy              -144.970500508308 Eh    ::
         :: -> dispersion             -0.132703509970 Eh    ::
         :: repulsion energy           2.497202361865 Eh    ::

    * Orbital Energies and Occupations

         #    Occupation            Energy/Eh            Energy/eV
      -------------------------------------------------------------
         1        2.0000           -0.8213352             -22.3497
       ...           ...                  ...                  ...
       120        2.0000           -0.4062889             -11.0557
       121        2.0000           -0.4052333             -11.0270
       122        2.0000           -0.4028400             -10.9618
       123        2.0000           -0.4022626             -10.9461
       124        2.0000           -0.4013061             -10.9201
       125        2.0000           -0.4003234             -10.8934
       126        2.0000           -0.3966991             -10.7947
       127        2.0000           -0.3956719             -10.7668
       128        2.0000           -0.3914754             -10.6526
       129        2.0000           -0.3904482             -10.6246
       130        2.0000           -0.3627481              -9.8709
       131        2.0000           -0.3456764              -9.4063
       132        2.0000           -0.3445524              -9.3757 (HOMO)
       133        0.0000           -0.3139432              -8.5428 (LUMO)
       134                         -0.2803806              -7.6295
       135                         -0.2682549              -7.2996
       136                         -0.2374104              -6.4603
       137                         -0.2325726              -6.3286
       138                         -0.2227408              -6.0611
       139                         -0.2217032              -6.0329
       140                         -0.2178118              -5.9270
       141                         -0.2170139              -5.9052
       142                         -0.2167681              -5.8986
       143                         -0.2161526              -5.8818
       ...                                ...                  ...
       257                          0.7021147              19.1055
      -------------------------------------------------------------
                  HL-Gap            0.0306093 Eh            0.8329 eV

     #   Z          covCN         q      C6AA      α(0)
     1   6 C        3.761    -0.103    22.511     6.764
     2   6 C        3.909     0.021    20.156     6.381
     3   6 C        3.761    -0.103    22.510     6.763
     4   6 C        2.979    -0.014    28.363     8.736
     5   6 C        2.928    -0.036    28.895     8.815
     6   6 C        2.917    -0.045    29.112     8.848
     7   6 C        2.920    -0.033    28.817     8.803
     8   6 C        2.924    -0.059    29.472     8.903
     9   6 C        2.929     0.058    26.698     8.474
    10   7 N        2.755    -0.074    22.675     7.072
    11   6 C        2.927     0.076    26.307     8.411
    12   6 C        2.918    -0.036    28.902     8.816
    13   6 C        2.923    -0.026    28.656     8.779
    14   6 C        2.988    -0.002    28.067     8.690
    15   6 C        2.976     0.010    27.795     8.648
    16   6 C        2.925    -0.042    29.052     8.839
    17   6 C        2.976     0.009    27.812     8.651
    18   6 C        2.925    -0.042    29.054     8.839
    19   6 C        2.927     0.076    26.306     8.411
    20   7 N        2.756    -0.074    22.672     7.072
    21   6 C        2.929     0.058    26.696     8.473
    22   6 C        2.924    -0.059    29.470     8.903
    23   6 C        2.920    -0.033    28.816     8.803
    24   6 C        2.917    -0.045    29.112     8.848
    25   6 C        2.928    -0.036    28.896     8.816
    26   6 C        2.979    -0.014    28.363     8.736
    27   6 C        3.909     0.021    20.156     6.381
    28   6 C        3.761    -0.103    22.511     6.764
    29   6 C        3.761    -0.103    22.508     6.763
    30   6 C        2.979    -0.014    28.363     8.736
    31   6 C        2.928    -0.036    28.896     8.816
    32   6 C        2.917    -0.045    29.112     8.848
    33   6 C        2.920    -0.033    28.816     8.803
    34   6 C        2.924    -0.059    29.470     8.903
    35   6 C        2.929     0.058    26.696     8.473
    36   6 C        2.919    -0.036    28.884     8.813
    37   6 C        2.923    -0.026    28.644     8.777
    38   6 C        2.988    -0.001    28.049     8.688
    39   6 C        2.965     0.085    26.102     8.380
    40   7 N        1.847    -0.220    26.631     7.648
    41   6 C        2.966     0.069    26.449     8.436
    42   6 C        2.778     0.161    24.515     8.110
    43   9 F        0.787    -0.203    11.269     3.965
    44   6 C        2.914    -0.051    29.255     8.869
    45   6 C        2.919    -0.027    28.675     8.781
    46   6 C        2.916    -0.045    29.127     8.850
    47   6 C        2.967     0.081    26.191     8.395
    48   7 N        1.849    -0.232    26.920     7.690
    49   6 C        2.960     0.086    26.084     8.377
    50   6 C        2.929     0.058    26.698     8.474
    51   6 C        2.924    -0.059    29.472     8.903
    52   6 C        2.920    -0.033    28.817     8.803
    53   6 C        2.917    -0.045    29.112     8.848
    54   6 C        2.928    -0.036    28.895     8.815
    55   6 C        2.979    -0.014    28.363     8.736
    56   1 H        0.925     0.039     2.461     2.453
    57   1 H        0.925     0.039     2.461     2.453
    58   1 H        0.925     0.031     2.573     2.508
    59   1 H        0.925     0.031     2.574     2.509
    60   1 H        0.925     0.039     2.461     2.453
    61   1 H        0.925     0.039     2.461     2.453
    62   1 H        0.926     0.030     2.589     2.516
    63   1 H        0.926     0.026     2.644     2.543
    64   1 H        0.926     0.027     2.631     2.537
    65   1 H        0.926     0.021     2.721     2.580
    66   1 H        0.926     0.049     2.336     2.390
    67   1 H        0.926     0.068     2.112     2.273
    68   1 H        0.926     0.049     2.328     2.386
    69   1 H        0.926     0.049     2.337     2.390
    70   1 H        0.926     0.021     2.719     2.578
    71   1 H        0.926     0.027     2.632     2.537
    72   1 H        0.926     0.026     2.646     2.544
    73   1 H        0.926     0.030     2.591     2.517
    74   1 H        0.925     0.039     2.462     2.454
    75   1 H        0.925     0.039     2.462     2.454
    76   1 H        0.925     0.031     2.568     2.506
    77   1 H        0.925     0.039     2.463     2.454
    78   1 H        0.925     0.031     2.578     2.511
    79   1 H        0.925     0.039     2.463     2.454
    80   1 H        0.926     0.030     2.591     2.517
    81   1 H        0.926     0.026     2.646     2.544
    82   1 H        0.926     0.027     2.632     2.537
    83   1 H        0.926     0.021     2.719     2.578
    84   1 H        0.926     0.050     2.319     2.381
    85   1 H        0.926     0.073     2.051     2.239
    86   1 H        0.926     0.065     2.141     2.288
    87   1 H        0.926     0.053     2.278     2.360
    88   1 H        0.926     0.063     2.167     2.302
    89   1 H        0.926     0.021     2.721     2.580
    90   1 H        0.926     0.027     2.631     2.537
    91   1 H        0.926     0.026     2.643     2.543
    92   1 H        0.926     0.030     2.589     2.516

molecular dipole:
                 x           y           z       tot (Debye)
 q only:        0.740       0.017      -0.000
   full:        0.766      -0.125      -0.000       1.973

 projected vibrational frequencies (cm⁻¹)
eigval :       -0.00    -0.00    -0.00     0.00     0.00     0.00
eigval :       -8.91    -8.03    12.54    12.94    19.04    19.72
eigval :       33.82    36.12    45.52    62.70    77.21    83.96
eigval :       85.70    93.69    97.98    98.22   101.75   127.87
eigval :      129.07   129.28   135.10   140.94   150.76   180.89
eigval :      190.68   190.81   192.30   218.60   219.63   220.56
eigval :      227.82   233.08   239.87   241.87   252.86   267.19
eigval :      304.00   306.03   315.83   330.29   330.49   330.52
eigval :      344.89   345.26   345.96   363.99   367.01   374.66
eigval :      380.58   382.47   388.71   409.25   410.38   414.91
eigval :      433.31   436.28   446.67   446.86   448.93   450.00
eigval :      464.02   485.26   494.04   500.94   512.13   515.34
eigval :      515.43   528.89   538.47   547.37   547.48   547.91
eigval :      550.08   562.86   578.93   584.43   585.75   587.11
eigval :      597.74   611.82   628.74   646.54   654.09   662.11
eigval :      670.07   681.66   681.77   684.69   692.79   692.81
eigval :      701.12   703.43   714.19   732.34   743.34   747.83
eigval :      769.62   775.67   776.14   777.03   777.38   803.59
eigval :      810.97   820.69   821.40   832.03   832.55   848.93
eigval :      863.42   864.02   864.37   864.87   865.70   876.28
eigval :      887.14   904.97   912.55   912.65   913.40   913.48
eigval :      917.11   917.59   920.70   920.71   920.77   920.79
eigval :      921.40   925.18   927.30   938.65   938.69   957.18
eigval :      957.22   963.62  1001.71  1014.35  1014.36  1035.77
eigval :     1051.58  1077.42  1077.48  1079.88  1085.96  1091.82
eigval :     1100.87  1112.69  1112.86  1119.14  1119.17  1140.90
eigval :     1140.96  1141.09  1143.43  1160.68  1160.77  1164.06
eigval :     1170.09  1170.97  1186.97  1187.10  1187.49  1187.74
eigval :     1190.70  1192.56  1219.40  1223.85  1226.46  1243.31
eigval :     1244.01  1249.66  1249.85  1258.75  1268.66  1268.74
eigval :     1276.85  1279.26  1294.62  1294.63  1308.27  1312.30
eigval :     1314.30  1318.39  1325.96  1326.05  1328.41  1335.26
eigval :     1335.43  1345.92  1346.99  1349.29  1374.81  1396.76
eigval :     1398.22  1402.80  1402.83  1420.96  1421.00  1433.30
eigval :     1436.93  1437.75  1444.46  1445.17  1449.06  1454.23
eigval :     1481.78  1482.77  1482.78  1490.05  1490.19  1490.96
eigval :     1490.98  1492.41  1497.51  1498.21  1500.68  1500.70
eigval :     1505.47  1505.71  1507.05  1531.74  1546.82  1554.31
eigval :     1576.06  1576.11  1580.05  1588.96  1591.57  1592.96
eigval :     1593.24  1593.61  1603.02  1603.12  1605.13  3026.42
eigval :     3026.57  3028.69  3028.72  3039.13  3039.21  3041.89
eigval :     3042.01  3047.98  3048.07  3051.81  3051.93  3077.78
eigval :     3077.86  3077.90  3077.99  3082.22  3082.30  3082.38
eigval :     3082.46  3091.57  3091.69  3091.78  3092.19  3093.65
eigval :     3095.30  3096.49  3097.84  3098.11  3098.95  3099.05
eigval :     3104.15  3108.43  3112.46  3113.01  3113.26  3114.66

   temp. (K)  partition function   enthalpy   heat capacity  entropy
                                   cal/mol     cal/K/mol   cal/K/mol   J/K/mol
 298.15  VIB  0.780E+21            26563.093    168.119    164.852
         ROT  0.129E+09              888.752      2.981     40.088
         INT  0.100E+30            27451.845    171.100    204.939
         TR   0.184E+29             1481.254      4.968     45.552
         TOT                       28933.0988   176.0680   250.4911  1048.0549

       T/K    H(0)-H(T)+PV         H(T)/Eh          T*S/Eh         G(T)/Eh
   ------------------------------------------------------------------------
    298.15    0.461078E-01    0.762334E+00    0.119016E+00    0.643318E+00
   ------------------------------------------------------------------------

         :::::::::::::::::::::::::::::::::::::::::::::::::::::
         ::                  THERMODYNAMIC                  ::
         :::::::::::::::::::::::::::::::::::::::::::::::::::::
         :: total free energy        -141.829980625496 Eh   ::
         ::.................................................::
         :: total energy             -142.473298146444 Eh   ::
         :: zero point energy           0.716226108175 Eh   ::
         :: G(RRHO) w/o ZPVE           -0.072908587228 Eh   ::
         :: G(RRHO) contrib.            0.643317520947 Eh   ::
         :::::::::::::::::::::::::::::::::::::::::::::::::::::

           -------------------------------------------------
          | TOTAL ENERGY             -142.473298146444 Eh   |
          | TOTAL ENTHALPY           -141.710964210447 Eh   |
          | TOTAL FREE ENERGY        -141.829980625496 Eh   |
          | GRADIENT NORM               0.000129092656 Eh/α |
          | HOMO-LUMO GAP               0.832920123769 eV   |
           -------------------------------------------------

 * finished run on 2025/09/09 at 10:54:42.175
