   * xtb version 6.7.1 (edcfbbe) compiled by 'albert@albert-system' on 2024-07-22

   ID    Z sym.   atoms
    1    6 C      1-9, 11-19, 21-39, 41, 42, 44-47, 49-55
    2    7 N      10, 20, 40, 48
    3    9 F      43
    4    1 H      56-92

          program call               : xtb data2507/gas/2DMAC-BP-F/2DMAC-BP-F_gas_S0_finalOpt.xtbopt.xyz --gfn 2 --spinpol --tblite --uhf 2 --ohess vtight --parallel 40 --molden --ceasefiles --namespace data2507/gas/2DMAC-BP-F/2DMAC-BP-F_gas_T1_preOpt
 * total energy  :  -142.4237301 Eh     change       -0.3303740E-08 Eh
 * total energy  :  -142.4269610 Eh     change       -0.3230908E-02 Eh
 * total energy  :  -142.4280972 Eh     change       -0.1136196E-02 Eh
 * total energy  :  -142.4282518 Eh     change       -0.1546804E-03 Eh
 * total energy  :  -142.4283098 Eh     change       -0.5796651E-04 Eh
 * total energy  :  -142.4283129 Eh     change       -0.3063801E-05 Eh
 * total energy  :  -142.4283143 Eh     change       -0.1429033E-05 Eh
 * total energy  :  -142.4283158 Eh     change       -0.1505278E-05 Eh
 * total energy  :  -142.4283172 Eh     change       -0.1355197E-05 Eh
 * total energy  :  -142.4283186 Eh     change       -0.1469940E-05 Eh
 * total energy  :  -142.4283198 Eh     change       -0.1203336E-05 Eh
 * total energy  :  -142.4283206 Eh     change       -0.7615579E-06 Eh
 * total energy  :  -142.4283211 Eh     change       -0.4713372E-06 Eh
 * total energy  :  -142.4283215 Eh     change       -0.4742503E-06 Eh
 * total energy  :  -142.4283219 Eh     change       -0.3284978E-06 Eh
 * total energy  :  -142.4283220 Eh     change       -0.8618616E-07 Eh
   *** GEOMETRY OPTIMIZATION CONVERGED AFTER 16 ITERATIONS ***

 final structure:
================
92
 xtb: 6.7.1 (edcfbbe)
C            6.55511626901947        1.83896525554786       -2.05036358478976
C            5.46577593998492        1.02729092088714       -1.35025068686459
C            4.65213336134568        0.28568257237386       -2.43037185466396
C            6.03334648836800        0.01120636199261       -0.37452257892417
C            7.36747005951953       -0.35815937694150       -0.31388964816473
C            7.80645080584510       -1.28847957036993        0.61345612801596
C            6.91854418068134       -1.83909344800502        1.52020448468117
C            5.58605721652271       -1.47420478889587        1.48605780215058
C            5.13609640862122       -0.57880068543351        0.52275106356537
N            3.79425084902856       -0.15424792778712        0.49336143256600
C            2.71719244560691       -1.01980082471078        0.39533475286051
C            2.89981985114278       -2.41759823783950        0.40439594348940
C            1.82512968338656       -3.25536537042372        0.30625133647231
C            0.51404646743739       -2.76339911549099        0.18378338344715
C            0.31676570225788       -1.36577642335658        0.10366013826448
C            1.43231503657674       -0.53220470779756        0.19225193196497
C           -1.02282065873615       -0.85207839069023       -0.07463386998924
C           -1.29581510300984        0.51263758387714       -0.17565087508172
C           -2.57869013162841        1.00573348831969       -0.37956960886642
N           -2.80177511263349        2.36811241901603       -0.49183657694059
C           -1.77920308572109        3.32993391216708       -0.38045663758086
C           -0.65803910429590        3.28626191948198       -1.20227964369315
C            0.30753463048674        4.26952848590113       -1.10712173003254
C            0.13980348466713        5.31261371642068       -0.21372768702524
C           -0.99708041358404        5.38043437811888        0.57365850311191
C           -1.97000213861019        4.39554965063934        0.50552643105709
C           -3.24730723664257        4.38853722052860        1.32682813522070
C           -3.13279087246077        3.30773652954554        2.42106738174246
C           -3.51202442897438        5.72968685599577        2.01015520910588
C           -4.35298454300319        3.99907007072845        0.36117645271245
C           -5.59262905688484        4.61497643084736        0.29821134353840
C           -6.54488448843848        4.20443015133717       -0.61983019776430
C           -6.25616775746311        3.19016982083878       -1.51517684700518
C           -5.02093481759370        2.57155236807587       -1.47851718837728
C           -4.08390403926236        2.94900894428954       -0.52374271867018
C           -3.64885154859982        0.08790607547600       -0.37508013829950
C           -3.40933970977998       -1.25258967552323       -0.26487853297356
C           -2.10402584972134       -1.75978154585472       -0.14246388822492
C           -1.89995059864087       -3.16465847009789       -0.05495354284041
N           -2.90792385830344       -4.02162840427793       -0.12199695789705
C           -2.73858721719223       -5.33709163231981       -0.04513809466734
C           -3.78070192409357       -6.26006081191155       -0.11472124277721
F           -5.04180230292353       -5.78960318276982       -0.27104610885836
C           -3.57715852334256       -7.62545952018642       -0.03123575451557
C           -2.28895431583785       -8.10806095032557        0.12845454855586
C           -1.21454909619853       -7.23828684392401        0.20333028032851
C           -1.39686299992898       -5.86064348509477        0.12068369595588
N           -0.39729299187641       -4.98644811313027        0.18643433470419
C           -0.57637748523480       -3.67443201068033        0.10836693879500
C            3.67577910466023        1.24322251495696        0.36435014808796
C            2.81713760091669        1.97053588491043        1.18163526395917
C            2.75532043624160        3.34592428933867        1.06891947165830
C            3.57218169445035        3.99810717754242        0.16244191046940
C            4.45890138479788        3.27865741003187       -0.62060870654673
C            4.52483428037517        1.89679455006006       -0.53489267384212
H            7.19799184784538        1.18137036108635       -2.63020324171556
H            6.10790162860235        2.54655933172070       -2.74420234149337
H            7.16137162802598        2.38318226091142       -1.32956669954519
H            3.85444607759620       -0.31093196771722       -1.99666337479027
H            4.20719390500465        1.00460599444815       -3.11542851267188
H            5.30571817286396       -0.37635353745521       -2.99466092003720
H            8.08400664841269        0.07379416062716       -0.99353272035768
H            8.84837299405180       -1.57024848080022        0.63614336611861
H            7.26390332316512       -2.54088713015005        2.26440104952278
H            4.89442705101309       -1.86334951527533        2.21801702146655
H            3.89210143320325       -2.83519529290738        0.45644873561749
H            1.96421837425720       -4.32565219065177        0.31419631737604
H            1.30134244413550        0.52952134286217        0.07762783748037
H           -0.48881124816325        1.21646455024725       -0.07073317377774
H           -0.55840808191423        2.49222328698263       -1.92714970354596
H            1.18247847389934        4.22609945651219       -1.73783945284148
H            0.88861822866967        6.08650280207826       -0.13837165208857
H           -1.11323293264039        6.21463762961839        1.24658139448759
H           -4.05893209655400        3.25964293814085        2.99007477263133
H           -2.94015866457190        2.32507612978117        1.99963334270513
H           -2.31832367771757        3.55432583400225        3.09931377036630
H           -4.42704412110645        5.67791287309480        2.59492235606317
H           -3.60273625146552        6.52988468911128        1.27890115961563
H           -2.70331487471934        5.96656783451882        2.69718604026357
H           -5.83409938460063        5.42367568127968        0.96874937764065
H           -7.50849028418390        4.69058431134540       -0.64429356639713
H           -6.98527786904249        2.88924917572123       -2.25228155741815
H           -4.76988736577317        1.81059286378993       -2.20195359762037
H           -4.66625771603050        0.43966347695675       -0.42669552001021
H           -4.22788255727375       -1.95607848081120       -0.26348121245635
H           -4.42592555813682       -8.28692304996509       -0.09205690607009
H           -2.12043940091158       -9.17136927291306        0.19505191561613
H           -0.20950891819068       -7.60893955567088        0.32791350976013
H            2.21632447655848        1.45584195255227        1.91646128758470
H            2.07883291417441        3.90649091453996        1.69606846725584
H            3.53173552963923        5.07313628163996        0.07328505542271
H            5.09895627714499        3.81280258761788       -1.30414996016130

 projected vibrational frequencies (cm⁻¹)
eigval :       -0.00    -0.00     0.00     0.00     0.00     0.00
eigval :       11.85    17.01    19.71    23.63    40.25    43.40
eigval :       45.33    52.83    60.96    77.85    83.92    86.01
eigval :       88.79    90.67   110.74   136.58   137.64   138.47
eigval :      146.37   154.81   163.01   170.86   179.40   184.09
eigval :      190.44   191.63   207.30   215.09   223.63   226.07
eigval :      232.39   249.21   283.75   285.72   287.29   296.02
eigval :      302.83   306.27   317.45   325.29   326.93   331.93
eigval :      346.31   349.57   357.02   357.87   384.72   387.58
eigval :      394.86   403.49   404.68   408.05   411.84   414.84
eigval :      425.59   435.12   451.18   454.14   457.24   458.51
eigval :      463.38   482.98   489.55   495.56   500.36   501.56
eigval :      511.41   518.83   535.63   546.28   549.31   559.15
eigval :      560.32   572.06   574.38   574.50   583.81   591.34
eigval :      593.06   598.15   602.78   612.55   631.17   638.93
eigval :      649.90   657.33   666.59   686.84   693.06   693.33
eigval :      697.60   709.47   711.39   724.94   725.06   737.06
eigval :      743.48   771.06   777.69   777.85   783.26   783.80
eigval :      808.73   810.33   811.30   812.89   816.32   839.51
eigval :      842.89   847.28   854.24   885.27   885.74   888.22
eigval :      890.65   892.59   893.61   906.78   907.49   910.44
eigval :      911.12   916.96   918.43   919.79   920.22   936.21
eigval :      937.32   940.51   940.97   943.01   943.94   952.40
eigval :      966.78   968.45  1004.13  1010.00  1010.08  1021.55
eigval :     1048.52  1073.58  1074.02  1075.70  1082.34  1090.72
eigval :     1095.86  1100.79  1100.84  1107.76  1108.14  1138.71
eigval :     1139.39  1152.32  1152.90  1158.02  1165.62  1168.17
eigval :     1176.02  1176.81  1183.58  1184.30  1190.23  1190.94
eigval :     1195.77  1197.29  1213.90  1229.81  1230.61  1232.36
eigval :     1234.41  1248.09  1255.26  1257.55  1258.83  1261.24
eigval :     1269.45  1270.21  1275.21  1275.72  1292.36  1293.99
eigval :     1303.41  1308.80  1319.72  1321.50  1326.47  1328.12
eigval :     1328.82  1332.41  1340.19  1356.80  1371.04  1376.19
eigval :     1399.06  1399.19  1408.50  1415.56  1415.68  1420.44
eigval :     1432.69  1437.45  1439.95  1440.30  1440.63  1444.56
eigval :     1454.37  1454.82  1469.32  1474.35  1479.04  1482.65
eigval :     1485.69  1493.23  1493.47  1495.76  1495.98  1507.83
eigval :     1508.10  1511.23  1523.54  1523.58  1530.44  1541.41
eigval :     1549.06  1574.97  1575.02  1581.64  1582.90  1583.48
eigval :     1586.19  1588.43  1588.51  1598.96  1599.49  3025.59
eigval :     3025.75  3028.57  3028.84  3030.70  3030.81  3034.13
eigval :     3034.15  3045.17  3045.24  3054.86  3055.09  3080.68
eigval :     3081.09  3081.37  3081.78  3086.27  3087.94  3088.29
eigval :     3088.63  3093.54  3094.98  3095.11  3096.55  3096.98
eigval :     3097.60  3097.83  3104.74  3109.71  3109.76  3110.98
eigval :     3111.16  3111.48  3112.83  3117.23  3125.95  3139.05

   temp. (K)  partition function   enthalpy   heat capacity  entropy
                                   cal/mol     cal/K/mol   cal/K/mol   J/K/mol
 298.15  VIB  0.159E+19            25994.340    170.059    157.319
         ROT  0.120E+09              888.752      2.981     39.944
         INT  0.190E+27            26883.092    173.040    197.264
         TR   0.184E+29             1481.254      4.968     45.552
         TOT                       28364.3460   178.0081   242.8158  1015.9414

       T/K    H(0)-H(T)+PV         H(T)/Eh          T*S/Eh         G(T)/Eh
   ------------------------------------------------------------------------
    298.15    0.452015E-01    0.761270E+00    0.115370E+00    0.645900E+00
   ------------------------------------------------------------------------

         :::::::::::::::::::::::::::::::::::::::::::::::::::::
         ::                  THERMODYNAMIC                  ::
         :::::::::::::::::::::::::::::::::::::::::::::::::::::
         :: total free energy        -141.782422103356 Eh   ::
         ::.................................................::
         :: total energy             -142.428322053220 Eh   ::
         :: zero point energy           0.716068119748 Eh   ::
         :: G(RRHO) w/o ZPVE           -0.070168169884 Eh   ::
         :: G(RRHO) contrib.            0.645899949864 Eh   ::
         :::::::::::::::::::::::::::::::::::::::::::::::::::::

           -------------------------------------------------
          | TOTAL ENERGY             -142.428322053220 Eh   |
          | TOTAL ENTHALPY           -141.667052470900 Eh   |
          | TOTAL FREE ENERGY        -141.782422103356 Eh   |
          | GRADIENT NORM               0.000087705458 Eh/α |
           -------------------------------------------------

 * finished run on 2025/09/09 at 11:03:35.731
