   * xtb version 6.7.1 (edcfbbe) compiled by 'albert@albert-system' on 2024-07-22

   ID    Z sym.   atoms
    1    6 C      1-9, 11-19, 21-39, 41, 42, 44-47, 49-55
    2    7 N      10, 20, 40, 48
    3    9 F      43
    4    1 H      56-92

          program call               : xtb data2507/gas/2DMAC-BP-F/2DMAC-BP-F_gas_S0_crest.xyz --gfn 2 --ohess vtight --parallel 40 --molden --ceasefiles --namespace data2507/gas/2DMAC-BP-F/2DMAC-BP-F_gas_S0_finalOpt
          :  Hamiltonian                  GFN2-xTB          :
 * total energy  :  -142.4746621 Eh     change       -0.1311491E-08 Eh
 * total energy  :  -142.4746634 Eh     change       -0.1319054E-05 Eh
 * total energy  :  -142.4746643 Eh     change       -0.9307227E-06 Eh
 * total energy  :  -142.4746655 Eh     change       -0.1181815E-05 Eh
 * total energy  :  -142.4746671 Eh     change       -0.1532297E-05 Eh
 * total energy  :  -142.4746686 Eh     change       -0.1579803E-05 Eh
 * total energy  :  -142.4746697 Eh     change       -0.1023843E-05 Eh
 * total energy  :  -142.4746704 Eh     change       -0.6940772E-06 Eh
 * total energy  :  -142.4746711 Eh     change       -0.7843081E-06 Eh
 * total energy  :  -142.4746721 Eh     change       -0.9180380E-06 Eh
 * total energy  :  -142.4746734 Eh     change       -0.3861615E-06 Eh
 * total energy  :  -142.4746737 Eh     change       -0.2643563E-06 Eh
 * total energy  :  -142.4746738 Eh     change       -0.1497741E-06 Eh
 * total energy  :  -142.4746740 Eh     change       -0.1727227E-06 Eh
 * total energy  :  -142.4746741 Eh     change       -0.1517167E-06 Eh
 * total energy  :  -142.4746743 Eh     change       -0.1270468E-06 Eh
 * total energy  :  -142.4746744 Eh     change       -0.1124902E-06 Eh
 * total energy  :  -142.4746745 Eh     change       -0.1172216E-06 Eh
 * total energy  :  -142.4746745 Eh     change       -0.1840334E-08 Eh
   *** GEOMETRY OPTIMIZATION CONVERGED AFTER 22 ITERATIONS ***

 final structure:
================
92
 xtb: 6.7.1 (edcfbbe)
C            6.52775758212313        1.84323737290394       -2.05944435806636
C            5.44439425614126        1.02790467277193       -1.35431762198759
C            4.63249766966399        0.27895527825256       -2.43055807168144
C            6.01987474350901        0.01815389804381       -0.37649413690063
C            7.35673916162070       -0.34160804440244       -0.31551468942126
C            7.80276851631276       -1.26409091085802        0.61616144972691
C            6.91955734984486       -1.81672709317346        1.52621141342539
C            5.58435277984475       -1.46159279075576        1.49123998862047
C            5.12820919852737       -0.57375126663474        0.52441591929988
N            3.78234247372299       -0.15783117465360        0.49404523030178
C            2.71440547429787       -1.03055133209242        0.39494064299064
C            2.90565412607205       -2.42276039616746        0.40131515785525
C            1.82961913076857       -3.26551898759216        0.30410679234729
C            0.52380537745088       -2.77907906834093        0.18515842847522
C            0.31492390403246       -1.38777036057885        0.10720439933491
C            1.42165048141492       -0.54851916979932        0.19605710365235
C           -1.03680605274810       -0.86937327849977       -0.07131107803626
C           -1.29914106947214        0.49371583501869       -0.17261149519684
C           -2.58396194465387        0.99646213931771       -0.37277894194433
N           -2.79528628749761        2.35815793129133       -0.48808877102721
C           -1.76794682042733        3.31602593285277       -0.37840797753538
C           -0.64947260602142        3.26910817458107       -1.20323341371351
C            0.31836067398949        4.25065666022911       -1.11156508522906
C            0.15524757309170        5.29443036034864       -0.21826859037130
C           -0.97860459142696        5.36462371032786        0.57317514214538
C           -1.95390917421018        4.38184203339870        0.50813223290766
C           -3.23097779990013        4.38035707719604        1.33000322117915
C           -3.12320258492606        3.29805898836105        2.42332174678107
C           -3.48863764576192        5.72220309028889        2.01464672882818
C           -4.33820583547088        3.99842923663511        0.36295144668951
C           -5.57341963803788        4.62322678504155        0.29772055179766
C           -6.52590566902834        4.22035999850328       -0.62334663445666
C           -6.24213389277524        3.20501256467499       -1.51899246244444
C           -5.01130617289801        2.57763667902075       -1.47982860782207
C           -4.07454806974948        2.94807847772275       -0.52257478900463
C           -3.65691583083537        0.08882196100519       -0.36396824338779
C           -3.42016665236529       -1.25636318328953       -0.25487127293012
C           -2.12240473626990       -1.76471828771086       -0.13747946612599
C           -1.91160690377797       -3.18560389480383       -0.05125880419050
N           -2.95051058369002       -3.99529382856193       -0.12159988696057
C           -2.72250869154515       -5.31353455559254       -0.04248996433366
C           -3.78574633569316       -6.24136946391759       -0.11048341693517
F           -5.04423520890623       -5.78173896996406       -0.25381921378621
C           -3.56764671054003       -7.58818840873885       -0.03516894714785
C           -2.25909943043913       -8.07612097882938        0.11410398455473
C           -1.19483321949409       -7.22235086221258        0.18623770560245
C           -1.40035016358276       -5.82945500379403        0.11058381382175
N           -0.35226386491947       -4.99457070406486        0.18396413990903
C           -0.58267937650256       -3.69723913324535        0.10760230506060
C            3.65791661380182        1.23986172232397        0.36480459496216
C            2.80108111130197        1.96456011515869        1.18576539585784
C            2.73706729719934        3.34012050377516        1.07469865370686
C            3.54944753649574        3.99407326571643        0.16562059230434
C            4.43329422036148        3.27673262691779       -0.62250564215809
C            4.50190802174791        1.89489664725019       -0.53788443683136
H            7.17252434116092        1.18718439700519       -2.63892676818450
H            6.07512008704768        2.54643834431655       -2.75425742428966
H            7.13309448117767        2.39269050481579       -1.34185970687564
H            3.83896987773066       -0.32117690210859       -1.99416376119327
H            4.18242869454102        0.99352187322180       -3.11682891938487
H            5.28866027722073       -0.38097969272965       -2.99428894773040
H            8.06964271518459        0.09224284157886       -0.99773799746388
H            8.84670536525146       -1.53822940983351        0.63953598289239
H            7.27037545774930       -2.51274107219156        2.27320611011538
H            4.89544391999784       -1.85354591181359        2.22421666941227
H            3.89991445681306       -2.83561631540448        0.45345208341132
H            1.96785492284594       -4.33511632944611        0.31313114297135
H            1.28860674506069        0.51342465579196        0.08531821095489
H           -0.49034985558260        1.19617383929496       -0.07159759317838
H           -0.55361953827979        2.47449655602553       -1.92805815998849
H            1.19104585159127        4.20547934004720       -1.74525732432459
H            0.90522473298398        6.06748226191610       -0.14626103931153
H           -1.09099690012174        6.19936800749086        1.24604612645725
H           -4.04970328970640        3.25551667646960        2.99216380388920
H           -2.93706253116637        2.31430008211115        2.00162109096424
H           -2.30735083407227        3.53905307781073        3.10194852050813
H           -4.40424606077932        5.67467166775528        2.59885469536386
H           -3.57472192104756        6.52375156917964        1.28431822481637
H           -2.67898420709424        5.95389671137438        2.70236717134521
H           -5.81081527520868        5.43298180470833        0.96842505013138
H           -7.48596979784276        4.71337406605999       -0.64987802332500
H           -6.97158476010744        2.90972388578739       -2.25798628380756
H           -4.76424469081541        1.81437169792855       -2.20215912827158
H           -4.67259443150204        0.44570577540332       -0.41455164573016
H           -4.23774079341503       -1.95980783026262       -0.25388863845033
H           -4.40433044952881       -8.26692069209037       -0.09132231124253
H           -2.10649457128869       -9.14327792573327        0.17150212251736
H           -0.18403598503562       -7.58061453631044        0.30126123331574
H            2.20384343710563        1.44828330675392        1.92246232120029
H            2.06271660933573        3.89923461322764        1.70537267864153
H            3.50808779331502        5.06919129681425        0.07839457619476
H            5.06969192051148        3.81240194617919       -1.30823301986167

          :  Hamiltonian                  GFN2-xTB          :
         :: gradient norm              0.000026627972 Eh/a0 ::
         :: HOMO-LUMO gap              1.356313990340 eV    ::
         :: SCC energy              -144.970395439642 Eh    ::
         :: -> dispersion             -0.140060566623 Eh    ::
         :: repulsion energy           2.495720943317 Eh    ::

    * Orbital Energies and Occupations

         #    Occupation            Energy/Eh            Energy/eV
      -------------------------------------------------------------
         1        2.0000           -0.8021932             -21.8288
       ...           ...                  ...                  ...
       120        2.0000           -0.4053416             -11.0299
       121        2.0000           -0.4040877             -10.9958
       122        2.0000           -0.4030902             -10.9686
       123        2.0000           -0.4025853             -10.9549
       124        2.0000           -0.4017897             -10.9333
       125        2.0000           -0.4001303             -10.8881
       126        2.0000           -0.3994165             -10.8687
       127        2.0000           -0.3939343             -10.7195
       128        2.0000           -0.3906103             -10.6290
       129        2.0000           -0.3825764             -10.4104
       130        2.0000           -0.3557535              -9.6805
       131        2.0000           -0.3505837              -9.5399
       132        2.0000           -0.3387047              -9.2166 (HOMO)
       133                         -0.2888611              -7.8603 (LUMO)
       134                         -0.2551700              -6.9435
       135                         -0.2435882              -6.6284
       136                         -0.2330674              -6.3421
       137                         -0.2315094              -6.2997
       138                         -0.2304276              -6.2703
       139                         -0.2270862              -6.1793
       140                         -0.2263662              -6.1597
       141                         -0.2254356              -6.1344
       142                         -0.2240717              -6.0973
       143                         -0.2225140              -6.0549
       ...                                ...                  ...
       257                          0.7272029              19.7882
      -------------------------------------------------------------
                  HL-Gap            0.0498436 Eh            1.3563 eV

     #   Z          covCN         q      C6AA      α(0)
     1   6 C        3.759    -0.106    22.580     6.775
     2   6 C        3.911     0.023    20.129     6.377
     3   6 C        3.762    -0.098    22.425     6.751
     4   6 C        2.988    -0.008    28.204     8.711
     5   6 C        2.923    -0.038    28.952     8.824
     6   6 C        2.919    -0.037    28.923     8.819
     7   6 C        2.920    -0.033    28.827     8.805
     8   6 C        2.920    -0.046    29.137     8.852
     9   6 C        2.951     0.057    26.729     8.480
    10   7 N        2.754    -0.070    22.592     7.059
    11   6 C        2.909     0.068    26.475     8.437
    12   6 C        2.920    -0.058    29.430     8.896
    13   6 C        2.922    -0.029    28.715     8.788
    14   6 C        2.987    -0.015    28.375     8.738
    15   6 C        2.976     0.006    27.880     8.661
    16   6 C        2.928    -0.067    29.659     8.931
    17   6 C        2.976     0.005    27.896     8.664
    18   6 C        2.928    -0.067    29.659     8.931
    19   6 C        2.909     0.068    26.474     8.437
    20   7 N        2.754    -0.070    22.589     7.059
    21   6 C        2.951     0.057    26.728     8.479
    22   6 C        2.920    -0.046    29.145     8.853
    23   6 C        2.919    -0.033    28.811     8.802
    24   6 C        2.919    -0.036    28.907     8.817
    25   6 C        2.922    -0.039    28.964     8.826
    26   6 C        2.988    -0.008    28.204     8.712
    27   6 C        3.911     0.023    20.129     6.377
    28   6 C        3.762    -0.098    22.425     6.751
    29   6 C        3.759    -0.106    22.579     6.774
    30   6 C        2.988    -0.008    28.206     8.712
    31   6 C        2.923    -0.038    28.953     8.824
    32   6 C        2.919    -0.037    28.921     8.819
    33   6 C        2.920    -0.033    28.820     8.804
    34   6 C        2.920    -0.046    29.133     8.851
    35   6 C        2.951     0.057    26.730     8.480
    36   6 C        2.920    -0.057    29.414     8.894
    37   6 C        2.922    -0.028    28.704     8.786
    38   6 C        2.988    -0.014    28.356     8.735
    39   6 C        2.963     0.083    26.138     8.386
    40   7 N        1.847    -0.233    26.952     7.694
    41   6 C        2.966     0.066    26.525     8.448
    42   6 C        2.779     0.156    24.607     8.125
    43   9 F        0.787    -0.212    11.361     3.982
    44   6 C        2.914    -0.055    29.357     8.885
    45   6 C        2.919    -0.032    28.791     8.799
    46   6 C        2.916    -0.048    29.203     8.862
    47   6 C        2.966     0.077    26.271     8.407
    48   7 N        1.848    -0.245    27.247     7.736
    49   6 C        2.959     0.084    26.122     8.383
    50   6 C        2.951     0.057    26.729     8.480
    51   6 C        2.920    -0.046    29.141     8.853
    52   6 C        2.919    -0.032    28.807     8.801
    53   6 C        2.919    -0.036    28.901     8.816
    54   6 C        2.922    -0.039    28.963     8.825
    55   6 C        2.988    -0.008    28.204     8.712
    56   1 H        0.925     0.041     2.440     2.443
    57   1 H        0.925     0.040     2.447     2.446
    58   1 H        0.925     0.038     2.474     2.460
    59   1 H        0.925     0.038     2.479     2.462
    60   1 H        0.925     0.038     2.480     2.463
    61   1 H        0.925     0.038     2.470     2.458
    62   1 H        0.926     0.039     2.462     2.454
    63   1 H        0.926     0.033     2.548     2.496
    64   1 H        0.926     0.034     2.526     2.485
    65   1 H        0.926     0.040     2.447     2.446
    66   1 H        0.926     0.037     2.488     2.467
    67   1 H        0.926     0.057     2.232     2.336
    68   1 H        0.926     0.037     2.483     2.464
    69   1 H        0.926     0.037     2.491     2.468
    70   1 H        0.926     0.038     2.472     2.459
    71   1 H        0.926     0.032     2.560     2.502
    72   1 H        0.926     0.031     2.566     2.505
    73   1 H        0.926     0.039     2.468     2.456
    74   1 H        0.925     0.039     2.466     2.456
    75   1 H        0.925     0.038     2.477     2.461
    76   1 H        0.925     0.037     2.485     2.465
    77   1 H        0.925     0.041     2.439     2.442
    78   1 H        0.925     0.038     2.476     2.460
    79   1 H        0.925     0.040     2.450     2.448
    80   1 H        0.926     0.039     2.464     2.455
    81   1 H        0.926     0.033     2.547     2.496
    82   1 H        0.926     0.035     2.518     2.481
    83   1 H        0.926     0.041     2.439     2.442
    84   1 H        0.926     0.038     2.469     2.457
    85   1 H        0.926     0.063     2.167     2.302
    86   1 H        0.926     0.057     2.239     2.340
    87   1 H        0.926     0.045     2.388     2.417
    88   1 H        0.926     0.055     2.257     2.349
    89   1 H        0.926     0.038     2.470     2.458
    90   1 H        0.926     0.032     2.553     2.499
    91   1 H        0.926     0.032     2.560     2.502
    92   1 H        0.926     0.039     2.465     2.455

molecular dipole:
                 x           y           z       tot (Debye)
 q only:        1.562       2.036       0.062
   full:        1.562       1.947       0.065       6.347

 projected vibrational frequencies (cm⁻¹)
eigval :       -0.00    -0.00     0.00     0.00     0.00     0.00
eigval :       11.97    17.29    19.70    23.09    35.02    43.91
eigval :       45.41    55.00    61.21    75.77    81.65    88.12
eigval :       90.12    90.49   115.79   136.57   138.02   138.52
eigval :      146.33   157.40   166.24   173.32   181.93   186.97
eigval :      189.87   191.77   207.00   218.28   225.44   229.43
eigval :      233.34   249.89   284.95   286.57   288.46   297.90
eigval :      307.78   312.63   322.27   329.87   333.18   346.03
eigval :      349.93   357.06   358.13   362.70   386.78   390.38
eigval :      395.72   404.89   405.55   408.41   411.76   415.21
eigval :      431.22   437.49   444.78   454.99   456.70   459.13
eigval :      466.70   484.53   499.00   500.50   501.62   512.87
eigval :      513.70   531.14   547.41   550.10   558.51   560.56
eigval :      566.68   572.63   574.68   578.66   585.15   592.61
eigval :      594.22   602.78   610.29   638.43   641.98   651.19
eigval :      668.51   678.22   691.73   693.23   693.79   704.90
eigval :      711.80   724.77   725.23   725.29   741.89   745.17
eigval :      763.67   778.03   778.28   784.33   784.51   801.03
eigval :      809.39   810.23   811.35   820.21   823.10   849.24
eigval :      850.17   858.21   882.88   886.82   887.21   888.60
eigval :      891.16   903.92   908.36   909.24   913.85   914.64
eigval :      917.59   917.96   919.29   922.32   923.17   936.17
eigval :      938.50   942.26   943.12   944.21   944.44   961.69
eigval :      967.02   969.82  1005.72  1010.33  1010.34  1035.90
eigval :     1058.21  1073.98  1074.18  1079.93  1082.80  1089.98
eigval :     1100.14  1100.61  1102.33  1107.81  1108.29  1138.85
eigval :     1139.51  1152.47  1153.10  1160.16  1166.08  1170.03
eigval :     1176.16  1177.22  1183.56  1184.27  1190.44  1190.94
eigval :     1194.65  1199.01  1219.11  1230.76  1231.62  1235.18
eigval :     1242.35  1257.85  1258.83  1266.39  1269.34  1269.68
eigval :     1275.15  1275.93  1282.97  1292.09  1296.54  1304.74
eigval :     1315.05  1319.88  1322.35  1327.76  1328.07  1328.38
eigval :     1337.17  1340.63  1344.13  1357.81  1385.59  1398.50
eigval :     1399.78  1399.95  1415.27  1416.93  1417.09  1437.83
eigval :     1439.74  1440.45  1444.05  1449.80  1451.43  1455.11
eigval :     1455.93  1466.75  1475.87  1480.57  1490.92  1493.72
eigval :     1493.80  1494.25  1496.17  1496.77  1498.90  1508.42
eigval :     1508.55  1524.12  1524.17  1529.65  1543.74  1546.42
eigval :     1576.22  1576.31  1582.90  1584.16  1584.97  1589.14
eigval :     1589.44  1590.93  1600.08  1601.64  1604.23  3025.69
eigval :     3025.97  3029.18  3029.35  3031.00  3031.10  3034.49
eigval :     3034.52  3045.55  3045.80  3055.68  3055.78  3081.14
eigval :     3081.21  3081.65  3081.97  3086.17  3088.02  3088.24
eigval :     3088.47  3088.84  3096.80  3097.30  3097.88  3098.01
eigval :     3104.07  3104.48  3105.89  3108.68  3109.87  3110.13
eigval :     3111.10  3111.29  3114.92  3116.08  3125.10  3138.57

   temp. (K)  partition function   enthalpy   heat capacity  entropy
                                   cal/mol     cal/K/mol   cal/K/mol   J/K/mol
 298.15  VIB  0.129E+19            25778.665    168.710    156.004
         ROT  0.119E+09              888.752      2.981     39.933
         INT  0.154E+27            26667.418    171.690    195.938
         TR   0.184E+29             1481.254      4.968     45.552
         TOT                       28148.6716   176.6586   241.4897  1010.3928

       T/K    H(0)-H(T)+PV         H(T)/Eh          T*S/Eh         G(T)/Eh
   ------------------------------------------------------------------------
    298.15    0.448578E-01    0.763457E+00    0.114740E+00    0.648718E+00
   ------------------------------------------------------------------------

         :::::::::::::::::::::::::::::::::::::::::::::::::::::
         ::                  THERMODYNAMIC                  ::
         :::::::::::::::::::::::::::::::::::::::::::::::::::::
         :: total free energy        -141.825956765718 Eh   ::
         ::.................................................::
         :: total energy             -142.474674496324 Eh   ::
         :: zero point energy           0.718599507119 Eh   ::
         :: G(RRHO) w/o ZPVE           -0.069881776512 Eh   ::
         :: G(RRHO) contrib.            0.648717730607 Eh   ::
         :::::::::::::::::::::::::::::::::::::::::::::::::::::

           -------------------------------------------------
          | TOTAL ENERGY             -142.474674496324 Eh   |
          | TOTAL ENTHALPY           -141.711217225753 Eh   |
          | TOTAL FREE ENERGY        -141.825956765718 Eh   |
          | GRADIENT NORM               0.000026626945 Eh/α |
          | HOMO-LUMO GAP               1.356314059376 eV   |
           -------------------------------------------------

 * finished run on 2025/09/09 at 11:03:25.995
