   * xtb version 6.7.1 (edcfbbe) compiled by 'albert@albert-system' on 2024-07-22

   ID    Z sym.   atoms
    1    6 C      1-5, 7-13, 15-19, 21-28, 30-46, 48-60, 62, 63
    2    7 N      6, 14, 20, 61
    3   16 S      29, 47
    4    1 H      64-97

          program call               : xtb data2507/toluene/BDBTCz-Trz/BDBTCz-Trz_toluene_S0_finalOpt.xtbopt.xyz --gfn 2 --uhf 2 --gbsa toluene --ohess vtight --parallel 40 --molden --ceasefiles --namespace data2507/toluene/BDBTCz-Trz/BDBTCz-Trz_toluene_T1_preOpt
      * Solvation model:               GBSA
        Solvent                        toluene
        Solvent mass                       9.2140E+01 g/mol
          :  Hamiltonian                  GFN2-xTB          :
 * total energy  :  -157.6728201 Eh     change       -0.1329890E-06 Eh
 * total energy  :  -157.6746865 Eh     change       -0.1866400E-02 Eh
 * total energy  :  -157.6756063 Eh     change       -0.9197906E-03 Eh
 * total energy  :  -157.6757609 Eh     change       -0.1546050E-03 Eh
 * total energy  :  -157.6759134 Eh     change       -0.1525347E-03 Eh
 * total energy  :  -157.6759425 Eh     change       -0.2911117E-04 Eh
 * total energy  :  -157.6759552 Eh     change       -0.1272459E-04 Eh
 * total energy  :  -157.6759584 Eh     change       -0.3147204E-05 Eh
 * total energy  :  -157.6759623 Eh     change       -0.3961479E-05 Eh
 * total energy  :  -157.6759672 Eh     change       -0.4816855E-05 Eh
 * total energy  :  -157.6760102 Eh     change       -0.5023172E-06 Eh
 * total energy  :  -157.6760109 Eh     change       -0.6680260E-06 Eh
 * total energy  :  -157.6760116 Eh     change       -0.7268178E-06 Eh
 * total energy  :  -157.6760121 Eh     change       -0.5564813E-06 Eh
 * total energy  :  -157.6760124 Eh     change       -0.2251644E-06 Eh
 * total energy  :  -157.6760125 Eh     change       -0.1655496E-06 Eh
 * total energy  :  -157.6760127 Eh     change       -0.1132117E-06 Eh
 * total energy  :  -157.6760128 Eh     change       -0.1137384E-06 Eh
 * total energy  :  -157.6760128 Eh     change       -0.7601983E-08 Eh
   *** GEOMETRY OPTIMIZATION CONVERGED AFTER 44 ITERATIONS ***

 final structure:
================
97
 xtb: 6.7.1 (edcfbbe)
C           -9.72836002595634       -3.06543348011585       -3.57935095858010
C          -10.43590243576997       -2.20172543228533       -2.75656747683595
C           -9.76539161005270       -1.37366970158134       -1.87818825173517
C           -8.37111452541098       -1.39945072561157       -1.81104862607483
C           -7.66198207188982       -0.52721451555069       -0.88075616147160
N           -8.39671330226943        0.30093921937307       -0.10946630430205
C           -7.70472403711931        1.08098533656233        0.74601689937561
C           -8.45867897425714        1.99687244469037        1.59599228981718
C           -7.79996360462298        2.80885887091756        2.52160725451271
C           -8.51689254247894        3.67409265093665        3.32289467411776
C           -9.89857292434190        3.74450482904019        3.21327099876429
C          -10.56029483694188        2.94191267306518        2.29595912837399
C           -9.84860596106372        2.07398357050505        1.49146344896422
N           -6.39967787150468        1.05406681609758        0.85492858693671
C           -5.70519921365273        0.21286064782770        0.04752420092503
C           -4.28885498031596        0.16785818076227        0.13050383694133
C           -3.53681452519343       -0.69335697658212       -0.70028979859323
C           -2.17036662772152       -0.73455794383643       -0.61989733875691
C           -1.48850070159508        0.08069198458385        0.29520880790749
N           -0.09164176865710        0.03752329039001        0.37813276614607
C            0.74936882616631        1.12659611825280        0.36201583692154
C            0.45348728682583        2.47789631082986        0.21822933165706
C            1.50135285463218        3.37412667783324        0.21206255505716
C            2.83689528906912        2.96231671211463        0.34642225820136
C            3.91905501344031        3.95169117169643        0.34445596293840
C            5.01598849511288        3.80005810046963        1.20572789343748
C            6.04574281124606        4.71613427106845        1.22624049185788
C            5.98892435595578        5.80105917137637        0.36395386576601
S            7.18742959570845        7.06522639781126        0.21977915342605
C            6.24213897606653        7.85194708295789       -1.03141586618536
C            6.58571973372192        9.02050690379265       -1.69038751094730
C            5.72364953216192        9.50870523309376       -2.65492356658478
C            4.54081186661473        8.84007567120201       -2.95499857501063
C            4.20113746134403        7.67477265450048       -2.29673304842853
C            5.05242781237895        7.16342651006499       -1.32162868840870
C            4.90429310685764        5.97757083100354       -0.51415999250829
C            3.87302276521745        5.04881822060129       -0.51027970602463
C            3.12887257638415        1.60274274173683        0.46869585604678
C            2.09370667652624        0.68788068077707        0.46512893956255
C            2.04331300495591       -0.74975812105191        0.54531848687562
C            3.01131946703265       -1.72759687518083        0.66967741671556
C            2.62266497653677       -3.06665766207564        0.73831294359305
C            3.62990651921078       -4.12534590792593        0.85476049576604
C            4.77467236697290       -3.93295756997227        1.64287536544314
C            5.73287845422480       -4.91533237711490        1.77068704670024
C            5.55376431190827       -6.11270858147413        1.09387344020863
S            6.64357652167415       -7.47856224991693        1.11384365150045
C            5.58282867287990       -8.37156354114386        0.03910264636969
C            5.80380726559634       -9.65489241154683       -0.43205581095747
C            4.86394318633686      -10.21536048613868       -1.27731235102021
C            3.72445182777410       -9.50545129944651       -1.64313608576794
C            3.50654965649449       -8.22622307139169       -1.17096231932381
C            4.43808741064317       -7.64014802640670       -0.31901421560772
C            4.41902266841103       -6.33380032772490        0.29246085955859
C            3.46250613983164       -5.33418258856554        0.18509479425205
C            1.25689781927184       -3.39288411859169        0.70469910391017
C            0.27544539886878       -2.43139097820721        0.59129822449989
C            0.67111552037756       -1.10181115959354        0.48920527842965
C           -2.22106187822635        0.93912479148625        1.12797532031041
C           -3.58721959885038        0.98378253106027        1.04684985382551
N           -6.35394808587273       -0.58454031929857       -0.83802360510919
C           -7.66624107652586       -2.27248991413267       -2.64242706770012
C           -8.34222856089833       -3.09772464522167       -3.51806541153422
H          -10.25499671699297       -3.71203408286140       -4.26566337548578
H          -11.51510288140681       -2.17503893542268       -2.80189892153480
H          -10.30181819518741       -0.69674064259432       -1.23089684749902
H           -6.72508718613970        2.74275665599855        2.59550177903818
H           -7.99968037895021        4.29851498994231        4.03703349672485
H          -10.45733712018159        4.42237853608222        3.84151487770686
H          -11.63591974602409        2.99525931687489        2.20871938401170
H          -10.34877595577478        1.44432013533652        0.77148754756018
H           -4.06876099321141       -1.30897388216115       -1.40913720050526
H           -1.60383865104432       -1.37228673673920       -1.28288983911934
H           -0.56503218123934        2.81632998717265        0.10791705723519
H            1.28645881556879        4.42826568835533        0.12432010731095
H            5.04067086868519        2.96259559936548        1.88605417321886
H            6.88042391004935        4.59862215180285        1.90007453273580
H            7.50490198687936        9.53332852871832       -1.45203354195004
H            5.97272640610660       10.41863880253229       -3.17987559629298
H            3.88204289679764        9.23871367494539       -3.71204114148171
H            3.28317094921530        7.15871664752777       -2.53358641973127
H            3.04787482454374        5.16671713324379       -1.19547941777452
H            4.15272222881250        1.26820009734353        0.53130370211726
H            4.05625312120755       -1.45994199143267        0.68700925995918
H            4.89471134343634       -3.00659508216520        2.18323674534259
H            6.60552178097530       -4.76355798615636        2.38714526468405
H            6.68995732681128      -10.19872166859420       -0.14283885916423
H            5.01753178031332      -11.21461333067698       -1.65616395419157
H            3.00333960402662       -9.96183086877641       -2.30480076623950
H            2.62129648544901       -7.67930050418077       -1.45767014970410
H            2.59977249816092       -5.48907903364939       -0.44413429885776
H            0.96521154328980       -4.42736344170993        0.80396695322299
H           -0.76916326719753       -2.70179085516306        0.59889981722132
H           -1.69778697451998        1.54247290122581        1.85553810050001
H           -4.15920141495062        1.63355672311553        1.69107247689638
H           -6.58849249979808       -2.28622813064450       -2.58371092038088
H           -7.78942300957910       -3.77037727516328       -4.15788222174418

          :  Hamiltonian                  GFN2-xTB          :
         :: gradient norm              0.000059078899 Eh/a0 ::
         :: HOMO-LUMO gap              0.163822697699 eV    ::
         :: SCC energy              -160.537446063502 Eh    ::
         :: -> dispersion             -0.137673581635 Eh    ::
         :: -> Gsolv                  -0.079015352771 Eh    ::
         :: repulsion energy           2.861433313708 Eh    ::

    * Orbital Energies and Occupations

         #    Occupation            Energy/Eh            Energy/eV
      -------------------------------------------------------------
         1        2.0000           -0.7322242             -19.9248
       ...           ...                  ...                  ...
       136        2.0000           -0.4079893             -11.1020
       137        2.0000           -0.4036627             -10.9842
       138        2.0000           -0.4017390             -10.9319
       139        2.0000           -0.3991679             -10.8619
       140        2.0000           -0.3960227             -10.7763
       141        2.0000           -0.3947343             -10.7413
       142        2.0000           -0.3920009             -10.6669
       143        2.0000           -0.3815746             -10.3832
       144        2.0000           -0.3760729             -10.2335
       145        1.8478           -0.3680339             -10.0147
       146        1.7694           -0.3675467             -10.0015
       147        1.3828           -0.3659480              -9.9580
       148        0.9596           -0.2824983              -7.6872 (HOMO)
       149        0.0404           -0.2764783              -7.5234 (LUMO)
       150                         -0.2634448              -7.1687
       151                         -0.2624983              -7.1429
       152                         -0.2582012              -7.0260
       153                         -0.2578111              -7.0154
       154                         -0.2498509              -6.7988
       155                         -0.2406113              -6.5474
       156                         -0.2355109              -6.4086
       157                         -0.2345211              -6.3816
       158                         -0.2249464              -6.1211
       159                         -0.2249056              -6.1200
       ...                                ...                  ...
       296                          0.7373572              20.0645
      -------------------------------------------------------------
                  HL-Gap            0.0060200 Eh            0.1638 eV

     #   Z          covCN         q      C6AA      α(0)
     1   6 C        2.920    -0.030    28.756     8.794
     2   6 C        2.917    -0.030    28.760     8.794
     3   6 C        2.924    -0.031    28.763     8.795
     4   6 C        2.983    -0.010    28.268     8.721
     5   6 C        2.934     0.210    23.575     7.963
     6   7 N        1.843    -0.346    29.832     8.094
     7   6 C        2.934     0.210    23.569     7.962
     8   6 C        2.983    -0.010    28.267     8.721
     9   6 C        2.923    -0.031    28.776     8.797
    10   6 C        2.918    -0.031    28.763     8.795
    11   6 C        2.920    -0.030    28.753     8.793
    12   6 C        2.917    -0.030    28.759     8.794
    13   6 C        2.924    -0.030    28.761     8.795
    14   7 N        1.845    -0.303    28.712     7.941
    15   6 C        2.936     0.170    24.335     8.090
    16   6 C        2.977    -0.018    28.455     8.750
    17   6 C        2.921    -0.041    29.015     8.833
    18   6 C        2.915    -0.043    29.072     8.842
    19   6 C        2.913     0.037    27.162     8.546
    20   7 N        2.800    -0.003    21.321     6.858
    21   6 C        3.079     0.045    26.902     8.503
    22   6 C        2.907    -0.041    29.021     8.833
    23   6 C        2.927    -0.036    28.898     8.816
    24   6 C        2.977     0.010    27.787     8.647
    25   6 C        2.975     0.011    27.772     8.644
    26   6 C        2.927    -0.034    28.856     8.809
    27   6 C        2.932    -0.038    28.939     8.822
    28   6 C        3.002     0.038    27.138     8.545
    29  16 S        2.207    -0.085   144.586    20.238
    30   6 C        3.003     0.038    27.133     8.545
    31   6 C        2.935    -0.038    28.936     8.822
    32   6 C        2.923    -0.029    28.731     8.790
    33   6 C        2.918    -0.033    28.821     8.804
    34   6 C        2.917    -0.031    28.779     8.797
    35   6 C        3.102    -0.002    27.952     8.664
    36   6 C        3.101    -0.002    27.940     8.662
    37   6 C        2.922    -0.036    28.896     8.815
    38   6 C        2.916    -0.033    28.813     8.802
    39   6 C        3.062    -0.011    28.232     8.713
    40   6 C        3.062    -0.011    28.233     8.713
    41   6 C        2.916    -0.033    28.812     8.802
    42   6 C        2.976     0.010    27.786     8.647
    43   6 C        2.975     0.011    27.769     8.644
    44   6 C        2.927    -0.034    28.854     8.809
    45   6 C        2.932    -0.038    28.939     8.822
    46   6 C        3.002     0.038    27.138     8.545
    47  16 S        2.207    -0.084   144.539    20.235
    48   6 C        3.003     0.038    27.134     8.545
    49   6 C        2.935    -0.038    28.934     8.822
    50   6 C        2.923    -0.029    28.729     8.790
    51   6 C        2.918    -0.033    28.820     8.803
    52   6 C        2.917    -0.031    28.778     8.797
    53   6 C        3.102    -0.002    27.951     8.663
    54   6 C        3.101    -0.002    27.938     8.662
    55   6 C        2.922    -0.036    28.895     8.815
    56   6 C        2.927    -0.036    28.899     8.816
    57   6 C        2.907    -0.041    29.020     8.833
    58   6 C        3.079     0.045    26.899     8.503
    59   6 C        2.915    -0.043    29.072     8.842
    60   6 C        2.921    -0.041    29.012     8.833
    61   7 N        1.845    -0.303    28.707     7.941
    62   6 C        2.923    -0.031    28.779     8.797
    63   6 C        2.918    -0.031    28.765     8.795
    64   1 H        0.926     0.041     2.440     2.443
    65   1 H        0.926     0.039     2.468     2.457
    66   1 H        0.926     0.041     2.439     2.442
    67   1 H        0.926     0.041     2.441     2.443
    68   1 H        0.926     0.039     2.456     2.451
    69   1 H        0.926     0.041     2.438     2.442
    70   1 H        0.926     0.039     2.466     2.456
    71   1 H        0.926     0.041     2.438     2.442
    72   1 H        0.926     0.037     2.493     2.469
    73   1 H        0.926     0.040     2.448     2.447
    74   1 H        0.926     0.043     2.406     2.426
    75   1 H        0.926     0.045     2.384     2.415
    76   1 H        0.926     0.048     2.342     2.393
    77   1 H        0.926     0.046     2.374     2.410
    78   1 H        0.926     0.043     2.414     2.429
    79   1 H        0.926     0.042     2.417     2.431
    80   1 H        0.926     0.041     2.436     2.441
    81   1 H        0.926     0.044     2.402     2.423
    82   1 H        0.926     0.047     2.353     2.399
    83   1 H        0.926     0.050     2.325     2.385
    84   1 H        0.926     0.050     2.321     2.382
    85   1 H        0.926     0.048     2.339     2.392
    86   1 H        0.926     0.046     2.374     2.409
    87   1 H        0.926     0.043     2.412     2.429
    88   1 H        0.926     0.043     2.415     2.430
    89   1 H        0.926     0.041     2.433     2.439
    90   1 H        0.926     0.044     2.398     2.422
    91   1 H        0.926     0.048     2.348     2.396
    92   1 H        0.926     0.045     2.383     2.414
    93   1 H        0.926     0.043     2.406     2.425
    94   1 H        0.926     0.040     2.450     2.448
    95   1 H        0.926     0.037     2.494     2.469
    96   1 H        0.926     0.040     2.442     2.444
    97   1 H        0.926     0.039     2.457     2.451

molecular dipole:
                 x           y           z       tot (Debye)
 q only:        4.753      -0.231      -0.243
   full:        4.293      -0.224      -0.413      10.977

 projected vibrational frequencies (cm⁻¹)
eigval :       -0.00    -0.00    -0.00     0.00     0.00     0.00
eigval :        8.93    10.45    12.70    13.43    19.88    22.31
eigval :       28.65    31.78    34.52    40.45    43.90    52.29
eigval :       55.63    61.60    73.17    80.05    84.32    94.17
eigval :       99.42   104.57   108.49   114.36   122.12   132.99
eigval :      142.39   147.98   154.05   178.67   180.34   191.27
eigval :      201.47   207.28   215.53   216.53   237.63   239.65
eigval :      248.40   253.36   257.31   271.62   277.49   309.96
eigval :      334.09   350.57   354.21   361.10   368.88   369.67
eigval :      369.96   380.78   381.83   389.00   390.13   393.64
eigval :      399.95   400.95   403.17   407.94   411.14   414.66
eigval :      422.54   425.88   428.88   440.31   450.59   462.77
eigval :      476.41   479.28   486.67   488.52   499.45   508.68
eigval :      549.95   550.64   555.98   559.72   561.71   571.30
eigval :      577.06   582.40   586.09   589.60   592.72   594.17
eigval :      596.23   605.53   605.96   622.16   631.57   640.63
eigval :      653.80   654.69   660.40   663.91   665.43   666.06
eigval :      674.04   690.23   690.73   691.37   692.46   694.42
eigval :      698.15   703.23   708.76   720.12   722.49   762.14
eigval :      764.10   767.59   772.93   774.64   798.80   805.16
eigval :      807.27   812.00   813.26   822.73   832.08   834.37
eigval :      842.76   868.91   869.30   871.15   871.22   872.49
eigval :      873.23   873.70   874.27   895.15   899.16   900.43
eigval :      901.42   907.12   907.27   908.96   909.74   911.62
eigval :      913.35   918.68   921.29   923.96   924.94   925.90
eigval :      926.55   927.07   927.97   928.63   948.01   971.71
eigval :      982.54   983.90   989.56   993.33  1026.55  1042.54
eigval :     1043.15  1058.04  1067.06  1068.37  1073.26  1075.60
eigval :     1076.14  1076.76  1091.66  1093.36  1107.80  1109.07
eigval :     1122.07  1125.83  1135.46  1144.72  1152.07  1153.93
eigval :     1156.73  1162.50  1169.47  1170.27  1176.61  1177.26
eigval :     1178.31  1179.26  1180.80  1188.96  1191.55  1206.19
eigval :     1211.98  1222.07  1224.06  1224.32  1232.67  1233.85
eigval :     1245.25  1250.85  1256.95  1267.11  1268.47  1269.54
eigval :     1273.21  1276.01  1296.79  1302.83  1324.44  1329.11
eigval :     1330.18  1332.12  1332.25  1334.80  1335.16  1340.28
eigval :     1341.60  1345.86  1356.36  1394.38  1395.01  1395.86
eigval :     1403.26  1406.31  1414.43  1417.62  1423.07  1425.75
eigval :     1429.30  1433.27  1435.13  1446.56  1458.53  1461.59
eigval :     1462.75  1465.73  1474.79  1478.75  1479.78  1483.54
eigval :     1536.46  1538.15  1545.41  1548.91  1554.24  1559.46
eigval :     1561.97  1564.82  1567.97  1569.40  1572.10  1581.74
eigval :     1581.76  1581.99  1582.44  1591.56  1595.89  3071.44
eigval :     3071.66  3074.19  3074.79  3075.98  3077.81  3080.03
eigval :     3080.34  3085.87  3086.02  3086.48  3086.73  3087.89
eigval :     3088.24  3088.78  3088.91  3092.66  3092.73  3094.57
eigval :     3094.90  3094.99  3095.15  3095.28  3095.59  3096.90
eigval :     3097.36  3097.55  3099.03  3099.25  3099.53  3099.62
eigval :     3100.08  3100.52  3101.52

   temp. (K)  partition function   enthalpy   heat capacity  entropy
                                   cal/mol     cal/K/mol   cal/K/mol   J/K/mol
 298.15  VIB  0.709E+24            29653.938    185.407    185.245
         ROT  0.450E+09              888.752      2.981     42.578
         INT  0.319E+33            30542.690    188.388    227.823
         TR   0.235E+29             1481.254      4.968     46.038
         TOT                       32023.9441   193.3557   273.8604  1145.8318

       T/K    H(0)-H(T)+PV         H(T)/Eh          T*S/Eh         G(T)/Eh
   ------------------------------------------------------------------------
    298.15    0.510334E-01    0.766607E+00    0.130120E+00    0.636487E+00
   ------------------------------------------------------------------------

         :::::::::::::::::::::::::::::::::::::::::::::::::::::
         ::                  THERMODYNAMIC                  ::
         :::::::::::::::::::::::::::::::::::::::::::::::::::::
         :: total free energy        -157.039526147250 Eh   ::
         ::.................................................::
         :: total energy             -157.676012778385 Eh   ::
         :: zero point energy           0.715573130257 Eh   ::
         :: G(RRHO) w/o ZPVE           -0.079086499122 Eh   ::
         :: G(RRHO) contrib.            0.636486631135 Eh   ::
         :::::::::::::::::::::::::::::::::::::::::::::::::::::

           -------------------------------------------------
          | TOTAL ENERGY             -157.676012778385 Eh   |
          | TOTAL ENTHALPY           -156.909406244792 Eh   |
          | TOTAL FREE ENERGY        -157.039526147250 Eh   |
          | GRADIENT NORM               0.000050371863 Eh/α |
          | HOMO-LUMO GAP               0.163811816533 eV   |
           -------------------------------------------------

 * finished run on 2025/09/03 at 17:14:25.787
