   * xtb version 6.7.1 (edcfbbe) compiled by 'albert@albert-system' on 2024-07-22

   ID    Z sym.   atoms
    1    6 C      1-5, 7-13, 15-19, 21-28, 30-46, 48-60, 62, 63
    2    7 N      6, 14, 20, 61
    3   16 S      29, 47
    4    1 H      64-97

          program call               : xtb data2507/toluene/BDBTCz-Trz/BDBTCz-Trz.xyz --gfn 2 --gbsa toluene --ohess vtight --parallel 40 --molden --ceasefiles --namespace data2507/toluene/BDBTCz-Trz/BDBTCz-Trz_toluene_S0_preOpt
      * Solvation model:               GBSA
        Solvent                        toluene
        Solvent mass                       9.2140E+01 g/mol
          :  Hamiltonian                  GFN2-xTB          :
 * total energy  :  -157.7254350 Eh     change       -0.5521514E-08 Eh
 * total energy  :  -157.7438754 Eh     change       -0.1844046E-01 Eh
 * total energy  :  -157.7491064 Eh     change       -0.5230998E-02 Eh
 * total energy  :  -157.7508809 Eh     change       -0.1774487E-02 Eh
 * total energy  :  -157.7521622 Eh     change       -0.1281261E-02 Eh
 * total energy  :  -157.7526062 Eh     change       -0.4439768E-03 Eh
 * total energy  :  -157.7527932 Eh     change       -0.1870023E-03 Eh
 * total energy  :  -157.7529071 Eh     change       -0.1138871E-03 Eh
 * total energy  :  -157.7530130 Eh     change       -0.1059182E-03 Eh
 * total energy  :  -157.7531159 Eh     change       -0.1028852E-03 Eh
 * total energy  :  -157.7542980 Eh     change       -0.5542333E-06 Eh
 * total energy  :  -157.7542985 Eh     change       -0.5338318E-06 Eh
 * total energy  :  -157.7542990 Eh     change       -0.4811993E-06 Eh
 * total energy  :  -157.7542994 Eh     change       -0.4117201E-06 Eh
 * total energy  :  -157.7542997 Eh     change       -0.3385782E-06 Eh
 * total energy  :  -157.7543000 Eh     change       -0.2670063E-06 Eh
 * total energy  :  -157.7543002 Eh     change       -0.2282342E-06 Eh
 * total energy  :  -157.7543005 Eh     change       -0.2224089E-06 Eh
 * total energy  :  -157.7543005 Eh     change       -0.1663437E-08 Eh
   *** GEOMETRY OPTIMIZATION CONVERGED AFTER 94 ITERATIONS ***

 final structure:
================
97
 xtb: 6.7.1 (edcfbbe)
C           -8.99442179104172       -3.56406678308545       -3.61188765847394
C           -9.77464030851331       -2.73966523893160       -2.81526166659612
C           -9.17656617983966       -1.86387268244695       -1.92967488740925
C           -7.78671529376881       -1.80636260959194       -1.83334572357125
C           -7.15131373736938       -0.87901818444876       -0.89643848681229
N           -7.93729124172654       -0.07820143684759       -0.18059833069284
C           -7.31900117021185        0.75110705426273        0.65678929617959
C           -8.14247468006187        1.65084524354353        1.46522710266463
C           -7.54652152827803        2.51096373254774        2.38683802679716
C           -8.32703475514189        3.35872718448947        3.14907104489053
C           -9.70560162214163        3.35792358237245        2.99902353034563
C          -10.30434000438012        2.50500373950417        2.08409973923531
C           -9.52915510542069        1.65449452400829        1.31941749311904
N           -5.99783911902861        0.81188686747917        0.80371281216094
C           -5.28865037055246       -0.02683932282133        0.05158574216681
C           -3.83390764090601       -0.00115968892667        0.18007367650904
C           -3.04398214611059       -0.86252061563003       -0.58209127610728
C           -1.67122274829086       -0.83947445623296       -0.46549560851782
C           -1.05737562636308        0.04598623612149        0.42199511062769
N            0.33369195122039        0.06982468623465        0.54037497970618
C            1.13253170876040        1.19878862030820        0.50575976261531
C            0.78765693542396        2.52816536861786        0.30729423875388
C            1.80176994078878        3.46408161393284        0.27463405493703
C            3.14900353109339        3.10989697732907        0.42979171748697
C            4.19484153103144        4.14439923932374        0.39358663362867
C            5.26908515727428        4.09004901759570        1.29089129932697
C            6.26707686835849        5.04254385631268        1.27743762963739
C            6.19366683635387        6.06753817429384        0.34833784641431
S            7.35132953784506        7.36807647847502        0.15386239506623
C            6.40883856376855        8.03960817699601       -1.16304234112766
C            6.72401088133117        9.17898331314915       -1.88500990364934
C            5.86896007304029        9.57484682202495       -2.89618556759619
C            4.71896903152190        8.84435808925468       -3.18121935842308
C            4.40752332500495        7.70892482647284       -2.46107507204228
C            5.25276691358133        7.28945121800392       -1.43740134910074
C            5.12828309620553        6.14955599178061       -0.56380408007949
C            4.13276015064497        5.18043066656110       -0.52890593811469
C            3.48999756171775        1.77425674528012        0.60538153417326
C            2.48745090168283        0.81791884767364        0.63556644758973
C            2.49915782605330       -0.61432509936114        0.76522989300740
C            3.51386630884543       -1.54098438515098        0.94646138082856
C            3.19035462024406       -2.88755703607275        1.05960128777566
C            4.24644581072869       -3.89598857872252        1.24156851211479
C            5.32361007988984       -3.64412295824754        2.10070034902973
C            6.32447060308666       -4.57438444835468        2.29137202525795
C            6.25105544640467       -5.77773503969859        1.60890648518501
S            7.40875589392421       -7.08914469356738        1.70362591098197
C            6.46411842283783       -8.03432981463529        0.56879492664407
C            6.77748298738620       -9.30561753635085        0.11669722096461
C            5.92106923278522       -9.91438310850829       -0.78122642083861
C            4.77151171629564       -9.26376438364897       -1.21992687634314
C            4.46125898392298       -7.99723910929175       -0.76782612298215
C            5.30793425926441       -7.36257761564488        0.13702469085754
C            5.18412670875381       -6.05865643787348        0.73909294384669
C            4.18564692671982       -5.10769143013351        0.56603633503301
C            1.84596053516088       -3.28174575278970        1.01265931304879
C            0.82017616533051       -2.37448699441931        0.84080823825754
C            1.15182961715283       -1.03480672061920        0.69502349123415
C           -1.84476398322489        0.90671502454180        1.18836861955826
C           -3.21724644667952        0.88359760008364        1.06534055994922
N           -5.82349848691535       -0.88794812285825       -0.81154281947189
C           -7.00783622402566       -2.63847722663113       -2.63663597415178
C           -7.61167544494616       -3.51178865946669       -3.52078199797204
H           -9.46418114820115       -4.24751267280474       -4.30367077206347
H          -10.85147033883294       -2.78085721466000       -2.88606257211137
H           -9.76767992227627       -1.21572187162776       -1.30168232225583
H           -6.47282331445743        2.49769736293567        2.49074210694686
H           -7.86119637193558        4.02271198999009        3.86216673339647
H          -10.31357311956009        4.02165457620145        3.59580784842428
H          -11.37797479857262        2.50485195304093        1.96731009264979
H           -9.97758826603643        0.98486167550389        0.60216055442208
H           -3.52780741507801       -1.53830492438705       -1.26944637827744
H           -1.06243924735273       -1.49045947918797       -1.07431137838016
H           -0.24020131189989        2.82801467725027        0.17150276970215
H            1.54806877353588        4.50553267502911        0.14325970407887
H            5.30597695045577        3.29579813439822        2.02136138768322
H            7.08851850549974        4.99672924100699        1.97617784788698
H            7.61781849432413        9.73969324921440       -1.65757536871994
H            6.09721319347930       10.46066877430231       -3.46991542720916
H            4.06433247578311        9.17132740142040       -3.97556207728186
H            3.51541786103274        7.14384142145280       -2.68551510590412
H            3.32125399267181        5.22533016907885       -1.23925489418464
H            4.52512146852524        1.47950164231366        0.68710548931143
H            4.54374775508711       -1.21982796846525        0.97997418866270
H            5.35979256438675       -2.71027920847837        2.64141774749555
H            7.14767732692703       -4.37571842367195        2.96070538919864
H            7.67082620749559       -9.80308888102087        0.46217821837691
H            6.14784302371780      -10.90533477584979       -1.14526221485287
H            4.11627140720089       -9.75745820264003       -1.92218304061863
H            3.56907398152576       -7.49531415382010       -1.11055413987665
H            3.37101792719505       -5.30797858397058       -0.11325834337003
H            1.60465470871685       -4.32640272135792        1.14222349677319
H           -0.20816908993159       -2.70236910862229        0.83740615906381
H           -1.37274013997232        1.57575228756890        1.89172799381938
H           -3.83469071128913        1.54073070999662        1.65712186179256
H           -5.93363812815498       -2.58415223452200       -2.55330585226319
H           -7.00442528062970       -4.15392886316197       -4.14148053986044

          :  Hamiltonian                  GFN2-xTB          :
         :: gradient norm              0.000030881139 Eh/a0 ::
         :: HOMO-LUMO gap              1.803977486574 eV    ::
         :: SCC energy              -160.625702630406 Eh    ::
         :: -> dispersion             -0.137739368045 Eh    ::
         :: -> Gsolv                  -0.073903352787 Eh    ::
         :: repulsion energy           2.871402177348 Eh    ::

    * Orbital Energies and Occupations

         #    Occupation            Energy/Eh            Energy/eV
      -------------------------------------------------------------
         1        2.0000           -0.7255977             -19.7445
       ...           ...                  ...                  ...
       135        2.0000           -0.4167045             -11.3391
       136        2.0000           -0.4140646             -11.2673
       137        2.0000           -0.4132187             -11.2443
       138        2.0000           -0.4102041             -11.1622
       139        2.0000           -0.4030544             -10.9677
       140        2.0000           -0.3899895             -10.6122
       141        2.0000           -0.3897165             -10.6047
       142        2.0000           -0.3842453             -10.4558
       143        2.0000           -0.3815364             -10.3821
       144        2.0000           -0.3811626             -10.3720
       145        2.0000           -0.3767913             -10.2530
       146        2.0000           -0.3702723             -10.0756
       147        2.0000           -0.3618125              -9.8454 (HOMO)
       148                         -0.2955175              -8.0414 (LUMO)
       149                         -0.2937944              -7.9946
       150                         -0.2577469              -7.0137
       151                         -0.2574908              -7.0067
       152                         -0.2548066              -6.9336
       153                         -0.2492354              -6.7820
       154                         -0.2489630              -6.7746
       155                         -0.2414596              -6.5704
       156                         -0.2400066              -6.5309
       157                         -0.2343282              -6.3764
       158                         -0.2342470              -6.3742
       ...                                ...                  ...
       296                          0.7438585              20.2414
      -------------------------------------------------------------
                  HL-Gap            0.0662950 Eh            1.8040 eV

     #   Z          covCN         q      C6AA      α(0)
     1   6 C        2.920    -0.022    28.560     8.764
     2   6 C        2.918    -0.027    28.681     8.782
     3   6 C        2.924    -0.026    28.649     8.778
     4   6 C        2.983    -0.010    28.256     8.719
     5   6 C        2.979     0.217    23.427     7.939
     6   7 N        1.844    -0.324    29.244     8.014
     7   6 C        2.979     0.217    23.426     7.939
     8   6 C        2.983    -0.010    28.256     8.720
     9   6 C        2.923    -0.026    28.654     8.778
    10   6 C        2.918    -0.027    28.682     8.782
    11   6 C        2.920    -0.022    28.559     8.764
    12   6 C        2.918    -0.027    28.681     8.782
    13   6 C        2.923    -0.026    28.649     8.778
    14   7 N        1.844    -0.324    29.242     8.014
    15   6 C        2.980     0.216    23.443     7.942
    16   6 C        2.983    -0.013    28.336     8.732
    17   6 C        2.923    -0.025    28.627     8.774
    18   6 C        2.920    -0.042    29.040     8.837
    19   6 C        2.913     0.071    26.411     8.427
    20   7 N        2.801    -0.035    21.909     6.952
    21   6 C        3.072     0.044    26.933     8.509
    22   6 C        2.908    -0.051    29.262     8.870
    23   6 C        2.928    -0.038    28.936     8.822
    24   6 C        2.977     0.001    28.009     8.681
    25   6 C        2.975     0.007    27.868     8.659
    26   6 C        2.928    -0.036    28.903     8.817
    27   6 C        2.932    -0.040    29.003     8.832
    28   6 C        3.003     0.037    27.157     8.548
    29  16 S        2.206    -0.115   145.882    20.328
    30   6 C        3.003     0.040    27.097     8.539
    31   6 C        2.935    -0.039    28.982     8.829
    32   6 C        2.923    -0.031    28.772     8.796
    33   6 C        2.918    -0.035    28.874     8.812
    34   6 C        2.917    -0.033    28.820     8.803
    35   6 C        3.102    -0.004    27.986     8.669
    36   6 C        3.100    -0.005    28.012     8.673
    37   6 C        2.923    -0.039    28.976     8.827
    38   6 C        2.918    -0.038    28.937     8.821
    39   6 C        3.064    -0.015    28.332     8.728
    40   6 C        3.064    -0.016    28.333     8.729
    41   6 C        2.918    -0.038    28.936     8.821
    42   6 C        2.977     0.001    28.009     8.681
    43   6 C        2.975     0.007    27.869     8.659
    44   6 C        2.928    -0.036    28.904     8.817
    45   6 C        2.932    -0.040    29.004     8.832
    46   6 C        3.003     0.037    27.157     8.548
    47  16 S        2.206    -0.116   145.894    20.329
    48   6 C        3.003     0.040    27.097     8.539
    49   6 C        2.935    -0.039    28.982     8.829
    50   6 C        2.923    -0.031    28.772     8.796
    51   6 C        2.918    -0.035    28.875     8.812
    52   6 C        2.917    -0.033    28.820     8.803
    53   6 C        3.102    -0.004    27.986     8.669
    54   6 C        3.100    -0.005    28.012     8.673
    55   6 C        2.923    -0.039    28.977     8.828
    56   6 C        2.929    -0.038    28.937     8.822
    57   6 C        2.908    -0.051    29.260     8.870
    58   6 C        3.073     0.044    26.933     8.509
    59   6 C        2.920    -0.042    29.040     8.837
    60   6 C        2.923    -0.025    28.624     8.774
    61   7 N        1.844    -0.324    29.242     8.014
    62   6 C        2.923    -0.026    28.654     8.778
    63   6 C        2.918    -0.027    28.683     8.782
    64   1 H        0.926     0.049     2.326     2.385
    65   1 H        0.926     0.047     2.356     2.400
    66   1 H        0.926     0.050     2.317     2.380
    67   1 H        0.926     0.050     2.316     2.380
    68   1 H        0.926     0.047     2.354     2.399
    69   1 H        0.926     0.050     2.326     2.385
    70   1 H        0.926     0.047     2.356     2.400
    71   1 H        0.926     0.050     2.317     2.380
    72   1 H        0.926     0.057     2.231     2.336
    73   1 H        0.926     0.055     2.252     2.347
    74   1 H        0.926     0.034     2.526     2.485
    75   1 H        0.926     0.037     2.491     2.468
    76   1 H        0.926     0.042     2.428     2.437
    77   1 H        0.926     0.039     2.456     2.451
    78   1 H        0.926     0.039     2.458     2.452
    79   1 H        0.926     0.040     2.453     2.449
    80   1 H        0.926     0.038     2.474     2.460
    81   1 H        0.926     0.040     2.448     2.447
    82   1 H        0.926     0.041     2.435     2.440
    83   1 H        0.926     0.038     2.478     2.461
    84   1 H        0.926     0.038     2.476     2.461
    85   1 H        0.926     0.041     2.431     2.438
    86   1 H        0.926     0.039     2.458     2.452
    87   1 H        0.926     0.039     2.459     2.452
    88   1 H        0.926     0.040     2.453     2.449
    89   1 H        0.926     0.038     2.471     2.458
    90   1 H        0.926     0.040     2.444     2.445
    91   1 H        0.926     0.041     2.431     2.438
    92   1 H        0.926     0.037     2.493     2.469
    93   1 H        0.926     0.034     2.527     2.486
    94   1 H        0.926     0.056     2.252     2.347
    95   1 H        0.926     0.057     2.233     2.337
    96   1 H        0.926     0.050     2.317     2.380
    97   1 H        0.926     0.047     2.354     2.399

molecular dipole:
                 x           y           z       tot (Debye)
 q only:       -1.253      -0.056      -0.462
   full:       -1.608      -0.074      -0.631       4.395

 projected vibrational frequencies (cm⁻¹)
eigval :       -0.00    -0.00     0.00     0.00     0.00     0.00
eigval :        8.62    10.46    10.97    12.50    18.48    22.71
eigval :       26.82    29.13    29.86    34.73    39.75    52.02
eigval :       55.87    61.76    71.62    79.83    84.55    92.97
eigval :       95.02    99.92   106.28   112.37   121.91   135.33
eigval :      142.63   150.52   155.42   179.50   182.20   182.54
eigval :      202.51   204.11   208.19   221.28   238.87   243.58
eigval :      249.55   259.99   264.49   278.39   281.06   313.73
eigval :      344.25   356.80   360.63   363.50   365.12   368.68
eigval :      376.28   386.03   390.81   391.13   396.65   401.60
eigval :      401.90   402.65   408.46   416.07   417.74   422.99
eigval :      425.46   433.31   445.71   450.21   454.46   473.02
eigval :      479.65   481.62   486.64   494.35   499.47   509.54
eigval :      553.54   554.08   558.32   562.16   575.30   586.88
eigval :      587.43   593.00   593.58   600.31   606.46   614.04
eigval :      622.91   627.94   628.10   632.01   634.12   650.11
eigval :      660.21   663.04   664.30   673.83   674.45   688.09
eigval :      690.91   691.95   696.73   698.63   701.86   706.01
eigval :      711.12   721.16   729.63   750.44   768.70   770.06
eigval :      775.11   776.01   794.89   811.56   813.60   822.24
eigval :      830.75   835.35   838.87   846.56   846.60   868.61
eigval :      871.47   872.77   873.21   874.53   875.23   876.01
eigval :      880.42   881.22   898.00   903.00   908.80   909.74
eigval :      910.78   911.75   912.95   914.26   915.97   916.67
eigval :      920.48   926.58   928.38   929.13   930.29   932.00
eigval :      932.89   936.47   938.74   974.11   974.60   986.08
eigval :      989.15  1013.10  1030.72  1043.83  1043.95  1047.57
eigval :     1072.80  1073.30  1073.86  1074.09  1077.74  1078.94
eigval :     1086.86  1096.67  1097.31  1106.14  1110.39  1123.55
eigval :     1130.08  1152.91  1156.64  1157.25  1162.09  1165.29
eigval :     1170.86  1171.66  1175.67  1176.65  1177.72  1181.26
eigval :     1182.26  1190.16  1201.16  1202.10  1205.82  1211.81
eigval :     1213.52  1225.34  1227.54  1238.45  1239.73  1248.05
eigval :     1253.15  1260.91  1266.60  1268.19  1273.26  1291.04
eigval :     1305.44  1309.45  1324.95  1326.01  1327.96  1331.50
eigval :     1332.33  1336.11  1336.32  1345.21  1357.24  1358.43
eigval :     1365.64  1368.08  1381.41  1400.99  1402.07  1405.06
eigval :     1409.68  1413.18  1419.10  1423.52  1428.96  1430.16
eigval :     1435.79  1446.63  1462.65  1462.87  1463.32  1472.13
eigval :     1486.42  1490.79  1492.30  1506.28  1506.75  1548.64
eigval :     1549.39  1558.27  1563.83  1564.05  1566.77  1574.86
eigval :     1581.28  1582.39  1582.99  1583.55  1584.47  1584.73
eigval :     1588.55  1592.44  1592.87  1595.99  1611.20  3077.23
eigval :     3077.30  3077.61  3078.18  3080.98  3081.25  3081.90
eigval :     3082.32  3083.03  3083.30  3083.35  3083.85  3088.69
eigval :     3088.91  3089.14  3090.69  3090.92  3091.29  3091.48
eigval :     3091.75  3091.95  3093.48  3093.83  3094.68  3095.34
eigval :     3095.87  3097.45  3098.14  3103.08  3104.45  3104.84
eigval :     3106.30  3108.68  3109.91

   temp. (K)  partition function   enthalpy   heat capacity  entropy
                                   cal/mol     cal/K/mol   cal/K/mol   J/K/mol
 298.15  VIB  0.128E+25            29327.321    182.221    183.998
         ROT  0.449E+09              888.752      2.981     42.574
         INT  0.575E+33            30216.074    185.202    226.572
         TR   0.235E+29             1481.254      4.968     46.038
         TOT                       31697.3275   190.1705   272.6095  1140.5983

       T/K    H(0)-H(T)+PV         H(T)/Eh          T*S/Eh         G(T)/Eh
   ------------------------------------------------------------------------
    298.15    0.505129E-01    0.771950E+00    0.129526E+00    0.642424E+00
   ------------------------------------------------------------------------

         :::::::::::::::::::::::::::::::::::::::::::::::::::::
         ::                  THERMODYNAMIC                  ::
         :::::::::::::::::::::::::::::::::::::::::::::::::::::
         :: total free energy        -157.111876358329 Eh   ::
         ::.................................................::
         :: total energy             -157.754300462803 Eh   ::
         :: zero point energy           0.721436789688 Eh   ::
         :: G(RRHO) w/o ZPVE           -0.079012685214 Eh   ::
         :: G(RRHO) contrib.            0.642424104474 Eh   ::
         :::::::::::::::::::::::::::::::::::::::::::::::::::::

           -------------------------------------------------
          | TOTAL ENERGY             -157.754300462803 Eh   |
          | TOTAL ENTHALPY           -156.982350766389 Eh   |
          | TOTAL FREE ENERGY        -157.111876358329 Eh   |
          | GRADIENT NORM               0.000030883915 Eh/α |
          | HOMO-LUMO GAP               1.803977595273 eV   |
           -------------------------------------------------

 * finished run on 2025/09/03 at 17:06:39.201
