   * xtb version 6.7.1 (edcfbbe) compiled by 'albert@albert-system' on 2024-07-22

   ID    Z sym.   atoms
    1    6 C      1-5, 7-13, 15-19, 21-28, 30-46, 48-60, 62, 63
    2    7 N      6, 14, 20, 61
    3   16 S      29, 47
    4    1 H      64-97

          program call               : xtb data2507/toluene/BDBTCz-Trz/BDBTCz-Trz_toluene_S0_crest.xyz --gfn 2 --gbsa toluene --ohess vtight --parallel 40 --molden --ceasefiles --namespace data2507/toluene/BDBTCz-Trz/BDBTCz-Trz_toluene_S0_finalOpt
      * Solvation model:               GBSA
        Solvent                        toluene
        Solvent mass                       9.2140E+01 g/mol
          :  Hamiltonian                  GFN2-xTB          :
 * total energy  :  -157.7542170 Eh     change       -0.5137508E-08 Eh
 * total energy  :  -157.7542687 Eh     change       -0.5167897E-04 Eh
 * total energy  :  -157.7542898 Eh     change       -0.2108786E-04 Eh
 * total energy  :  -157.7542974 Eh     change       -0.7606461E-05 Eh
 * total energy  :  -157.7543027 Eh     change       -0.5313557E-05 Eh
 * total energy  :  -157.7543072 Eh     change       -0.4510815E-05 Eh
 * total energy  :  -157.7543121 Eh     change       -0.4918892E-05 Eh
 * total energy  :  -157.7543173 Eh     change       -0.5146883E-05 Eh
 * total energy  :  -157.7543223 Eh     change       -0.5022986E-05 Eh
 * total energy  :  -157.7543269 Eh     change       -0.4638657E-05 Eh
 * total energy  :  -157.7543793 Eh     change       -0.1655551E-06 Eh
 * total energy  :  -157.7543794 Eh     change       -0.1332722E-06 Eh
 * total energy  :  -157.7543796 Eh     change       -0.1383543E-06 Eh
 * total energy  :  -157.7543797 Eh     change       -0.1166011E-06 Eh
 * total energy  :  -157.7543798 Eh     change       -0.1094147E-06 Eh
 * total energy  :  -157.7543799 Eh     change       -0.1375603E-06 Eh
 * total energy  :  -157.7543801 Eh     change       -0.1642640E-06 Eh
 * total energy  :  -157.7543802 Eh     change       -0.1153499E-06 Eh
 * total energy  :  -157.7543802 Eh     change       -0.3422332E-07 Eh
   *** GEOMETRY OPTIMIZATION CONVERGED AFTER 57 ITERATIONS ***

 final structure:
================
97
 xtb: 6.7.1 (edcfbbe)
C           -9.73861214987049       -3.12179827503564       -3.51005073104172
C          -10.45370362466213       -2.25647158874133       -2.69587839399395
C           -9.78810864651404       -1.41374719158166       -1.82649914248678
C           -8.39527380442900       -1.43101540447884       -1.76408213677668
C           -7.68748945718543       -0.53868084266932       -0.84524628622920
N           -8.41130754568869        0.29464127167765       -0.10150753371466
C           -7.72787971019150        1.08830369361682        0.71974643431448
C           -8.48062720066602        2.02233931371353        1.55779913449888
C           -7.81378682096921        2.85038458279318        2.46006856016289
C           -8.52690926104704        3.73080795392617        3.25072822286142
C           -9.90832363998149        3.79515145738652        3.14830082235402
C          -10.57737564330649        2.97461657263775        2.25268801275636
C           -9.86974183796006        2.09170724260992        1.45972909084572
N           -6.40150254346357        1.08379253529036        0.82597093783897
C           -5.75710863514784        0.21808726925760        0.04655338764310
C           -4.29953677517717        0.17467537079378        0.12940229851436
C           -3.57132916466727       -0.69031348830633       -0.68806014424348
C           -2.19605978355956       -0.73216822850895       -0.61215262233169
C           -1.51785505106140        0.08930791489430        0.28994750977987
N           -0.12476553760106        0.04444248248694        0.37202134850664
C            0.72487845807767        1.13632179600704        0.37602574940545
C            0.43889297335660        2.48801286233928        0.24576957973346
C            1.49418324186924        3.37771011512558        0.24511068035398
C            2.82545047886885        2.95600141813287        0.36523242897296
C            3.91556476655282        3.94442865214689        0.36746772302564
C            4.99041278581199        3.80460413502931        1.25458611862857
C            6.02684580855999        4.71500527170820        1.27844480525404
C            5.99181814241939        5.78379960427151        0.39765351957693
S            7.20074716097232        7.04407865029797        0.25612559219680
C            6.28220515667112        7.81174523649400       -1.02488778972494
C            6.64118414944209        8.96842979801663       -1.69724068816617
C            5.79888660504743        9.44420203831825       -2.68439016859483
C            4.61860880807895        8.77509319109872       -2.99502758014530
C            4.26379890546770        7.62191616410175       -2.32497242630398
C            5.09535033183298        7.12250705382919       -1.32626780999331
C            4.92745848649708        5.95045189128601       -0.50413611416657
C            3.89278712399689        5.02261866630991       -0.50715823049396
C            3.10728023404056        1.59943176912226        0.47148611652350
C            2.06229182836792        0.68896899225107        0.46963295873556
C            2.00951769109722       -0.74658469582146        0.53787268637618
C            2.98256315906070       -1.72503875399150        0.66929688580137
C            2.59864482301529       -3.05874296662591        0.73548019912163
C            3.60727875475013       -4.12151657337876        0.87128768194464
C            4.70120627848131       -3.95163070223893        1.72931756392171
C            5.65547508547468       -4.93631458777175        1.88171671176171
C            5.51745216676705       -6.11177795800584        1.16170060790299
S            6.60681988386405       -7.48297848868178        1.20788959174967
C            5.61003351647042       -8.34181446094462        0.04931380567891
C            5.85571782137318       -9.61252365211993       -0.44438611366211
C            4.96559097439153      -10.14760245482051       -1.35635953332955
C            3.84908081969584       -9.42534726372172       -1.76756556815324
C            3.60626189161189       -8.15960082715113       -1.27389541060572
C            4.48802358386842       -7.59834737341791       -0.35416407822465
C            4.43333992928441       -6.31002461460803        0.29034894526956
C            3.48274715699228       -5.30524065869110        0.15600223743517
C            1.23713054668405       -3.38905583533236        0.68848325823361
C            0.25235259044312       -2.43006066110183        0.56450320429401
C            0.64350810199100       -1.10196741346979        0.46865846206865
C           -2.24370066746687        0.95399074404250        1.11085915812151
C           -3.61847330915105        0.99735864488310        1.02724038658900
N           -6.35940688821093       -0.61017011049144       -0.80407338670018
C           -7.68210681816668       -2.30445164458870       -2.58441609672928
C           -8.35327019509256       -3.14450696484516       -3.45204290854407
H          -10.26120839706433       -3.77901525131701       -4.18926805082789
H          -11.53261349154683       -2.23945448141995       -2.74049294141583
H          -10.32841889490770       -0.73441439991008       -1.18584313552334
H           -6.73890782935776        2.78699041276862        2.52649721684606
H           -8.00606977160707        4.36956503844001        3.94866013427029
H          -10.46375469004511        4.48436346345978        3.76701116277967
H          -11.65320682044744        3.02532517707731        2.17296370123043
H          -10.37362661163655        1.44704187273151        0.75658582704163
H           -4.10439798770286       -1.31673371302821       -1.38574928382566
H           -1.63481846676562       -1.38455955524402       -1.26365166426317
H           -0.57547729931018        2.84050919432139        0.13850966079073
H            1.28701910958606        4.43476625114561        0.16781705211991
H            4.99740983753664        2.97658024295382        1.94747615021586
H            6.84849637160776        4.60361211796814        1.96952759088632
H            7.55824041436257        9.48142720048658       -1.45056104262729
H            6.06085100342073       10.34482957571464       -3.21929869607649
H            3.97459223232112        9.16434586355692       -3.76963428406919
H            3.34828322116079        7.10463229629483       -2.56935940070528
H            3.08083565672361        5.13252489227427       -1.20986684820252
H            4.12880564537089        1.25507378909775        0.52660296829304
H            4.02634546966992       -1.45240884620992        0.70285150103004
H            4.78727245291496       -3.03912188080686        2.29996253263595
H            6.49171595005022       -4.80104257506422        2.55069429734179
H            6.72355666671066      -10.16603902212601       -0.11955809814812
H            5.13977337013237      -11.13676640557583       -1.75280446422924
H            3.16627044923097       -9.86220694986451       -2.48120258465631
H            2.73968183088475       -7.60182067859429       -1.59534918606730
H            2.65517866417996       -5.44196576258406       -0.52341708871520
H            0.94935670963251       -4.42594504024188        0.78022989200308
H           -0.78977730355910       -2.71085014333295        0.56110760699550
H           -1.72239339250714        1.57271450024624        1.82533256419467
H           -4.18865779790146        1.65760053117479        1.66147453112516
H           -6.60487229330563       -2.30856903715852       -2.52634289079766
H           -7.79659546643525       -3.81892173125549       -4.08581187335242

          :  Hamiltonian                  GFN2-xTB          :
         :: gradient norm              0.000077317176 Eh/a0 ::
         :: HOMO-LUMO gap              1.806710298498 eV    ::
         :: SCC energy              -160.625722451409 Eh    ::
         :: -> dispersion             -0.137748910249 Eh    ::
         :: -> Gsolv                  -0.073981351915 Eh    ::
         :: repulsion energy           2.871342205498 Eh    ::

    * Orbital Energies and Occupations

         #    Occupation            Energy/Eh            Energy/eV
      -------------------------------------------------------------
         1        2.0000           -0.7255893             -19.7443
       ...           ...                  ...                  ...
       135        2.0000           -0.4167003             -11.3390
       136        2.0000           -0.4140576             -11.2671
       137        2.0000           -0.4131919             -11.2435
       138        2.0000           -0.4101805             -11.1616
       139        2.0000           -0.4030763             -10.9683
       140        2.0000           -0.3899919             -10.6122
       141        2.0000           -0.3897280             -10.6050
       142        2.0000           -0.3842476             -10.4559
       143        2.0000           -0.3814912             -10.3809
       144        2.0000           -0.3811236             -10.3709
       145        2.0000           -0.3767749             -10.2526
       146        2.0000           -0.3702900             -10.0761
       147        2.0000           -0.3618597              -9.8467 (HOMO)
       148                         -0.2954644              -8.0400 (LUMO)
       149                         -0.2937757              -7.9940
       150                         -0.2577484              -7.0137
       151                         -0.2574960              -7.0068
       152                         -0.2548087              -6.9337
       153                         -0.2492103              -6.7814
       154                         -0.2489698              -6.7748
       155                         -0.2413990              -6.5688
       156                         -0.2399863              -6.5304
       157                         -0.2343090              -6.3759
       158                         -0.2342335              -6.3738
       ...                                ...                  ...
       296                          0.7436965              20.2370
      -------------------------------------------------------------
                  HL-Gap            0.0663953 Eh            1.8067 eV

     #   Z          covCN         q      C6AA      α(0)
     1   6 C        2.920    -0.022    28.559     8.764
     2   6 C        2.918    -0.027    28.681     8.782
     3   6 C        2.923    -0.026    28.649     8.778
     4   6 C        2.983    -0.010    28.256     8.719
     5   6 C        2.979     0.217    23.426     7.939
     6   7 N        1.844    -0.324    29.246     8.015
     7   6 C        2.979     0.217    23.426     7.939
     8   6 C        2.983    -0.010    28.256     8.720
     9   6 C        2.924    -0.026    28.654     8.778
    10   6 C        2.918    -0.027    28.682     8.782
    11   6 C        2.920    -0.022    28.559     8.764
    12   6 C        2.918    -0.027    28.681     8.782
    13   6 C        2.923    -0.026    28.649     8.778
    14   7 N        1.844    -0.324    29.243     8.014
    15   6 C        2.980     0.216    23.442     7.942
    16   6 C        2.983    -0.013    28.337     8.732
    17   6 C        2.923    -0.025    28.626     8.774
    18   6 C        2.920    -0.042    29.042     8.837
    19   6 C        2.913     0.071    26.412     8.427
    20   7 N        2.801    -0.034    21.907     6.951
    21   6 C        3.072     0.044    26.934     8.509
    22   6 C        2.908    -0.051    29.262     8.870
    23   6 C        2.928    -0.038    28.937     8.822
    24   6 C        2.977     0.001    28.009     8.681
    25   6 C        2.975     0.007    27.867     8.659
    26   6 C        2.928    -0.036    28.903     8.817
    27   6 C        2.932    -0.040    29.003     8.832
    28   6 C        3.003     0.037    27.157     8.548
    29  16 S        2.205    -0.115   145.882    20.328
    30   6 C        3.003     0.040    27.098     8.539
    31   6 C        2.935    -0.039    28.981     8.829
    32   6 C        2.923    -0.031    28.772     8.796
    33   6 C        2.918    -0.035    28.874     8.812
    34   6 C        2.917    -0.033    28.820     8.803
    35   6 C        3.102    -0.004    27.986     8.669
    36   6 C        3.100    -0.005    28.011     8.673
    37   6 C        2.923    -0.039    28.975     8.827
    38   6 C        2.918    -0.038    28.936     8.821
    39   6 C        3.064    -0.015    28.331     8.728
    40   6 C        3.064    -0.016    28.333     8.729
    41   6 C        2.918    -0.038    28.936     8.821
    42   6 C        2.977     0.001    28.009     8.681
    43   6 C        2.975     0.007    27.869     8.659
    44   6 C        2.928    -0.036    28.904     8.817
    45   6 C        2.932    -0.040    29.004     8.832
    46   6 C        3.003     0.037    27.157     8.548
    47  16 S        2.206    -0.116   145.894    20.329
    48   6 C        3.003     0.040    27.097     8.539
    49   6 C        2.935    -0.039    28.982     8.829
    50   6 C        2.923    -0.031    28.772     8.796
    51   6 C        2.918    -0.035    28.875     8.812
    52   6 C        2.917    -0.033    28.820     8.803
    53   6 C        3.102    -0.004    27.986     8.669
    54   6 C        3.100    -0.005    28.012     8.673
    55   6 C        2.923    -0.039    28.977     8.828
    56   6 C        2.929    -0.038    28.937     8.822
    57   6 C        2.908    -0.051    29.261     8.870
    58   6 C        3.073     0.044    26.933     8.509
    59   6 C        2.920    -0.042    29.042     8.837
    60   6 C        2.923    -0.025    28.625     8.774
    61   7 N        1.844    -0.324    29.243     8.014
    62   6 C        2.923    -0.026    28.654     8.778
    63   6 C        2.918    -0.027    28.683     8.782
    64   1 H        0.926     0.049     2.326     2.385
    65   1 H        0.926     0.047     2.356     2.400
    66   1 H        0.926     0.050     2.317     2.381
    67   1 H        0.926     0.050     2.316     2.380
    68   1 H        0.926     0.047     2.354     2.399
    69   1 H        0.926     0.049     2.326     2.385
    70   1 H        0.926     0.047     2.356     2.400
    71   1 H        0.926     0.050     2.317     2.381
    72   1 H        0.926     0.057     2.232     2.336
    73   1 H        0.926     0.056     2.251     2.346
    74   1 H        0.926     0.034     2.523     2.484
    75   1 H        0.926     0.037     2.491     2.468
    76   1 H        0.926     0.042     2.428     2.437
    77   1 H        0.926     0.039     2.456     2.451
    78   1 H        0.926     0.039     2.458     2.452
    79   1 H        0.926     0.040     2.453     2.449
    80   1 H        0.926     0.038     2.474     2.459
    81   1 H        0.926     0.040     2.448     2.447
    82   1 H        0.926     0.041     2.435     2.440
    83   1 H        0.926     0.038     2.478     2.462
    84   1 H        0.926     0.038     2.476     2.460
    85   1 H        0.926     0.041     2.431     2.438
    86   1 H        0.926     0.039     2.458     2.452
    87   1 H        0.926     0.039     2.459     2.452
    88   1 H        0.926     0.040     2.453     2.449
    89   1 H        0.926     0.038     2.471     2.458
    90   1 H        0.926     0.040     2.444     2.445
    91   1 H        0.926     0.041     2.430     2.438
    92   1 H        0.926     0.037     2.493     2.469
    93   1 H        0.926     0.034     2.525     2.485
    94   1 H        0.926     0.056     2.252     2.347
    95   1 H        0.926     0.057     2.233     2.337
    96   1 H        0.926     0.050     2.316     2.380
    97   1 H        0.926     0.047     2.354     2.399

molecular dipole:
                 x           y           z       tot (Debye)
 q only:       -1.247       0.020      -0.451
   full:       -1.603       0.025      -0.615       4.365

 projected vibrational frequencies (cm⁻¹)
eigval :       -0.00    -0.00     0.00     0.00     0.00     0.00
eigval :        9.16    11.24    11.49    12.01    17.82    22.55
eigval :       26.84    29.75    35.02    37.11    40.13    53.01
eigval :       57.65    62.98    72.48    80.53    84.65    93.89
eigval :       95.90   100.12   106.95   112.57   122.73   135.67
eigval :      143.26   150.21   156.21   179.81   181.85   183.05
eigval :      202.70   204.65   207.94   220.93   238.93   244.27
eigval :      250.30   260.57   265.05   278.13   280.68   313.55
eigval :      344.24   356.96   360.00   365.76   366.97   368.40
eigval :      377.77   385.35   390.35   391.33   396.37   401.92
eigval :      402.14   402.98   408.63   415.55   418.25   422.71
eigval :      425.32   433.24   446.11   449.95   454.03   472.81
eigval :      480.02   482.03   486.64   494.47   499.65   509.30
eigval :      553.96   554.44   559.75   562.11   575.59   587.31
eigval :      587.97   592.87   593.46   600.67   606.67   614.51
eigval :      623.02   628.07   628.51   632.35   634.93   650.29
eigval :      660.37   663.25   664.77   674.20   675.70   689.39
eigval :      690.92   692.59   696.77   698.72   702.61   705.52
eigval :      709.90   721.19   729.59   750.95   768.58   771.77
eigval :      774.69   775.81   794.84   810.55   812.23   822.37
eigval :      829.61   834.92   837.96   846.58   846.89   870.05
eigval :      871.34   872.32   873.63   874.45   875.76   877.25
eigval :      879.59   880.37   897.98   904.61   907.77   908.67
eigval :      910.85   911.52   912.46   912.90   914.83   917.45
eigval :      922.60   923.80   928.44   930.84   931.25   933.89
eigval :      934.35   935.18   938.66   974.09   974.95   986.10
eigval :      989.46  1012.75  1030.68  1043.78  1043.88  1047.70
eigval :     1072.73  1073.41  1074.17  1075.13  1077.66  1078.80
eigval :     1087.32  1096.51  1096.70  1107.35  1112.24  1122.80
eigval :     1130.12  1152.92  1155.33  1158.15  1161.93  1166.28
eigval :     1168.98  1169.95  1176.73  1177.79  1178.88  1180.41
eigval :     1181.66  1191.56  1202.15  1202.24  1205.96  1211.97
eigval :     1213.45  1225.27  1226.91  1238.09  1238.42  1247.74
eigval :     1252.41  1261.03  1267.31  1269.44  1273.22  1290.94
eigval :     1305.37  1309.36  1325.05  1326.08  1328.04  1331.53
eigval :     1332.36  1336.06  1336.31  1345.39  1357.19  1358.46
eigval :     1365.77  1368.06  1381.35  1401.04  1401.97  1404.93
eigval :     1409.62  1412.87  1418.98  1423.49  1429.01  1430.25
eigval :     1435.63  1446.49  1462.67  1463.12  1463.25  1472.39
eigval :     1486.41  1490.77  1492.26  1506.30  1506.83  1548.65
eigval :     1549.38  1558.38  1563.86  1563.97  1566.91  1574.89
eigval :     1581.26  1582.42  1582.94  1583.50  1584.50  1584.63
eigval :     1588.76  1592.60  1593.08  1595.90  1610.96  3077.81
eigval :     3077.84  3077.96  3078.00  3080.68  3081.39  3082.48
eigval :     3082.76  3082.76  3083.11  3083.33  3083.73  3088.34
eigval :     3088.78  3089.24  3090.64  3090.98  3091.25  3092.03
eigval :     3092.33  3092.76  3093.66  3094.37  3095.02  3095.41
eigval :     3095.94  3097.65  3097.95  3103.99  3104.82  3105.17
eigval :     3107.92  3108.75  3110.09

   temp. (K)  partition function   enthalpy   heat capacity  entropy
                                   cal/mol     cal/K/mol   cal/K/mol   J/K/mol
 298.15  VIB  0.811E+24            29293.236    182.399    183.632
         ROT  0.450E+09              888.752      2.981     42.576
         INT  0.365E+33            30181.989    185.380    226.208
         TR   0.235E+29             1481.254      4.968     46.038
         TOT                       31663.2428   190.3477   272.2450  1139.0732

       T/K    H(0)-H(T)+PV         H(T)/Eh          T*S/Eh         G(T)/Eh
   ------------------------------------------------------------------------
    298.15    0.504586E-01    0.772004E+00    0.129352E+00    0.642651E+00
   ------------------------------------------------------------------------

         :::::::::::::::::::::::::::::::::::::::::::::::::::::
         ::                  THERMODYNAMIC                  ::
         :::::::::::::::::::::::::::::::::::::::::::::::::::::
         :: total free energy        -157.111728827315 Eh   ::
         ::.................................................::
         :: total energy             -157.754380252435 Eh   ::
         :: zero point energy           0.721545237529 Eh   ::
         :: G(RRHO) w/o ZPVE           -0.078893812409 Eh   ::
         :: G(RRHO) contrib.            0.642651425120 Eh   ::
         :::::::::::::::::::::::::::::::::::::::::::::::::::::

           -------------------------------------------------
          | TOTAL ENERGY             -157.754380252435 Eh   |
          | TOTAL ENTHALPY           -156.982376425746 Eh   |
          | TOTAL FREE ENERGY        -157.111728827315 Eh   |
          | GRADIENT NORM               0.000077319526 Eh/α |
          | HOMO-LUMO GAP               1.806709344901 eV   |
           -------------------------------------------------

 * finished run on 2025/09/03 at 17:14:10.994
