   * xtb version 6.7.1 (edcfbbe) compiled by 'albert@albert-system' on 2024-07-22

   ID    Z sym.   atoms
    1    6 C      1-5, 7-13, 15-19, 21-28, 30-46, 48-60, 62, 63
    2    7 N      6, 14, 20, 61
    3   16 S      29, 47
    4    1 H      64-97

          program call               : xtb data2507/toluene/BDBTCz-Trz/BDBTCz-Trz_toluene_T1_crest.xyz --gfn 2 --uhf 2 --gbsa toluene --ohess vtight --parallel 40 --molden --ceasefiles --namespace data2507/toluene/BDBTCz-Trz/BDBTCz-Trz_toluene_T1_finalOpt
      * Solvation model:               GBSA
        Solvent                        toluene
        Solvent mass                       9.2140E+01 g/mol
          :  Hamiltonian                  GFN2-xTB          :
 * total energy  :  -157.6756342 Eh     change        0.1254421E-08 Eh
 * total energy  :  -157.6758004 Eh     change       -0.1662606E-03 Eh
 * total energy  :  -157.6758564 Eh     change       -0.5595322E-04 Eh
 * total energy  :  -157.6758615 Eh     change       -0.5106474E-05 Eh
 * total energy  :  -157.6758659 Eh     change       -0.4399020E-05 Eh
 * total energy  :  -157.6758709 Eh     change       -0.4976144E-05 Eh
 * total energy  :  -157.6758767 Eh     change       -0.5832513E-05 Eh
 * total energy  :  -157.6758830 Eh     change       -0.6260842E-05 Eh
 * total energy  :  -157.6758899 Eh     change       -0.6956387E-05 Eh
 * total energy  :  -157.6758977 Eh     change       -0.7742239E-05 Eh
 * total energy  :  -157.6759509 Eh     change       -0.5860668E-06 Eh
 * total energy  :  -157.6759513 Eh     change       -0.4772984E-06 Eh
 * total energy  :  -157.6759518 Eh     change       -0.4228174E-06 Eh
 * total energy  :  -157.6759523 Eh     change       -0.5053258E-06 Eh
 * total energy  :  -157.6759529 Eh     change       -0.6676875E-06 Eh
 * total energy  :  -157.6759537 Eh     change       -0.8042542E-06 Eh
 * total energy  :  -157.6759546 Eh     change       -0.8625480E-06 Eh
 * total energy  :  -157.6759555 Eh     change       -0.8473571E-06 Eh
 * total energy  :  -157.6759555 Eh     change       -0.9805689E-08 Eh
   *** GEOMETRY OPTIMIZATION CONVERGED AFTER 44 ITERATIONS ***

 final structure:
================
97
 xtb: 6.7.1 (edcfbbe)
C           -9.59766637634753       -3.32569925287100       -3.69183539069798
C          -10.33576907897299       -2.49154750436973       -2.86540927309973
C           -9.69702749119129       -1.67650405760594       -1.95196255867204
C           -8.30437965581293       -1.68536864696205       -1.85318946729070
C           -7.62986063796688       -0.82491222691297       -0.88681395220809
N           -8.39764443389621       -0.05645846041744       -0.08670320860236
C           -7.73860571248227        0.72051068397026        0.79706063736701
C           -8.53046206688887        1.57047327409612        1.68025837061891
C           -7.90436493624160        2.42059549885061        2.59421751378523
C           -8.65736379050886        3.22441693261548        3.42582465714971
C          -10.04328008540433        3.19325705992810        3.35972737563150
C          -10.67288783575476        2.35108436902986        2.45533731343499
C           -9.92503474859487        1.54479499733797        1.62013425228480
N           -6.43334658599513        0.74662030398296        0.90338408143577
C           -5.70514619929278       -0.03875924182397        0.06990159826942
C           -4.28803154907456       -0.02656273827968        0.15213417045873
C           -3.50122280896709       -0.84027385104815       -0.69420020464942
C           -2.13404318632805       -0.82446787832657       -0.61555135688334
C           -1.48641550754976        0.00452293813986        0.31181156810090
N           -0.08851678205794        0.02265542584653        0.38999876717888
C            0.70296620367203        1.14808795853832        0.37896985506334
C            0.34544872631368        2.48594920680836        0.25075204940238
C            1.35203749353709        3.42825105701031        0.24604766211160
C            2.70561534341561        3.07546684349244        0.36743889427954
C            3.74130984822797        4.11347146563719        0.36719090850510
C            4.84929525317384        4.00641068619118        1.22093689014700
C            5.83393396161210        4.97077696406325        1.24478582571627
C            5.72025868949942        6.05957658518441        0.39306769494595
S            6.85460601628885        7.38238421454482        0.25675648657460
C            5.86710392774424        8.13316804785982       -0.98372520618639
C            6.15129541920042        9.32258086543463       -1.63355824640012
C            5.26258759299247        9.77717476291683       -2.59030465765970
C            4.11173182812247        9.05523164767199       -2.89130283940027
C            3.83136443981611        7.86918100806786       -2.24217394928061
C            4.71081540798377        7.39049229361992       -1.27550475607603
C            4.62405127788463        6.19151744158188       -0.47847647188716
C            3.63869795187609        5.21414939295166       -0.47807317569000
C            3.05919808731782        1.72944389003321        0.47609106880017
C            2.06612148854229        0.76894401051200        0.47063303135467
C            2.08015761443391       -0.67024416226547        0.53927766366520
C            3.09082321449840       -1.60559733844731        0.65124469776375
C            2.76154437037646       -2.96086125794896        0.71342482697015
C            3.81409977459558       -3.97575256166866        0.81857241999670
C            4.95532642771378       -3.73823129238773        1.59954353358184
C            5.95467893481618       -4.68008790539104        1.71743336079119
C            5.82079275320856       -5.88207769045160        1.03834494909644
S            6.96544523729183       -7.20237842086837        1.04819038839941
C            5.93479199111528       -8.13600861249937       -0.02138531664483
C            6.20407573596916       -9.40885953943702       -0.49585507927101
C            5.28198296852538      -10.00564494574202       -1.33582183541403
C            4.11253969438500       -9.34171138067929       -1.69323916245160
C            3.84632713235371       -8.07296927195199       -1.21760022446569
C            4.75902138488980       -7.45104566611052       -0.37068671226185
C            4.69080797437457       -6.14778362515951        0.24382897316837
C            3.69314207941937       -5.18834039882590        0.14556403719694
C            1.41115720306753       -3.34653781910613        0.68449191412381
C            0.38792205679295       -2.42849684066282        0.58185758942871
C            0.72454948146781       -1.08226221273567        0.48767375108581
C           -2.25342789803621        0.81574486950313        1.16050439674255
C           -3.62049178820193        0.80148417860636        1.08297725489017
N           -6.32069865121609       -0.83341760915688       -0.84176374500553
C           -7.56854905618290       -2.52781506932532       -2.68917779804213
C           -8.21295695228564       -3.34058926861405       -3.59966740528028
H          -10.09941357851686       -3.96238393715141       -4.40553334245285
H          -11.41387157361506       -2.47758250333790       -2.93551484869305
H          -10.25712302276503       -1.02117776393513       -1.30241502651772
H           -6.82574809524548        2.43378804318214        2.63370820970183
H           -8.16523619954775        3.87968206905821        4.12999660541467
H          -10.63023532159155        3.82335458871278        4.01157067774706
H          -11.75174924376615        2.32475133391617        2.40266837411689
H          -10.40013757168274        0.88412624034823        0.91092909406543
H           -4.00752887569760       -1.46573134042883       -1.41311894152847
H           -1.54159939386135       -1.42698658097251       -1.28882513225336
H           -0.68821803355287        2.77889406276487        0.15111357034755
H            1.08974816420981        4.47254761785686        0.17002298614877
H            4.91780564877825        3.16497376753400        1.89334411464584
H            6.67734981245595        4.88747942031448        1.91284913871356
H            7.04595565119366        9.87666811029018       -1.39424859135158
H            5.46559695268954       10.70248570406241       -3.10821304717467
H            3.43102988561250        9.42844237116164       -3.64193263653843
H            2.93803334858221        7.31187538644776       -2.47980192035266
H            2.80519297407030        5.29817504529190       -1.15815146765183
H            4.09740616488978        1.44071105034450        0.52955649169606
H            4.12313810904860       -1.29255163840634        0.66478045614752
H            5.04034752457726       -2.80954522869263        2.14254154980447
H            6.82466214786176       -4.49389582404142        2.32822863568432
H            7.11311451353391       -9.91712211401192       -0.21316969968869
H            5.47279311044250      -10.99758117379664       -1.71694684032886
H            3.40620038199050       -9.82592734986267       -2.35099320995891
H            2.93790753524402       -7.56185935977765       -1.49779448873133
H            2.83374706390911       -5.37724485338360       -0.47890719376677
H            1.16552442220052       -4.39331811645591        0.77878728835817
H           -0.64391959346150       -2.74417956128212        0.59169637471850
H           -1.75488312082060        1.42916407218304        1.89699124185589
H           -4.21864952867660        1.41381249455480        1.73994530516300
H           -6.49230428222000       -2.52836030373674       -2.60622458144621
H           -7.63651734543077       -3.98994441332905       -4.24268556638699

          :  Hamiltonian                  GFN2-xTB          :
         :: gradient norm              0.000071677470 Eh/a0 ::
         :: HOMO-LUMO gap              0.163656387570 eV    ::
         :: SCC energy              -160.537300497321 Eh    ::
         :: -> dispersion             -0.137669397805 Eh    ::
         :: -> Gsolv                  -0.078964626285 Eh    ::
         :: repulsion energy           2.861345048911 Eh    ::

    * Orbital Energies and Occupations

         #    Occupation            Energy/Eh            Energy/eV
      -------------------------------------------------------------
         1        2.0000           -0.7322464             -19.9254
       ...           ...                  ...                  ...
       136        2.0000           -0.4079989             -11.1022
       137        2.0000           -0.4036320             -10.9834
       138        2.0000           -0.4017534             -10.9323
       139        2.0000           -0.3991296             -10.8609
       140        2.0000           -0.3960345             -10.7766
       141        2.0000           -0.3947431             -10.7415
       142        2.0000           -0.3920039             -10.6670
       143        2.0000           -0.3816048             -10.3840
       144        2.0000           -0.3760777             -10.2336
       145        1.8459           -0.3680307             -10.0146
       146        1.7684           -0.3675522             -10.0016
       147        1.3856           -0.3659702              -9.9586
       148        0.9595           -0.2824894              -7.6869 (HOMO)
       149        0.0405           -0.2764757              -7.5233 (LUMO)
       150                         -0.2634562              -7.1690
       151                         -0.2625061              -7.1432
       152                         -0.2582261              -7.0267
       153                         -0.2578113              -7.0154
       154                         -0.2498418              -6.7985
       155                         -0.2406321              -6.5479
       156                         -0.2355215              -6.4089
       157                         -0.2345332              -6.3820
       158                         -0.2249431              -6.1210
       159                         -0.2249214              -6.1204
       ...                                ...                  ...
       296                          0.7372698              20.0621
      -------------------------------------------------------------
                  HL-Gap            0.0060137 Eh            0.1636 eV

     #   Z          covCN         q      C6AA      α(0)
     1   6 C        2.920    -0.030    28.756     8.794
     2   6 C        2.917    -0.030    28.760     8.794
     3   6 C        2.924    -0.031    28.763     8.795
     4   6 C        2.983    -0.010    28.268     8.721
     5   6 C        2.934     0.210    23.574     7.963
     6   7 N        1.843    -0.345    29.826     8.094
     7   6 C        2.934     0.210    23.571     7.962
     8   6 C        2.983    -0.010    28.267     8.721
     9   6 C        2.923    -0.031    28.776     8.797
    10   6 C        2.918    -0.031    28.763     8.795
    11   6 C        2.920    -0.030    28.754     8.793
    12   6 C        2.917    -0.030    28.759     8.794
    13   6 C        2.923    -0.030    28.761     8.795
    14   7 N        1.845    -0.303    28.707     7.941
    15   6 C        2.936     0.170    24.336     8.090
    16   6 C        2.977    -0.018    28.455     8.750
    17   6 C        2.921    -0.041    29.016     8.833
    18   6 C        2.915    -0.043    29.070     8.841
    19   6 C        2.913     0.037    27.164     8.546
    20   7 N        2.800    -0.003    21.324     6.858
    21   6 C        3.079     0.045    26.900     8.503
    22   6 C        2.907    -0.041    29.021     8.833
    23   6 C        2.927    -0.036    28.897     8.816
    24   6 C        2.977     0.010    27.788     8.647
    25   6 C        2.975     0.011    27.772     8.644
    26   6 C        2.927    -0.034    28.855     8.809
    27   6 C        2.932    -0.038    28.939     8.822
    28   6 C        3.002     0.038    27.139     8.546
    29  16 S        2.207    -0.085   144.584    20.238
    30   6 C        3.003     0.038    27.133     8.545
    31   6 C        2.935    -0.038    28.936     8.822
    32   6 C        2.923    -0.029    28.730     8.790
    33   6 C        2.918    -0.033    28.821     8.804
    34   6 C        2.917    -0.031    28.779     8.797
    35   6 C        3.102    -0.002    27.952     8.664
    36   6 C        3.101    -0.002    27.940     8.662
    37   6 C        2.922    -0.036    28.896     8.815
    38   6 C        2.916    -0.033    28.812     8.802
    39   6 C        3.062    -0.011    28.232     8.713
    40   6 C        3.061    -0.011    28.234     8.713
    41   6 C        2.916    -0.033    28.811     8.802
    42   6 C        2.976     0.010    27.786     8.647
    43   6 C        2.975     0.011    27.768     8.644
    44   6 C        2.927    -0.034    28.854     8.809
    45   6 C        2.932    -0.038    28.938     8.822
    46   6 C        3.002     0.038    27.138     8.545
    47  16 S        2.207    -0.084   144.534    20.234
    48   6 C        3.003     0.038    27.134     8.545
    49   6 C        2.935    -0.038    28.934     8.822
    50   6 C        2.923    -0.029    28.729     8.790
    51   6 C        2.918    -0.033    28.820     8.803
    52   6 C        2.917    -0.031    28.778     8.797
    53   6 C        3.102    -0.002    27.951     8.663
    54   6 C        3.101    -0.002    27.938     8.662
    55   6 C        2.922    -0.036    28.896     8.815
    56   6 C        2.927    -0.036    28.899     8.816
    57   6 C        2.907    -0.041    29.020     8.833
    58   6 C        3.080     0.045    26.896     8.502
    59   6 C        2.915    -0.043    29.072     8.842
    60   6 C        2.921    -0.041    29.013     8.833
    61   7 N        1.844    -0.303    28.711     7.941
    62   6 C        2.923    -0.031    28.778     8.797
    63   6 C        2.918    -0.031    28.764     8.795
    64   1 H        0.926     0.041     2.440     2.443
    65   1 H        0.926     0.039     2.468     2.457
    66   1 H        0.926     0.041     2.438     2.442
    67   1 H        0.926     0.040     2.442     2.444
    68   1 H        0.926     0.039     2.456     2.451
    69   1 H        0.926     0.041     2.439     2.442
    70   1 H        0.926     0.039     2.466     2.456
    71   1 H        0.926     0.041     2.438     2.442
    72   1 H        0.926     0.037     2.493     2.469
    73   1 H        0.926     0.040     2.450     2.448
    74   1 H        0.926     0.043     2.407     2.426
    75   1 H        0.926     0.045     2.384     2.415
    76   1 H        0.926     0.048     2.342     2.393
    77   1 H        0.926     0.046     2.374     2.410
    78   1 H        0.926     0.043     2.414     2.429
    79   1 H        0.926     0.042     2.417     2.431
    80   1 H        0.926     0.041     2.436     2.441
    81   1 H        0.926     0.044     2.402     2.424
    82   1 H        0.926     0.047     2.353     2.399
    83   1 H        0.926     0.050     2.325     2.385
    84   1 H        0.926     0.050     2.321     2.382
    85   1 H        0.926     0.048     2.339     2.392
    86   1 H        0.926     0.046     2.373     2.409
    87   1 H        0.926     0.043     2.412     2.429
    88   1 H        0.926     0.043     2.415     2.430
    89   1 H        0.926     0.041     2.433     2.439
    90   1 H        0.926     0.044     2.398     2.422
    91   1 H        0.926     0.048     2.347     2.396
    92   1 H        0.926     0.045     2.383     2.414
    93   1 H        0.926     0.043     2.407     2.426
    94   1 H        0.926     0.040     2.451     2.448
    95   1 H        0.926     0.037     2.494     2.470
    96   1 H        0.926     0.040     2.443     2.444
    97   1 H        0.926     0.039     2.457     2.451

molecular dipole:
                 x           y           z       tot (Debye)
 q only:        4.755      -0.029      -0.254
   full:        4.294      -0.042      -0.422      10.968

 projected vibrational frequencies (cm⁻¹)
eigval :       -0.00    -0.00    -0.00     0.00     0.00     0.00
eigval :        8.41     9.10    10.59    12.22    19.55    22.28
eigval :       29.50    30.19    31.52    34.00    41.00    51.32
eigval :       54.51    62.56    74.43    80.16    84.24    95.09
eigval :       98.51   103.91   108.01   112.97   122.31   133.76
eigval :      143.07   148.84   153.97   178.44   180.55   191.22
eigval :      202.22   207.14   215.50   215.89   237.31   239.67
eigval :      248.49   252.52   257.05   271.29   278.46   310.19
eigval :      333.55   350.61   353.72   361.81   367.01   368.28
eigval :      369.63   378.96   382.92   389.15   389.75   395.06
eigval :      400.63   401.13   404.07   407.62   411.29   414.52
eigval :      422.74   426.50   428.12   440.93   450.92   463.15
eigval :      476.65   479.27   486.61   488.58   499.79   508.79
eigval :      550.13   550.66   556.49   559.35   561.98   571.67
eigval :      577.23   582.99   586.25   589.25   592.68   594.23
eigval :      596.03   605.49   605.86   622.34   633.36   640.08
eigval :      653.78   654.39   660.21   663.32   663.93   665.55
eigval :      673.95   690.97   691.25   691.88   692.19   694.44
eigval :      698.12   702.58   708.89   720.16   723.32   760.87
eigval :      762.09   767.60   772.62   774.59   799.65   806.31
eigval :      807.82   812.04   813.93   822.79   833.01   835.93
eigval :      843.76   866.83   867.33   868.54   871.05   871.36
eigval :      872.18   874.38   874.70   894.91   897.08   898.42
eigval :      901.80   907.26   908.42   908.97   909.90   911.78
eigval :      913.42   919.51   923.21   923.98   924.37   924.87
eigval :      925.69   926.26   926.35   927.43   947.59   971.75
eigval :      982.42   983.85   989.48   993.63  1026.52  1042.56
eigval :     1043.09  1057.92  1067.43  1068.64  1073.07  1074.88
eigval :     1076.15  1077.18  1091.95  1093.60  1107.72  1108.55
eigval :     1122.80  1125.88  1134.99  1144.50  1152.44  1154.05
eigval :     1156.47  1161.50  1169.89  1170.75  1176.33  1177.28
eigval :     1178.70  1180.33  1181.13  1189.02  1191.16  1206.16
eigval :     1212.16  1222.00  1223.54  1225.41  1232.83  1234.11
eigval :     1245.32  1251.61  1257.02  1267.15  1268.32  1269.05
eigval :     1273.00  1276.06  1296.73  1302.51  1324.61  1328.89
eigval :     1330.01  1332.05  1332.21  1334.84  1335.11  1340.49
eigval :     1341.45  1346.25  1356.92  1393.48  1394.76  1396.21
eigval :     1403.49  1406.58  1414.67  1417.71  1423.22  1425.62
eigval :     1429.26  1433.82  1435.30  1446.85  1458.51  1461.57
eigval :     1462.56  1465.67  1474.81  1478.83  1479.86  1483.59
eigval :     1536.48  1538.13  1545.53  1549.11  1554.47  1559.63
eigval :     1562.18  1564.89  1567.86  1569.00  1572.33  1581.53
eigval :     1581.79  1582.11  1582.49  1591.39  1596.02  3071.34
eigval :     3071.54  3074.28  3074.59  3075.76  3077.59  3080.44
eigval :     3080.60  3085.74  3086.08  3086.35  3086.57  3087.80
eigval :     3088.35  3088.44  3088.90  3093.04  3093.22  3094.36
eigval :     3094.63  3094.97  3095.22  3095.38  3095.85  3096.54
eigval :     3097.09  3097.48  3098.55  3099.00  3099.50  3099.67
eigval :     3099.86  3100.01  3100.99

   temp. (K)  partition function   enthalpy   heat capacity  entropy
                                   cal/mol     cal/K/mol   cal/K/mol   J/K/mol
 298.15  VIB  0.161E+25            29681.229    185.150    185.770
         ROT  0.451E+09              888.752      2.981     42.579
         INT  0.725E+33            30569.982    188.130    228.349
         TR   0.235E+29             1481.254      4.968     46.038
         TOT                       32051.2356   193.0986   274.3868  1148.0345

       T/K    H(0)-H(T)+PV         H(T)/Eh          T*S/Eh         G(T)/Eh
   ------------------------------------------------------------------------
    298.15    0.510769E-01    0.766589E+00    0.130370E+00    0.636219E+00
   ------------------------------------------------------------------------

         :::::::::::::::::::::::::::::::::::::::::::::::::::::
         ::                  THERMODYNAMIC                  ::
         :::::::::::::::::::::::::::::::::::::::::::::::::::::
         :: total free energy        -157.039736004910 Eh   ::
         ::.................................................::
         :: total energy             -157.675955471776 Eh   ::
         :: zero point energy           0.715512603795 Eh   ::
         :: G(RRHO) w/o ZPVE           -0.079293136929 Eh   ::
         :: G(RRHO) contrib.            0.636219466866 Eh   ::
         :::::::::::::::::::::::::::::::::::::::::::::::::::::

           -------------------------------------------------
          | TOTAL ENERGY             -157.675955471776 Eh   |
          | TOTAL ENTHALPY           -156.909365972861 Eh   |
          | TOTAL FREE ENERGY        -157.039736004910 Eh   |
          | GRADIENT NORM               0.000060593966 Eh/α |
          | HOMO-LUMO GAP               0.163641717048 eV   |
           -------------------------------------------------

 * finished run on 2025/09/03 at 17:25:48.759
