   * xtb version 6.7.1 (edcfbbe) compiled by 'albert@albert-system' on 2024-07-22

   ID    Z sym.   atoms
    1    7 N      1, 17
    2    6 C      2-16, 18-26
    3    1 H      27-42

          program call               : xtb data2507/toluene/CNDSB/CNDSB_toluene_S0_crest.xyz --gfn 2 --gbsa toluene --ohess vtight --parallel 40 --molden --ceasefiles --namespace data2507/toluene/CNDSB/CNDSB_toluene_S0_finalOpt
      * Solvation model:               GBSA
        Solvent                        toluene
        Solvent mass                       9.2140E+01 g/mol
          :  Hamiltonian                  GFN2-xTB          :
 * total energy  :   -65.2918231 Eh     change       -0.2535728E-08 Eh
 * total energy  :   -65.2918437 Eh     change       -0.2060865E-04 Eh
 * total energy  :   -65.2918311 Eh     change        0.1258007E-04 Eh
 * total energy  :   -65.2918492 Eh     change       -0.1803044E-04 Eh
 * total energy  :   -65.2918516 Eh     change       -0.2424737E-05 Eh
 * total energy  :   -65.2918520 Eh     change       -0.3764964E-06 Eh
 * total energy  :   -65.2918498 Eh     change        0.2115422E-05 Eh
 * total energy  :   -65.2918550 Eh     change       -0.5182447E-05 Eh
 * total energy  :   -65.2918560 Eh     change       -0.9271522E-06 Eh
 * total energy  :   -65.2918569 Eh     change       -0.9838224E-06 Eh
 * total energy  :   -65.2918604 Eh     change       -0.2201677E-06 Eh
 * total energy  :   -65.2918607 Eh     change       -0.3108763E-06 Eh
 * total energy  :   -65.2918610 Eh     change       -0.3333250E-06 Eh
 * total energy  :   -65.2918615 Eh     change       -0.4457837E-06 Eh
 * total energy  :   -65.2918619 Eh     change       -0.4729762E-06 Eh
 * total energy  :   -65.2918622 Eh     change       -0.2840934E-06 Eh
 * total energy  :   -65.2918625 Eh     change       -0.2491159E-06 Eh
 * total energy  :   -65.2918627 Eh     change       -0.2179239E-06 Eh
 * total energy  :   -65.2918627 Eh     change       -0.9763667E-08 Eh
   *** GEOMETRY OPTIMIZATION CONVERGED AFTER 22 ITERATIONS ***

 final structure:
================
42
 xtb: 6.7.1 (edcfbbe)
N            3.32498812381064        3.02704897241330        0.09516985918962
C            3.15285411394546        1.89093512794630        0.04512015999997
C            2.82805654971653        0.51904002557985       -0.00354323200328
C            3.74211833452003       -0.47997895780483        0.00043243687975
C            5.18588856153890       -0.40390275181380       -0.00941652502561
C            5.90170407814216        0.74203256261014       -0.37005311102484
C            7.28308192630415        0.74043310350750       -0.35722311441775
C            7.98081754300857       -0.39886492715407        0.01326449532308
C            7.28617776446046       -1.54727884543107        0.36147039110166
C            5.90620614248454       -1.55311052165783        0.34292764929643
C            1.37940249795240        0.25055858740754       -0.00582557529422
C            0.50200185703627        1.10019223776281        0.66965164575493
C           -0.85430596240401        0.85000634079842        0.68241219185264
C           -1.38050616616006       -0.25245268656890        0.00877370979494
C           -2.82908457707047       -0.52120865660816        0.00650082503801
C           -3.15375845263506       -1.89308299175916       -0.04424378492395
N           -3.32604439154536       -3.02908728123718       -0.09626562392434
C           -3.74358609440131        0.47741775079010        0.00421062048621
C           -5.18732826992416        0.40044059022990        0.01388178678750
C           -5.90830790347222        1.54913622384364       -0.33875304200934
C           -7.28826517702061        1.54230908050651       -0.35787865213597
C           -7.98222530511862        0.39342960736949       -0.00985542748051
C           -7.28383495990415       -0.74531897739504        0.36106893045001
C           -5.90245766502238       -0.74592981067473        0.37447514696326
C           -0.50308596333461       -1.10201486091467       -0.66680047707386
C            0.85322244113267       -0.85187658396620       -0.67949635888553
H            3.34854585531758       -1.48782251244229        0.05526079549591
H            5.37354504681097        1.63088111358931       -0.67672834262917
H            7.81898050213398        1.63425781992066       -0.64096427015356
H            9.06057608713366       -0.39327526112271        0.02398697695762
H            7.82428076197214       -2.44026133504123        0.64387699144665
H            5.36944636323295       -2.45065471861530        0.61597840667226
H            0.89248202360910        1.95456915163521        1.20398732851721
H           -1.50694074731784        1.50521635059453        1.23955916572557
H           -3.35061034914886        1.48556121372883       -0.04922057877269
H           -5.37205940907315        2.44699799000808       -0.61176266448018
H           -7.82689015955019        2.43481708540314       -0.64079455750821
H           -9.06197560364698        0.38710476091298       -0.02096445415681
H           -7.81922309578078       -1.63938648018331        0.64501688658184
H           -5.37378362851540       -1.63435510419441        0.68149764084354
H           -0.89354392460350       -1.95634502453078       -1.20122360358614
H            1.50591474678642       -1.50707535944170       -1.23659553517273

          :  Hamiltonian                  GFN2-xTB          :
         :: gradient norm              0.000125002830 Eh/a0 ::
         :: HOMO-LUMO gap              2.255016381415 eV    ::
         :: SCC energy               -66.614822529221 Eh    ::
         :: -> dispersion             -0.048046089185 Eh    ::
         :: -> Gsolv                  -0.035575718156 Eh    ::
         :: repulsion energy           1.322959830902 Eh    ::

    * Orbital Energies and Occupations

         #    Occupation            Energy/Eh            Energy/eV
      -------------------------------------------------------------
         1        2.0000           -0.6678518             -18.1732
       ...           ...                  ...                  ...
        49        2.0000           -0.4423027             -12.0357
        50        2.0000           -0.4361221             -11.8675
        51        2.0000           -0.4351033             -11.8398
        52        2.0000           -0.4298299             -11.6963
        53        2.0000           -0.4278772             -11.6431
        54        2.0000           -0.4267877             -11.6135
        55        2.0000           -0.4266262             -11.6091
        56        2.0000           -0.4226360             -11.5005
        57        2.0000           -0.4208697             -11.4524
        58        2.0000           -0.4149128             -11.2904
        59        2.0000           -0.4149040             -11.2901
        60        2.0000           -0.4007699             -10.9055
        61        2.0000           -0.3854566             -10.4888 (HOMO)
        62                         -0.3025863              -8.2338 (LUMO)
        63                         -0.2900233              -7.8919
        64                         -0.2391875              -6.5086
        65                         -0.2352596              -6.4017
        66                         -0.2323551              -6.3227
        67                         -0.2323154              -6.3216
        68                         -0.2155097              -5.8643
        69                         -0.2136943              -5.8149
        70                         -0.2124749              -5.7817
        71                         -0.2113981              -5.7524
        72                         -0.1534319              -4.1751
       ...                                ...                  ...
       120                          1.1452271              31.1632
      -------------------------------------------------------------
                  HL-Gap            0.0828703 Eh            2.2550 eV

     #   Z          covCN         q      C6AA      α(0)
     1   7 N        0.911    -0.286    27.365     7.566
     2   6 C        1.913     0.127    27.990     8.544
     3   6 C        2.950     0.004    27.925     8.667
     4   6 C        2.913    -0.022    28.551     8.762
     5   6 C        2.968     0.015    27.682     8.630
     6   6 C        2.922    -0.029    28.735     8.791
     7   6 C        2.917    -0.026    28.655     8.778
     8   6 C        2.920    -0.024    28.594     8.769
     9   6 C        2.916    -0.027    28.679     8.782
    10   6 C        2.929    -0.030    28.753     8.794
    11   6 C        2.986     0.016    27.648     8.625
    12   6 C        2.922    -0.031    28.767     8.795
    13   6 C        2.921    -0.033    28.816     8.803
    14   6 C        2.986     0.016    27.648     8.625
    15   6 C        2.950     0.004    27.924     8.667
    16   6 C        1.913     0.127    27.990     8.544
    17   7 N        0.911    -0.286    27.364     7.566
    18   6 C        2.913    -0.022    28.551     8.762
    19   6 C        2.968     0.015    27.682     8.630
    20   6 C        2.929    -0.030    28.753     8.794
    21   6 C        2.916    -0.027    28.679     8.782
    22   6 C        2.920    -0.024    28.594     8.769
    23   6 C        2.917    -0.026    28.655     8.778
    24   6 C        2.922    -0.029    28.735     8.791
    25   6 C        2.922    -0.031    28.767     8.796
    26   6 C        2.921    -0.033    28.816     8.803
    27   1 H        0.925     0.058     2.218     2.329
    28   1 H        0.926     0.038     2.477     2.461
    29   1 H        0.926     0.040     2.453     2.449
    30   1 H        0.926     0.042     2.420     2.433
    31   1 H        0.926     0.042     2.425     2.435
    32   1 H        0.926     0.042     2.416     2.431
    33   1 H        0.926     0.038     2.481     2.463
    34   1 H        0.926     0.046     2.376     2.410
    35   1 H        0.925     0.058     2.218     2.329
    36   1 H        0.926     0.042     2.416     2.431
    37   1 H        0.926     0.042     2.425     2.435
    38   1 H        0.926     0.042     2.420     2.433
    39   1 H        0.926     0.040     2.453     2.449
    40   1 H        0.926     0.038     2.478     2.461
    41   1 H        0.926     0.038     2.481     2.463
    42   1 H        0.926     0.046     2.376     2.410

molecular dipole:
                 x           y           z       tot (Debye)
 q only:       -0.000      -0.000       0.002
   full:       -0.000      -0.001       0.003       0.007

 projected vibrational frequencies (cm⁻¹)
eigval :       -0.00    -0.00    -0.00    -0.00     0.00     0.00
eigval :       12.24    22.05    27.31    31.64    38.45    49.61
eigval :       63.75    81.28   109.59   128.81   138.43   150.16
eigval :      174.73   177.86   247.05   254.18   281.76   300.88
eigval :      307.07   351.58   362.09   366.35   367.51   373.47
eigval :      382.90   435.17   456.19   485.96   496.66   537.99
eigval :      552.50   572.54   586.20   587.49   593.77   618.32
eigval :      619.44   655.90   658.34   668.91   697.84   742.21
eigval :      749.78   762.40   792.08   808.89   837.88   854.92
eigval :      862.07   865.34   866.78   878.74   879.96   904.30
eigval :      904.40   916.83   925.60   929.71   929.74   933.55
eigval :      933.56   970.44   984.46   993.03  1038.47  1054.17
eigval :     1083.52  1083.52  1126.18  1126.27  1148.51  1180.85
eigval :     1180.88  1195.39  1195.91  1204.07  1219.43  1219.86
eigval :     1258.07  1276.08  1284.40  1284.96  1289.92  1312.77
eigval :     1321.40  1324.58  1345.19  1346.52  1401.92  1429.50
eigval :     1429.64  1464.82  1466.70  1480.75  1551.64  1563.33
eigval :     1568.28  1572.22  1575.77  1590.38  1606.39  1609.06
eigval :     2336.59  2337.34  3053.48  3053.59  3070.72  3070.73
eigval :     3077.88  3078.27  3078.29  3078.98  3083.43  3083.48
eigval :     3090.80  3092.51  3093.26  3093.35  3116.52  3116.63

   temp. (K)  partition function   enthalpy   heat capacity  entropy
                                   cal/mol     cal/K/mol   cal/K/mol   J/K/mol
 298.15  VIB  0.135E+11            12401.772     75.232     77.868
         ROT  0.164E+08              888.752      2.981     35.993
         INT  0.220E+18            13290.524     78.213    113.861
         TR   0.586E+28             1481.254      4.968     43.279
         TOT                       14771.7778    83.1811   157.1394   657.4711

       T/K    H(0)-H(T)+PV         H(T)/Eh          T*S/Eh         G(T)/Eh
   ------------------------------------------------------------------------
    298.15    0.235403E-01    0.339449E+00    0.746620E-01    0.264787E+00
   ------------------------------------------------------------------------

         :::::::::::::::::::::::::::::::::::::::::::::::::::::
         ::                  THERMODYNAMIC                  ::
         :::::::::::::::::::::::::::::::::::::::::::::::::::::
         :: total free energy         -65.027075811281 Eh   ::
         ::.................................................::
         :: total energy              -65.291862700780 Eh   ::
         :: zero point energy           0.315908546120 Eh   ::
         :: G(RRHO) w/o ZPVE           -0.051121656622 Eh   ::
         :: G(RRHO) contrib.            0.264786889499 Eh   ::
         :::::::::::::::::::::::::::::::::::::::::::::::::::::

           -------------------------------------------------
          | TOTAL ENERGY              -65.291862700780 Eh   |
          | TOTAL ENTHALPY            -64.952413828261 Eh   |
          | TOTAL FREE ENERGY         -65.027075811281 Eh   |
          | GRADIENT NORM               0.000124987380 Eh/α |
          | HOMO-LUMO GAP               2.255016090646 eV   |
           -------------------------------------------------

 * finished run on 2025/08/29 at 14:44:59.185
