   * xtb version 6.7.1 (edcfbbe) compiled by 'albert@albert-system' on 2024-07-22

   ID    Z sym.   atoms
    1    7 N      1, 17
    2    6 C      2-16, 18-26
    3    1 H      27-42

          program call               : xtb data2507/toluene/CNDSB/CNDSB.xyz --gfn 2 --gbsa toluene --ohess vtight --parallel 40 --molden --ceasefiles --namespace data2507/toluene/CNDSB/CNDSB_toluene_S0_preOpt
      * Solvation model:               GBSA
        Solvent                        toluene
        Solvent mass                       9.2140E+01 g/mol
          :  Hamiltonian                  GFN2-xTB          :
 * total energy  :   -65.2753996 Eh     change       -0.9451497E-09 Eh
 * total energy  :   -65.2811193 Eh     change       -0.5719713E-02 Eh
 * total energy  :   -65.2819963 Eh     change       -0.8769396E-03 Eh
 * total energy  :   -65.2821017 Eh     change       -0.1053701E-03 Eh
 * total energy  :   -65.2827365 Eh     change       -0.6348123E-03 Eh
 * total energy  :   -65.2831532 Eh     change       -0.4167341E-03 Eh
 * total energy  :   -65.2838729 Eh     change       -0.7196833E-03 Eh
 * total energy  :   -65.2844123 Eh     change       -0.5394429E-03 Eh
 * total energy  :   -65.2849644 Eh     change       -0.5520466E-03 Eh
 * total energy  :   -65.2853520 Eh     change       -0.3876168E-03 Eh
 * total energy  :   -65.2917149 Eh     change       -0.2785388E-06 Eh
 * total energy  :   -65.2917150 Eh     change       -0.1295942E-06 Eh
 * total energy  :   -65.2917152 Eh     change       -0.1960243E-06 Eh
 * total energy  :   -65.2917154 Eh     change       -0.1927495E-06 Eh
 * total energy  :   -65.2917156 Eh     change       -0.2020754E-06 Eh
 * total energy  :   -65.2917158 Eh     change       -0.1576591E-06 Eh
 * total energy  :   -65.2917159 Eh     change       -0.1278546E-06 Eh
 * total energy  :   -65.2917161 Eh     change       -0.1746090E-06 Eh
 * total energy  :   -65.2917161 Eh     change       -0.4279569E-07 Eh
   *** GEOMETRY OPTIMIZATION CONVERGED AFTER 81 ITERATIONS ***

 final structure:
================
42
 xtb: 6.7.1 (edcfbbe)
N            3.64509443041067       -1.74481964712048       -2.64790027769315
C            3.33500872638787       -1.11995156674657       -1.73371494746845
C            2.85317822454148       -0.35171641252630       -0.65271546540045
C            3.65075900908697        0.22396860630980        0.27711555571968
C            5.08754288340539        0.13571018048786        0.42120833724667
C            5.85473609862007       -0.90105398523815       -0.11843929527595
C            7.22438355666328       -0.92701958156908        0.06058826202681
C            7.85810332555724        0.07747893630409        0.77576841158412
C            7.10935266457255        1.10557401099808        1.32821818865357
C            5.73938268092204        1.13001448326215        1.16193745163434
C            1.39080297956771       -0.17474329201134       -0.64781753043963
C            0.68429075100755       -0.08764713647771        0.55184367093929
C           -0.68415479727160        0.08400017149333        0.55195026782658
C           -1.39068142447006        0.17236378473409       -0.64760533773026
C           -2.85292468204535        0.35041781186294       -0.65234408613283
C           -3.33399978863253        1.11981362669487       -1.73284678793492
N           -3.64335463852802        1.74560105966522       -2.64662758880031
C           -3.65105589779381       -0.22501814210069        0.27716655341121
C           -5.08776792418025       -0.13555065561150        0.42121265204516
C           -5.74049767776563       -1.12939322914240        1.16177082054093
C           -7.11044616545345       -1.10377712206199        1.32802260018854
C           -7.85830909826297       -0.07504842256107        0.77557443835901
C           -7.22371253191117        0.92895930811142        0.06050275093774
C           -5.85406315801219        0.90192363050724       -0.11833153220776
C           -0.68359841173920        0.09077361570558       -1.84774540147849
C            0.68365046921135       -0.09245194029365       -1.84785938916814
H            3.16468176742971        0.87534543881061        0.99334764117678
H            5.37307481544620       -1.69848354866676       -0.66245881386247
H            7.80112028890395       -1.73749477580473       -0.36029295463285
H            8.92951267913982        0.05411382411001        0.90856247430448
H            7.59671024928877        1.88702286798132        1.89280591928307
H            5.15962175099494        1.93364994725376        1.59352842052862
H            1.20868715245988       -0.17154762704204        1.49208244559500
H           -1.20849711126456        0.16707452658814        1.49229283980528
H           -3.16564442578064       -0.87729124405446        0.99302301052725
H           -5.16141049329427       -1.93346564049437        1.59344791681071
H           -7.59848173856470       -1.88472136042941        1.89272807902047
H           -8.92969734537996       -0.05077513556109        0.90836828139796
H           -7.79970498838698        1.74003333191982       -0.36020652280642
H           -5.37170716751011        1.69905137084464       -0.66214027480212
H           -1.21382676675262        0.15800047052172       -2.78691622946774
H            1.21384172938132       -0.15891953866809       -2.78710655423366

          :  Hamiltonian                  GFN2-xTB          :
         :: gradient norm              0.000179614952 Eh/a0 ::
         :: HOMO-LUMO gap              2.281973575280 eV    ::
         :: SCC energy               -66.615186544297 Eh    ::
         :: -> dispersion             -0.048067314556 Eh    ::
         :: -> Gsolv                  -0.036362542393 Eh    ::
         :: repulsion energy           1.323470419980 Eh    ::

    * Orbital Energies and Occupations

         #    Occupation            Energy/Eh            Energy/eV
      -------------------------------------------------------------
         1        2.0000           -0.6680489             -18.1785
       ...           ...                  ...                  ...
        49        2.0000           -0.4406859             -11.9917
        50        2.0000           -0.4368729             -11.8879
        51        2.0000           -0.4351357             -11.8406
        52        2.0000           -0.4295082             -11.6875
        53        2.0000           -0.4277532             -11.6398
        54        2.0000           -0.4269113             -11.6168
        55        2.0000           -0.4244624             -11.5502
        56        2.0000           -0.4238680             -11.5340
        57        2.0000           -0.4212426             -11.4626
        58        2.0000           -0.4148161             -11.2877
        59        2.0000           -0.4148103             -11.2876
        60        2.0000           -0.4008508             -10.9077
        61        2.0000           -0.3857445             -10.4966 (HOMO)
        62                         -0.3018835              -8.2147 (LUMO)
        63                         -0.2892784              -7.8717
        64                         -0.2393141              -6.5121
        65                         -0.2355768              -6.4104
        66                         -0.2323942              -6.3238
        67                         -0.2323405              -6.3223
        68                         -0.2151336              -5.8541
        69                         -0.2144190              -5.8346
        70                         -0.2118954              -5.7660
        71                         -0.2116832              -5.7602
        72                         -0.1536508              -4.1811
       ...                                ...                  ...
       120                          1.1464823              31.1974
      -------------------------------------------------------------
                  HL-Gap            0.0838610 Eh            2.2820 eV

     #   Z          covCN         q      C6AA      α(0)
     1   7 N        0.911    -0.285    27.358     7.565
     2   6 C        1.913     0.126    28.002     8.546
     3   6 C        2.951     0.005    27.912     8.665
     4   6 C        2.914    -0.022    28.553     8.762
     5   6 C        2.969     0.015    27.682     8.630
     6   6 C        2.922    -0.029    28.727     8.789
     7   6 C        2.917    -0.026    28.655     8.778
     8   6 C        2.920    -0.024    28.602     8.770
     9   6 C        2.916    -0.027    28.681     8.782
    10   6 C        2.928    -0.030    28.761     8.795
    11   6 C        2.986     0.016    27.647     8.625
    12   6 C        2.922    -0.033    28.827     8.805
    13   6 C        2.922    -0.033    28.827     8.805
    14   6 C        2.986     0.016    27.647     8.625
    15   6 C        2.951     0.005    27.913     8.665
    16   6 C        1.913     0.126    28.002     8.546
    17   7 N        0.911    -0.285    27.358     7.565
    18   6 C        2.913    -0.022    28.553     8.762
    19   6 C        2.969     0.015    27.682     8.630
    20   6 C        2.928    -0.030    28.761     8.795
    21   6 C        2.916    -0.027    28.681     8.782
    22   6 C        2.920    -0.024    28.602     8.770
    23   6 C        2.917    -0.026    28.655     8.778
    24   6 C        2.922    -0.029    28.728     8.789
    25   6 C        2.922    -0.030    28.747     8.793
    26   6 C        2.922    -0.030    28.747     8.793
    27   1 H        0.925     0.060     2.204     2.322
    28   1 H        0.926     0.037     2.491     2.468
    29   1 H        0.926     0.039     2.456     2.451
    30   1 H        0.926     0.042     2.424     2.435
    31   1 H        0.926     0.042     2.427     2.436
    32   1 H        0.926     0.043     2.415     2.430
    33   1 H        0.926     0.048     2.339     2.392
    34   1 H        0.926     0.048     2.339     2.392
    35   1 H        0.925     0.060     2.205     2.322
    36   1 H        0.926     0.043     2.415     2.430
    37   1 H        0.926     0.042     2.427     2.436
    38   1 H        0.926     0.042     2.424     2.435
    39   1 H        0.926     0.039     2.456     2.451
    40   1 H        0.926     0.037     2.491     2.468
    41   1 H        0.926     0.035     2.517     2.481
    42   1 H        0.926     0.035     2.517     2.481

molecular dipole:
                 x           y           z       tot (Debye)
 q only:       -0.001      -0.001       2.462
   full:       -0.001      -0.001       2.977       7.566

 projected vibrational frequencies (cm⁻¹)
eigval :       -0.00    -0.00     0.00     0.00     0.00     0.00
eigval :       11.88    21.22    31.03    35.78    37.35    62.38
eigval :       68.98    72.47   125.88   128.36   128.79   148.55
eigval :      162.34   189.15   247.12   249.69   286.60   291.06
eigval :      327.28   349.76   367.30   369.05   375.92   376.75
eigval :      377.70   429.97   461.52   482.74   499.69   544.20
eigval :      550.35   573.07   586.25   587.26   597.05   607.27
eigval :      626.19   656.32   660.37   669.50   697.97   739.63
eigval :      748.26   765.74   793.19   810.99   838.79   854.96
eigval :      863.80   864.52   869.21   874.96   879.45   906.09
eigval :      906.20   917.28   927.20   927.50   927.71   935.00
eigval :      935.07   970.90   984.61   993.05  1038.24  1054.89
eigval :     1083.09  1083.14  1125.40  1125.54  1148.47  1180.83
eigval :     1180.84  1194.99  1195.16  1204.34  1217.92  1220.49
eigval :     1258.87  1276.16  1283.03  1286.64  1289.96  1312.77
eigval :     1319.11  1324.50  1341.01  1343.13  1403.21  1429.43
eigval :     1429.54  1464.94  1467.48  1481.03  1553.85  1564.22
eigval :     1569.12  1572.59  1577.15  1590.90  1606.72  1609.30
eigval :     2338.76  2339.61  3053.21  3053.30  3070.98  3071.05
eigval :     3077.36  3077.60  3077.65  3080.75  3083.19  3083.21
eigval :     3088.43  3092.08  3092.82  3092.90  3109.80  3110.11

   temp. (K)  partition function   enthalpy   heat capacity  entropy
                                   cal/mol     cal/K/mol   cal/K/mol   J/K/mol
 298.15  VIB  0.930E+10            12359.031     75.470     77.632
         ROT  0.864E+07              888.752      2.981     34.720
         INT  0.803E+17            13247.783     78.450    112.352
         TR   0.586E+28             1481.254      4.968     43.279
         TOT                       14729.0374    83.4186   155.6307   651.1588

       T/K    H(0)-H(T)+PV         H(T)/Eh          T*S/Eh         G(T)/Eh
   ------------------------------------------------------------------------
    298.15    0.234722E-01    0.339470E+00    0.739452E-01    0.265525E+00
   ------------------------------------------------------------------------

         :::::::::::::::::::::::::::::::::::::::::::::::::::::
         ::                  THERMODYNAMIC                  ::
         :::::::::::::::::::::::::::::::::::::::::::::::::::::
         :: total free energy         -65.026191300170 Eh   ::
         ::.................................................::
         :: total energy              -65.291716123687 Eh   ::
         :: zero point energy           0.315997766970 Eh   ::
         :: G(RRHO) w/o ZPVE           -0.050472943453 Eh   ::
         :: G(RRHO) contrib.            0.265524823517 Eh   ::
         :::::::::::::::::::::::::::::::::::::::::::::::::::::

           -------------------------------------------------
          | TOTAL ENERGY              -65.291716123687 Eh   |
          | TOTAL ENTHALPY            -64.952246141577 Eh   |
          | TOTAL FREE ENERGY         -65.026191300170 Eh   |
          | GRADIENT NORM               0.000179455623 Eh/α |
          | HOMO-LUMO GAP               2.281974481871 eV   |
           -------------------------------------------------

 * finished run on 2025/08/29 at 14:44:03.296
