   * xtb version 6.7.1 (edcfbbe) compiled by 'albert@albert-system' on 2024-07-22

   ID    Z sym.   atoms
    1    7 N      1, 17
    2    6 C      2-16, 18-26
    3    1 H      27-42

          program call               : xtb data2507/toluene/CNDSB/CNDSB_toluene_T1_crest.xyz --gfn 2 --uhf 2 --gbsa toluene --ohess vtight --parallel 40 --molden --ceasefiles --namespace data2507/toluene/CNDSB/CNDSB_toluene_T1_finalOpt
      * Solvation model:               GBSA
        Solvent                        toluene
        Solvent mass                       9.2140E+01 g/mol
          :  Hamiltonian                  GFN2-xTB          :
 * total energy  :   -65.2217975 Eh     change       -0.9611938E-09 Eh
 * total energy  :   -65.2217684 Eh     change        0.2913424E-04 Eh
 * total energy  :   -65.2218373 Eh     change       -0.6896363E-04 Eh
 * total energy  :   -65.2218433 Eh     change       -0.5966799E-05 Eh
 * total energy  :   -65.2218527 Eh     change       -0.9399177E-05 Eh
 * total energy  :   -65.2218576 Eh     change       -0.4934289E-05 Eh
 * total energy  :   -65.2218703 Eh     change       -0.1270886E-04 Eh
 * total energy  :   -65.2218814 Eh     change       -0.1108611E-04 Eh
 * total energy  :   -65.2219027 Eh     change       -0.2128249E-04 Eh
 * total energy  :   -65.2219193 Eh     change       -0.1663977E-04 Eh
 * total energy  :   -65.2219643 Eh     change       -0.3992288E-06 Eh
 * total energy  :   -65.2219643 Eh     change        0.3498718E-07 Eh
 * total energy  :   -65.2219641 Eh     change        0.2350620E-06 Eh
 * total energy  :   -65.2219647 Eh     change       -0.6330911E-06 Eh
 * total energy  :   -65.2219650 Eh     change       -0.2889929E-06 Eh
 * total energy  :   -65.2219652 Eh     change       -0.1775429E-06 Eh
 * total energy  :   -65.2219651 Eh     change        0.9595800E-07 Eh
 * total energy  :   -65.2219655 Eh     change       -0.3946194E-06 Eh
 * total energy  :   -65.2219656 Eh     change       -0.8036105E-07 Eh
   *** GEOMETRY OPTIMIZATION CONVERGED AFTER 28 ITERATIONS ***

 final structure:
================
42
 xtb: 6.7.1 (edcfbbe)
N            3.40821797813798        2.99515219012013       -0.25041229401832
C            3.16801291443127        1.87344723823202       -0.13937550993289
C            2.80320744146850        0.52361382098499        0.01851820790526
C            3.77776013816045       -0.46276416920641        0.26274345072884
C            5.18273791069340       -0.38573291375143        0.14213411135181
C            5.87602171390350        0.66401280154899       -0.50293765303811
C            7.24943337660073        0.65624640639149       -0.58380446688814
C            7.98775857166035       -0.38676409679617       -0.03472182111305
C            7.32820483862720       -1.44140454190376        0.58960061658764
C            5.95701044134856       -1.44890222466598        0.67092004892173
C            1.40766713403158        0.25016976658774       -0.00161832050346
C            0.45689193739068        1.30909028740271       -0.02224793311375
C           -0.88276850609734        1.07498710767116       -0.01547075081578
C           -1.40658490341337       -0.24778828040560       -0.00656527995535
C           -2.80223032164690       -0.52186630640271        0.00815576441298
C           -3.16582068900520       -1.86984906456196       -0.16757872597002
N           -3.40473601028320       -2.99031909819396       -0.29285386825504
C           -3.77732725594350        0.46118986583522        0.26234482409969
C           -5.18247011723958        0.38489867555836        0.14189415944097
C           -5.95626584001934        1.44403566272713        0.67933210156860
C           -7.32756006445310        1.43709472534972        0.59940506753785
C           -7.98775389502434        0.38683909695727       -0.03156088341410
C           -7.24994838844820       -0.65206623757227       -0.58901135116713
C           -5.87640016798525       -0.66007625912767       -0.51010217196947
C           -0.45574542072271       -1.30632516425175       -0.03996805497726
C            0.88390013392479       -1.07238425736745       -0.02848548085788
H            3.40387656925778       -1.40791536092030        0.63076933109141
H            5.32097295952368        1.47019667850530       -0.95405642543275
H            7.75734145942499        1.46822008993253       -1.08353365387442
H            9.06514891781927       -0.38215639516820       -0.09993209489338
H            7.89761821951397       -2.25737332183459        1.01014577406419
H            5.44984672857950       -2.26887410618041        1.15898409393098
H            0.81813194351065        2.32727134219069       -0.03274905620959
H           -1.55562436007694        1.91728043112948       -0.04218814729615
H           -3.40392665822959        1.40299154483361        0.63929104563999
H           -5.44869902055369        2.26059616335102        1.17267341983841
H           -7.89650872976885        2.25005157462950        1.02637483541236
H           -9.06522757009754        0.38249121807838       -0.09541067602628
H           -7.75830852184752       -1.46061577753679       -1.09380426578482
H           -5.32191787519960       -1.46301196485807       -0.96761550655430
H           -0.81689420420197       -2.32429078235692       -0.06419347444813
H            1.55692963614751       -1.91415971465727       -0.06546835122164

          :  Hamiltonian                  GFN2-xTB          :
         :: gradient norm              0.000057155966 Eh/a0 ::
         :: HOMO-LUMO gap              0.556560527130 eV    ::
         :: SCC energy               -66.524087615045 Eh    ::
         :: -> dispersion             -0.048146297117 Eh    ::
         :: -> Gsolv                  -0.035842449784 Eh    ::
         :: repulsion energy           1.302122060726 Eh    ::

    * Orbital Energies and Occupations

         #    Occupation            Energy/Eh            Energy/eV
      -------------------------------------------------------------
         1        2.0000           -0.6683591             -18.1870
       ...           ...                  ...                  ...
        50        2.0000           -0.4373863             -11.9019
        51        2.0000           -0.4359596             -11.8631
        52        2.0000           -0.4310748             -11.7301
        53        2.0000           -0.4285162             -11.6605
        54        2.0000           -0.4279056             -11.6439
        55        2.0000           -0.4270843             -11.6216
        56        2.0000           -0.4249575             -11.5637
        57        2.0000           -0.4194402             -11.4135
        58        2.0000           -0.4164517             -11.3322
        59        2.0000           -0.4163824             -11.3303
        60        2.0000           -0.3986184             -10.8470
        61        1.0000           -0.3732794             -10.1574
        62        1.0000           -0.3147168              -8.5639 (HOMO)
        63        0.0000           -0.2942636              -8.0073 (LUMO)
        64                         -0.2387763              -6.4974
        65                         -0.2353980              -6.4055
        66                         -0.2315676              -6.3013
        67                         -0.2315559              -6.3010
        68                         -0.2145174              -5.8373
        69                         -0.2131751              -5.8008
        70                         -0.2106185              -5.7312
        71                         -0.2101147              -5.7175
        72                         -0.1635029              -4.4491
        73                         -0.1243470              -3.3837
       ...                                ...                  ...
       120                          1.1414237              31.0597
      -------------------------------------------------------------
                  HL-Gap            0.0204532 Eh            0.5566 eV

     #   Z          covCN         q      C6AA      α(0)
     1   7 N        0.911    -0.295    27.601     7.598
     2   6 C        1.916     0.124    28.054     8.554
     3   6 C        2.952     0.005    27.910     8.665
     4   6 C        2.914    -0.036    28.889     8.814
     5   6 C        2.964     0.020    27.558     8.611
     6   6 C        2.919    -0.030    28.750     8.793
     7   6 C        2.914    -0.025    28.620     8.773
     8   6 C        2.919    -0.022    28.556     8.763
     9   6 C        2.913    -0.026    28.644     8.776
    10   6 C        2.928    -0.031    28.776     8.797
    11   6 C        2.983     0.023    27.496     8.601
    12   6 C        2.916    -0.030    28.748     8.792
    13   6 C        2.913    -0.031    28.777     8.796
    14   6 C        2.983     0.023    27.495     8.601
    15   6 C        2.952     0.005    27.910     8.665
    16   6 C        1.916     0.124    28.053     8.554
    17   7 N        0.911    -0.295    27.601     7.598
    18   6 C        2.914    -0.036    28.889     8.814
    19   6 C        2.964     0.020    27.559     8.611
    20   6 C        2.928    -0.031    28.775     8.797
    21   6 C        2.913    -0.026    28.644     8.776
    22   6 C        2.919    -0.022    28.556     8.763
    23   6 C        2.914    -0.025    28.620     8.773
    24   6 C        2.919    -0.030    28.751     8.793
    25   6 C        2.916    -0.030    28.748     8.792
    26   6 C        2.913    -0.031    28.777     8.797
    27   1 H        0.926     0.055     2.257     2.350
    28   1 H        0.926     0.039     2.458     2.452
    29   1 H        0.926     0.040     2.443     2.444
    30   1 H        0.926     0.044     2.400     2.423
    31   1 H        0.926     0.043     2.411     2.428
    32   1 H        0.926     0.043     2.412     2.429
    33   1 H        0.926     0.041     2.441     2.443
    34   1 H        0.926     0.049     2.330     2.387
    35   1 H        0.926     0.055     2.257     2.350
    36   1 H        0.926     0.043     2.412     2.429
    37   1 H        0.926     0.043     2.412     2.428
    38   1 H        0.926     0.044     2.400     2.423
    39   1 H        0.926     0.040     2.443     2.444
    40   1 H        0.926     0.039     2.457     2.451
    41   1 H        0.926     0.041     2.441     2.443
    42   1 H        0.926     0.049     2.330     2.387

molecular dipole:
                 x           y           z       tot (Debye)
 q only:       -0.001      -0.002       0.333
   full:       -0.001      -0.003       0.417       1.061

 projected vibrational frequencies (cm⁻¹)
eigval :       -0.00    -0.00    -0.00     0.00     0.00     0.00
eigval :       18.01    29.04    30.87    33.91    48.44    50.19
eigval :       63.21    84.08   117.49   134.25   139.14   159.81
eigval :      170.22   186.17   214.15   248.66   281.38   293.38
eigval :      300.56   329.81   361.11   364.03   370.64   372.38
eigval :      392.70   428.63   439.51   442.76   461.92   522.98
eigval :      550.90   555.43   574.06   581.01   582.77   585.14
eigval :      593.71   639.94   640.57   659.62   679.07   711.76
eigval :      732.76   749.88   761.17   778.07   783.38   809.97
eigval :      813.51   841.47   845.58   847.35   851.22   886.18
eigval :      886.38   912.51   914.64   924.96   925.06   928.27
eigval :      928.61   948.15   969.49   973.07  1018.89  1025.50
eigval :     1073.86  1075.18  1123.86  1125.25  1128.78  1155.92
eigval :     1177.76  1178.18  1190.60  1212.61  1213.43  1222.45
eigval :     1230.79  1268.92  1285.16  1295.75  1314.49  1315.08
eigval :     1322.03  1341.51  1342.36  1349.10  1358.88  1415.19
eigval :     1419.45  1435.85  1436.66  1444.37  1465.09  1486.10
eigval :     1486.59  1525.91  1526.01  1564.17  1567.20  1583.79
eigval :     2297.20  2308.91  3070.49  3070.53  3074.29  3074.58
eigval :     3079.97  3080.10  3083.11  3083.16  3085.73  3086.26
eigval :     3095.17  3095.39  3102.94  3104.00  3124.41  3124.76

   temp. (K)  partition function   enthalpy   heat capacity  entropy
                                   cal/mol     cal/K/mol   cal/K/mol   J/K/mol
 298.15  VIB  0.547E+10            12594.700     77.347     78.308
         ROT  0.821E+07              888.752      2.981     34.619
         INT  0.449E+17            13483.453     80.328    112.927
         TR   0.586E+28             1481.254      4.968     43.279
         TOT                       14964.7067    85.2964   156.2062   653.5668

       T/K    H(0)-H(T)+PV         H(T)/Eh          T*S/Eh         G(T)/Eh
   ------------------------------------------------------------------------
    298.15    0.238478E-01    0.336410E+00    0.742186E-01    0.262191E+00
   ------------------------------------------------------------------------

         :::::::::::::::::::::::::::::::::::::::::::::::::::::
         ::                  THERMODYNAMIC                  ::
         :::::::::::::::::::::::::::::::::::::::::::::::::::::
         :: total free energy         -64.959774587071 Eh   ::
         ::.................................................::
         :: total energy              -65.221965551947 Eh   ::
         :: zero point energy           0.312561801931 Eh   ::
         :: G(RRHO) w/o ZPVE           -0.050370837055 Eh   ::
         :: G(RRHO) contrib.            0.262190964876 Eh   ::
         :::::::::::::::::::::::::::::::::::::::::::::::::::::

           -------------------------------------------------
          | TOTAL ENERGY              -65.221965551947 Eh   |
          | TOTAL ENTHALPY            -64.885555971837 Eh   |
          | TOTAL FREE ENERGY         -64.959774587071 Eh   |
          | GRADIENT NORM               0.000057183953 Eh/α |
          | HOMO-LUMO GAP               0.556559786751 eV   |
           -------------------------------------------------

 * finished run on 2025/08/29 at 14:45:59.951
