   * xtb version 6.7.1 (edcfbbe) compiled by 'albert@albert-system' on 2024-07-22

   ID    Z sym.   atoms
    1    7 N      1, 17
    2    6 C      2-16, 18-26
    3    1 H      27-42

          program call               : xtb data2507/toluene/CNDSB/CNDSB_toluene_S0_finalOpt.xtbopt.xyz --gfn 2 --uhf 2 --gbsa toluene --ohess vtight --parallel 40 --molden --ceasefiles --namespace data2507/toluene/CNDSB/CNDSB_toluene_T1_preOpt
      * Solvation model:               GBSA
        Solvent                        toluene
        Solvent mass                       9.2140E+01 g/mol
          :  Hamiltonian                  GFN2-xTB          :
 * total energy  :   -65.2079057 Eh     change       -0.1167635E-08 Eh
 * total energy  :   -65.2148036 Eh     change       -0.6897959E-02 Eh
 * total energy  :   -65.2150882 Eh     change       -0.2846047E-03 Eh
 * total energy  :   -65.2179250 Eh     change       -0.2836779E-02 Eh
 * total energy  :   -65.2185271 Eh     change       -0.6020480E-03 Eh
 * total energy  :   -65.2191685 Eh     change       -0.6414392E-03 Eh
 * total energy  :   -65.2198167 Eh     change       -0.6482272E-03 Eh
 * total energy  :   -65.2202897 Eh     change       -0.4729930E-03 Eh
 * total energy  :   -65.2207500 Eh     change       -0.4602325E-03 Eh
 * total energy  :   -65.2210994 Eh     change       -0.3494163E-03 Eh
 * total energy  :   -65.2218569 Eh     change       -0.2015326E-05 Eh
 * total energy  :   -65.2218576 Eh     change       -0.7667601E-06 Eh
 * total energy  :   -65.2218564 Eh     change        0.1276314E-05 Eh
 * total energy  :   -65.2218591 Eh     change       -0.2719780E-05 Eh
 * total energy  :   -65.2218595 Eh     change       -0.4683247E-06 Eh
 * total energy  :   -65.2218600 Eh     change       -0.4819225E-06 Eh
 * total energy  :   -65.2218598 Eh     change        0.2364722E-06 Eh
 * total energy  :   -65.2218602 Eh     change       -0.3711246E-06 Eh
 * total energy  :   -65.2218602 Eh     change       -0.7492147E-07 Eh
   *** GEOMETRY OPTIMIZATION CONVERGED AFTER 33 ITERATIONS ***

 final structure:
================
42
 xtb: 6.7.1 (edcfbbe)
N            3.39475372849827        2.97068906128835        0.43614873776999
C            3.16270148775465        1.85052512828470        0.29552380819928
C            2.80436067893194        0.49807827257724        0.14463181073870
C            3.78189248630146       -0.51487901356153        0.13514036290321
C            5.18740549450827       -0.41256867388869        0.04312533590576
C            5.88950435204331        0.76894380922705       -0.28864626097797
C            7.26339530226994        0.77566921168108       -0.36178096700981
C            7.99416915653572       -0.38141130523320       -0.11374628201762
C            7.32628043396105       -1.56217929841093        0.19750432849361
C            5.95471286742460       -1.58337329926135        0.26828578172717
C            1.40817262700897        0.23298143855999        0.07623403935791
C            0.45856934547422        1.26644849484032        0.31342488014259
C           -0.88177349967858        1.04472641399749        0.25017285724858
C           -1.40958194699491       -0.23772772043516       -0.06790517233093
C           -2.80583768458848       -0.50261223665085       -0.13682974499697
C           -3.16424565879113       -1.85549265131072       -0.28379388819298
N           -3.39607891065815       -2.97616812149423       -0.42057090703428
C           -3.78281813110214        0.51075748154782       -0.13129114621911
C           -5.18857363415460        0.40942995204685       -0.04134987883828
C           -5.95486438750636        1.58008101436983       -0.27059562303917
C           -7.32657227512239        1.55973350360096       -0.20219570308506
C           -7.99560735372158        0.38000861380717        0.11050694225986
C           -7.26586480062548       -0.77685182142656        0.36253198760392
C           -5.89183848838371       -0.77095245244180        0.29186253711328
C           -0.46003352326332       -1.27129063482223       -0.30467884043110
C            0.88031434503305       -1.04949302483150       -0.24177906487036
H            3.40890410355994       -1.52273135746753        0.25050898762073
H            5.34143596536508        1.67123618760199       -0.50426181182879
H            7.77753922803018        1.69038736763123       -0.61850018641434
H            9.07194860965416       -0.36537546238786       -0.17031667445710
H            7.88961506307107       -2.46512122179385        0.38267366077465
H            5.44165280506510       -2.50243890093903        0.51302270830624
H            0.82119281406499        2.25162651555146        0.56877938935718
H           -1.55074865358741        1.86045667121138        0.47323993907254
H           -3.40906236503431        1.51810084731398       -0.24871155716175
H           -5.44090840512236        2.49834128114121       -0.51647760560191
H           -7.88913097542345        2.46252027994899       -0.39046679903482
H           -9.07349902683085        0.36460946675553        0.16509815134076
H           -7.78092073103402       -1.69073325371554        0.62038930992440
H           -5.34459712230305       -1.67300299180904        0.51056467951056
H           -0.82267997254879       -2.25652848673396       -0.55978533188365
H            1.54919004364055       -1.86531676847024       -0.46477145961973

          :  Hamiltonian                  GFN2-xTB          :
         :: gradient norm              0.000073257590 Eh/a0 ::
         :: HOMO-LUMO gap              0.554951529774 eV    ::
         :: SCC energy               -66.523690496586 Eh    ::
         :: -> dispersion             -0.048126656753 Eh    ::
         :: -> Gsolv                  -0.035794115858 Eh    ::
         :: repulsion energy           1.301830255530 Eh    ::

    * Orbital Energies and Occupations

         #    Occupation            Energy/Eh            Energy/eV
      -------------------------------------------------------------
         1        2.0000           -0.6683638             -18.1871
       ...           ...                  ...                  ...
        50        2.0000           -0.4373312             -11.9004
        51        2.0000           -0.4360422             -11.8653
        52        2.0000           -0.4308196             -11.7232
        53        2.0000           -0.4291722             -11.6784
        54        2.0000           -0.4276592             -11.6372
        55        2.0000           -0.4269364             -11.6175
        56        2.0000           -0.4251137             -11.5679
        57        2.0000           -0.4191219             -11.4049
        58        2.0000           -0.4164783             -11.3330
        59        2.0000           -0.4164092             -11.3311
        60        2.0000           -0.3987308             -10.8500
        61        1.0000           -0.3735905             -10.1659
        62        1.0000           -0.3146259              -8.5614 (HOMO)
        63        0.0000           -0.2942318              -8.0065 (LUMO)
        64                         -0.2387906              -6.4978
        65                         -0.2355526              -6.4097
        66                         -0.2315334              -6.3003
        67                         -0.2315159              -6.2999
        68                         -0.2145377              -5.8379
        69                         -0.2130439              -5.7972
        70                         -0.2109088              -5.7391
        71                         -0.2101739              -5.7191
        72                         -0.1632237              -4.4415
        73                         -0.1241324              -3.3778
       ...                                ...                  ...
       120                          1.1410048              31.0483
      -------------------------------------------------------------
                  HL-Gap            0.0203941 Eh            0.5550 eV

     #   Z          covCN         q      C6AA      α(0)
     1   7 N        0.911    -0.295    27.607     7.599
     2   6 C        1.916     0.124    28.049     8.553
     3   6 C        2.952     0.005    27.911     8.665
     4   6 C        2.914    -0.036    28.891     8.814
     5   6 C        2.964     0.020    27.558     8.611
     6   6 C        2.919    -0.030    28.760     8.794
     7   6 C        2.914    -0.025    28.620     8.773
     8   6 C        2.919    -0.022    28.554     8.763
     9   6 C        2.913    -0.026    28.644     8.776
    10   6 C        2.928    -0.031    28.774     8.797
    11   6 C        2.983     0.023    27.493     8.601
    12   6 C        2.916    -0.030    28.749     8.792
    13   6 C        2.913    -0.031    28.774     8.796
    14   6 C        2.983     0.023    27.493     8.601
    15   6 C        2.952     0.005    27.911     8.665
    16   6 C        1.916     0.124    28.049     8.553
    17   7 N        0.911    -0.295    27.607     7.599
    18   6 C        2.914    -0.036    28.891     8.814
    19   6 C        2.964     0.020    27.558     8.611
    20   6 C        2.928    -0.031    28.774     8.797
    21   6 C        2.913    -0.026    28.644     8.776
    22   6 C        2.919    -0.022    28.554     8.763
    23   6 C        2.914    -0.025    28.620     8.773
    24   6 C        2.919    -0.030    28.760     8.794
    25   6 C        2.916    -0.030    28.749     8.792
    26   6 C        2.913    -0.031    28.774     8.796
    27   1 H        0.926     0.055     2.260     2.351
    28   1 H        0.926     0.040     2.451     2.448
    29   1 H        0.926     0.040     2.443     2.444
    30   1 H        0.926     0.044     2.400     2.422
    31   1 H        0.926     0.043     2.412     2.429
    32   1 H        0.926     0.043     2.413     2.429
    33   1 H        0.926     0.041     2.441     2.443
    34   1 H        0.926     0.049     2.330     2.387
    35   1 H        0.926     0.055     2.260     2.351
    36   1 H        0.926     0.043     2.413     2.429
    37   1 H        0.926     0.043     2.412     2.429
    38   1 H        0.926     0.044     2.400     2.423
    39   1 H        0.926     0.040     2.443     2.444
    40   1 H        0.926     0.040     2.451     2.448
    41   1 H        0.926     0.041     2.441     2.443
    42   1 H        0.926     0.049     2.330     2.387

molecular dipole:
                 x           y           z       tot (Debye)
 q only:       -0.000       0.001      -0.005
   full:       -0.000       0.001      -0.007       0.017

 projected vibrational frequencies (cm⁻¹)
eigval :       -0.00    -0.00     0.00     0.00     0.00     0.00
eigval :       12.93    27.37    33.12    35.00    42.92    54.79
eigval :       60.75    96.39    99.89   135.22   148.85   160.58
eigval :      171.49   177.76   232.93   241.71   276.87   297.83
eigval :      298.29   329.53   358.13   367.80   369.31   378.74
eigval :      395.68   433.46   434.11   449.09   450.71   524.93
eigval :      551.11   567.70   573.19   576.33   580.88   582.51
eigval :      594.08   641.57   641.70   659.73   682.02   714.88
eigval :      733.08   749.38   763.31   779.14   784.59   810.09
eigval :      812.54   839.90   845.38   845.68   851.30   886.84
eigval :      887.02   913.12   915.42   922.06   922.13   922.65
eigval :      922.99   946.77   968.95   972.96  1018.57  1026.60
eigval :     1073.38  1074.92  1121.32  1125.24  1127.14  1160.51
eigval :     1176.90  1177.25  1190.88  1212.35  1217.79  1222.79
eigval :     1231.29  1271.76  1284.95  1297.18  1314.58  1316.35
eigval :     1324.36  1342.02  1342.93  1349.77  1360.48  1414.90
eigval :     1419.52  1436.63  1437.05  1444.64  1466.36  1487.02
eigval :     1487.76  1525.54  1525.59  1564.36  1567.13  1584.73
eigval :     2296.31  2308.17  3070.22  3070.29  3076.27  3076.45
eigval :     3079.70  3079.86  3082.51  3082.60  3086.36  3086.83
eigval :     3095.30  3095.53  3104.67  3105.50  3128.13  3128.25

   temp. (K)  partition function   enthalpy   heat capacity  entropy
                                   cal/mol     cal/K/mol   cal/K/mol   J/K/mol
 298.15  VIB  0.734E+10            12588.998     77.295     78.496
         ROT  0.164E+08              888.752      2.981     35.999
         INT  0.121E+18            13477.750     80.275    114.496
         TR   0.586E+28             1481.254      4.968     43.279
         TOT                       14959.0039    85.2436   157.7744   660.1280

       T/K    H(0)-H(T)+PV         H(T)/Eh          T*S/Eh         G(T)/Eh
   ------------------------------------------------------------------------
    298.15    0.238387E-01    0.336478E+00    0.749637E-01    0.261514E+00
   ------------------------------------------------------------------------

         :::::::::::::::::::::::::::::::::::::::::::::::::::::
         ::                  THERMODYNAMIC                  ::
         :::::::::::::::::::::::::::::::::::::::::::::::::::::
         :: total free energy         -64.960346243564 Eh   ::
         ::.................................................::
         :: total energy              -65.221860244576 Eh   ::
         :: zero point energy           0.312639013613 Eh   ::
         :: G(RRHO) w/o ZPVE           -0.051125012601 Eh   ::
         :: G(RRHO) contrib.            0.261514001012 Eh   ::
         :::::::::::::::::::::::::::::::::::::::::::::::::::::

           -------------------------------------------------
          | TOTAL ENERGY              -65.221860244576 Eh   |
          | TOTAL ENTHALPY            -64.885382540897 Eh   |
          | TOTAL FREE ENERGY         -64.960346243564 Eh   |
          | GRADIENT NORM               0.000073295982 Eh/α |
          | HOMO-LUMO GAP               0.554951685380 eV   |
           -------------------------------------------------

 * finished run on 2025/08/29 at 14:45:01.094
