   * xtb version 6.7.1 (edcfbbe) compiled by 'albert@albert-system' on 2024-07-22

   ID    Z sym.   atoms
    1    6 C      1-4, 6-10, 12-17, 19-23, 25-30, 32-47, 49-56
    2    7 N      5, 11, 18, 24, 31, 48
    3    1 H      57-90

          program call               : xtb data2507/toluene/DHPZ-2BI/DHPZ-2BI.xyz --gfn 2 --gbsa toluene --ohess vtight --parallel 40 --molden --ceasefiles --namespace data2507/toluene/DHPZ-2BI/DHPZ-2BI_toluene_S0_preOpt
      * Solvation model:               GBSA
        Solvent                        toluene
        Solvent mass                       9.2140E+01 g/mol
          :  Hamiltonian                  GFN2-xTB          :
 * total energy  :  -142.0700501 Eh     change       -0.2000064E-08 Eh
 * total energy  :  -142.0876474 Eh     change       -0.1759734E-01 Eh
 * total energy  :  -142.0933167 Eh     change       -0.5669296E-02 Eh
 * total energy  :  -142.0948153 Eh     change       -0.1498532E-02 Eh
 * total energy  :  -142.0961366 Eh     change       -0.1321314E-02 Eh
 * total energy  :  -142.0969013 Eh     change       -0.7647114E-03 Eh
 * total energy  :  -142.0975047 Eh     change       -0.6033638E-03 Eh
 * total energy  :  -142.0979416 Eh     change       -0.4369684E-03 Eh
 * total energy  :  -142.0983488 Eh     change       -0.4071480E-03 Eh
 * total energy  :  -142.0987967 Eh     change       -0.4479412E-03 Eh
 * total energy  :  -142.1002611 Eh     change       -0.1002808E-05 Eh
 * total energy  :  -142.1002622 Eh     change       -0.1038073E-05 Eh
 * total energy  :  -142.1002633 Eh     change       -0.1161095E-05 Eh
 * total energy  :  -142.1002645 Eh     change       -0.1109849E-05 Eh
 * total energy  :  -142.1002654 Eh     change       -0.9875507E-06 Eh
 * total energy  :  -142.1002663 Eh     change       -0.8423135E-06 Eh
 * total energy  :  -142.1002670 Eh     change       -0.7329417E-06 Eh
 * total energy  :  -142.1002677 Eh     change       -0.6829502E-06 Eh
 * total energy  :  -142.1002677 Eh     change       -0.7722917E-08 Eh
   *** GEOMETRY OPTIMIZATION CONVERGED AFTER 44 ITERATIONS ***

 final structure:
================
90
 xtb: 6.7.1 (edcfbbe)
C            6.94741851804695       -3.58493144645532       -2.09624010558597
C            6.36662232205711       -3.34561435546795       -0.86092705050476
C            6.67525445228560       -2.19651760772076       -0.15654767385400
C            7.56221315663355       -1.27224862287899       -0.69964536867517
N            7.88586958115853       -0.10253898014535        0.01407523842971
C            7.02700205523135        0.79857302263055        0.60811450805827
C            5.58125233635038        0.77875977397519        0.44820066479619
C            4.96764966165734        0.36471539719545       -0.73389798079662
C            3.59179738105761        0.37556887749311       -0.84587679406061
C            2.80223238831595        0.80448127569529        0.21714897099690
N            1.39191137815783        0.80440813068029        0.10220885970262
C            0.70113349419535       -0.40717226061644        0.05976304246899
C            1.37008198281605       -1.61909574262661        0.15236436037862
C            0.68288156860211       -2.82407464914510        0.08179573679161
C           -0.68414026955910       -2.82338989381280       -0.08782082560429
C           -1.37086985840336       -1.61783889368068       -0.15312006370427
C           -0.70147693594259       -0.40657452961848       -0.05515079621092
N           -1.39161087227323        0.80562222632415       -0.09244643858976
C           -2.80174303753421        0.80708682092252       -0.20852369299987
C           -3.41013620419738        1.25290191127500       -1.37949053320177
C           -4.78469542287811        1.24532324452129       -1.49200987893274
C           -5.58065130352629        0.78375955414026       -0.44251563757898
C           -7.02618480935709        0.80471347673986       -0.60391406131081
N           -7.65016760178602        1.72281162227212       -1.29564353303042
C           -8.98422730297215        1.44262315699548       -1.18273618678912
C          -10.09064140554403        2.09180193676814       -1.72200722552493
C          -11.33607938473178        1.56727506749703       -1.44907715792931
C          -11.49354849231490        0.41995121418207       -0.66752951837638
C          -10.41027985736081       -0.23972979016907       -0.12216136909546
C           -9.15609712910484        0.29221718173891       -0.37692076048908
N           -7.88578800725504       -0.10020669924854       -0.01674019694384
C           -7.56318071894618       -1.27488236288273        0.68926263419721
C           -8.14917837273586       -1.52202503467561        1.92580138569706
C           -7.84191633426448       -2.68492540576203        2.61017503954169
C           -6.95072421476527       -3.59746423863963        2.07037547746617
C           -6.36878859384996       -3.34992428056618        0.83722247676011
C           -6.67630644800513       -2.19587693685310        0.14049540270812
C           -4.96826173927563        0.36084951233245        0.73708299962081
C           -3.59253081124554        0.37059947459700        0.85053120283751
C           -0.70170391445079        2.01788489898974       -0.03171247927708
C           -1.37794116550563        3.22909670511515       -0.02300000144819
C           -0.68755362283096        4.43379727119108        0.00652047544107
C            0.69008472831031        4.43336153024689        0.02244926890210
C            1.37973163115027        3.22810400330485        0.04547947192352
C            0.70272304132468        2.01729548363085        0.04774084979360
C            3.41179013862201        1.24133091567406        1.39086217644925
C            4.78647766521879        1.23249633517463        1.50198348597521
N            7.65178810561903        1.71219972095680        1.30498599925412
C            8.98571422444332        1.43275466979871        1.18866920356949
C           10.09274497541084        2.07847919287615        1.73081006248343
C           11.33786570677464        1.55571170870652        1.45310404264847
C           11.49439982116361        0.41334942754846        0.66412542402371
C           10.41050858251350       -0.24279069489281        0.11573194122313
C            9.15661384954208        0.28751652155752        0.37531197241669
C            8.14709854154507       -1.51116990466833       -1.93832735118726
C            7.83868473715174       -2.66917723029079       -2.63044428301724
H            6.70647564080341       -4.48495230311575       -2.64126261935232
H            5.67477219793173       -4.05913454174397       -0.43929227235302
H            6.23426322454996       -2.00669880827088        0.81108816969110
H            5.56433127455638        0.05473289433030       -1.57813278542153
H            3.11911599191665        0.05512810296475       -1.76248723642704
H            2.44098694270170       -1.62617878112675        0.28142668226418
H            1.22943438594898       -3.75195672599147        0.15394515035462
H           -1.23108850881237       -3.75070983870303       -0.16407324741842
H           -2.44175672172273       -1.62406621514539       -0.28234139953960
H           -2.79717508658523        1.60278149776641       -2.19668690419378
H           -5.26688746878968        1.58892058713773       -2.39385586022058
H           -9.96406303794922        2.97098239966118       -2.33403467380580
H          -12.21539591402969        2.04807303270678       -1.85214849809968
H          -12.48829741777824        0.03938927108613       -0.48855597006972
H          -10.53539640632754       -1.13311126647801        0.47114527307881
H           -8.83035659188086       -0.79766986204235        2.34778435198085
H           -8.29727319311441       -2.87341089189745        3.57092056408480
H           -6.71067383297394       -4.50134756796688        2.60935943475332
H           -5.67702669482162       -4.06090452845103        0.41118288416655
H           -6.23452139353232       -1.99969482937482       -0.82551070791879
H           -5.56586491541131        0.04476970220823        1.57839742562095
H           -3.12088375326992        0.04338350155067        1.76527992496946
H           -2.45657392763489        3.23733915856989       -0.03935944779031
H           -1.23968484663816        5.36114859336047        0.00980423841747
H            1.24275206895909        5.36039801181815        0.02415277157895
H            2.45836804678451        3.23551370489617        0.06181274977970
H            2.79967970678143        1.58541257446782        2.21115808529599
H            5.26967392509392        1.56903600673909        2.40595507469410
H            9.96685333227356        2.95370040530696        2.34862728679425
H           12.21765076399046        2.03388269983963        1.85827369881719
H           12.48893821971433        0.03392997672618        0.48159007941476
H           10.53496326350131       -1.13232315844662       -0.48346988951626
H            8.82831999270059       -0.78427517952587       -2.35584733920616
H            8.29321953832796       -2.85134132479477       -3.59280040425943

          :  Hamiltonian                  GFN2-xTB          :
         :: gradient norm              0.000063554507 Eh/a0 ::
         :: HOMO-LUMO gap              1.562755699899 eV    ::
         :: SCC energy              -144.698387126666 Eh    ::
         :: -> dispersion             -0.130767987520 Eh    ::
         :: -> Gsolv                  -0.060886909850 Eh    ::
         :: repulsion energy           2.598119414204 Eh    ::

    * Orbital Energies and Occupations

         #    Occupation            Energy/Eh            Energy/eV
      -------------------------------------------------------------
         1        2.0000           -0.6909765             -18.8024
       ...           ...                  ...                  ...
       120        2.0000           -0.4168465             -11.3430
       121        2.0000           -0.4153367             -11.3019
       122        2.0000           -0.4143120             -11.2740
       123        2.0000           -0.4074380             -11.0870
       124        2.0000           -0.4042350             -10.9998
       125        2.0000           -0.3862181             -10.5095
       126        2.0000           -0.3858191             -10.4987
       127        2.0000           -0.3850664             -10.4782
       128        2.0000           -0.3846329             -10.4664
       129        2.0000           -0.3828114             -10.4168
       130        2.0000           -0.3826296             -10.4119
       131        2.0000           -0.3754696             -10.2170
       132        2.0000           -0.3260065              -8.8711 (HOMO)
       133                         -0.2685762              -7.3083 (LUMO)
       134                         -0.2678816              -7.2894
       135                         -0.2407068              -6.5500
       136                         -0.2406677              -6.5489
       137                         -0.2405931              -6.5469
       138                         -0.2405803              -6.5465
       139                         -0.2356052              -6.4111
       140                         -0.2355774              -6.4104
       141                         -0.2302913              -6.2665
       142                         -0.2243692              -6.1054
       143                         -0.2239346              -6.0936
       ...                                ...                  ...
       258                          0.6975385              18.9810
      -------------------------------------------------------------
                  HL-Gap            0.0574303 Eh            1.5628 eV

     #   Z          covCN         q      C6AA      α(0)
     1   6 C        2.919    -0.030    28.740     8.791
     2   6 C        2.920    -0.025    28.636     8.775
     3   6 C        2.921    -0.040    28.982     8.828
     4   6 C        2.912     0.064    26.573     8.453
     5   7 N        2.824    -0.058    22.355     7.022
     6   6 C        3.180     0.142    24.526     8.085
     7   6 C        2.974    -0.002    28.076     8.691
     8   6 C        2.921    -0.033    28.813     8.803
     9   6 C        2.920    -0.039    28.971     8.827
    10   6 C        2.923     0.070    26.443     8.433
    11   7 N        2.751    -0.079    22.771     7.087
    12   6 C        2.925     0.049    26.906     8.506
    13   6 C        2.923    -0.063    29.565     8.917
    14   6 C        2.918    -0.043    29.078     8.843
    15   6 C        2.918    -0.043    29.078     8.843
    16   6 C        2.923    -0.063    29.565     8.917
    17   6 C        2.925     0.049    26.906     8.506
    18   7 N        2.751    -0.079    22.770     7.087
    19   6 C        2.923     0.070    26.444     8.433
    20   6 C        2.920    -0.038    28.938     8.822
    21   6 C        2.926    -0.027    28.683     8.783
    22   6 C        2.974    -0.002    28.077     8.692
    23   6 C        3.179     0.142    24.526     8.085
    24   7 N        1.886    -0.317    29.071     7.993
    25   6 C        3.188     0.068    26.015     8.321
    26   6 C        2.910    -0.047    29.172     8.857
    27   6 C        2.922    -0.041    29.025     8.835
    28   6 C        2.926    -0.039    28.965     8.826
    29   6 C        2.907    -0.054    29.329     8.880
    30   6 C        3.088     0.036    27.099     8.533
    31   7 N        2.824    -0.058    22.356     7.022
    32   6 C        2.912     0.064    26.573     8.453
    33   6 C        2.921    -0.041    29.011     8.833
    34   6 C        2.920    -0.026    28.661     8.779
    35   6 C        2.919    -0.030    28.740     8.791
    36   6 C        2.920    -0.025    28.636     8.775
    37   6 C        2.921    -0.040    28.982     8.828
    38   6 C        2.921    -0.033    28.813     8.803
    39   6 C        2.920    -0.039    28.972     8.827
    40   6 C        2.925     0.049    26.907     8.507
    41   6 C        2.923    -0.062    29.550     8.914
    42   6 C        2.918    -0.043    29.060     8.840
    43   6 C        2.918    -0.043    29.060     8.840
    44   6 C        2.923    -0.062    29.550     8.915
    45   6 C        2.925     0.049    26.907     8.507
    46   6 C        2.920    -0.038    28.937     8.821
    47   6 C        2.926    -0.027    28.682     8.783
    48   7 N        1.886    -0.317    29.070     7.993
    49   6 C        3.188     0.068    26.015     8.321
    50   6 C        2.910    -0.047    29.172     8.856
    51   6 C        2.922    -0.041    29.025     8.835
    52   6 C        2.926    -0.039    28.965     8.826
    53   6 C        2.907    -0.054    29.329     8.880
    54   6 C        3.088     0.036    27.099     8.533
    55   6 C        2.921    -0.041    29.011     8.833
    56   6 C        2.920    -0.026    28.661     8.779
    57   1 H        0.926     0.047     2.361     2.403
    58   1 H        0.926     0.046     2.367     2.406
    59   1 H        0.926     0.036     2.503     2.474
    60   1 H        0.926     0.039     2.457     2.451
    61   1 H        0.926     0.048     2.340     2.392
    62   1 H        0.926     0.028     2.617     2.530
    63   1 H        0.926     0.029     2.597     2.520
    64   1 H        0.926     0.029     2.597     2.520
    65   1 H        0.926     0.028     2.616     2.529
    66   1 H        0.926     0.050     2.322     2.383
    67   1 H        0.926     0.055     2.254     2.348
    68   1 H        0.926     0.039     2.465     2.455
    69   1 H        0.926     0.035     2.522     2.483
    70   1 H        0.926     0.036     2.506     2.475
    71   1 H        0.926     0.033     2.550     2.497
    72   1 H        0.926     0.043     2.405     2.425
    73   1 H        0.926     0.047     2.361     2.403
    74   1 H        0.926     0.047     2.361     2.403
    75   1 H        0.926     0.046     2.367     2.406
    76   1 H        0.926     0.036     2.503     2.474
    77   1 H        0.926     0.039     2.457     2.451
    78   1 H        0.926     0.048     2.341     2.392
    79   1 H        0.926     0.029     2.601     2.522
    80   1 H        0.926     0.029     2.595     2.519
    81   1 H        0.926     0.029     2.595     2.519
    82   1 H        0.926     0.029     2.601     2.522
    83   1 H        0.926     0.050     2.321     2.382
    84   1 H        0.926     0.055     2.254     2.348
    85   1 H        0.926     0.039     2.465     2.455
    86   1 H        0.926     0.035     2.521     2.483
    87   1 H        0.926     0.036     2.506     2.475
    88   1 H        0.926     0.033     2.550     2.497
    89   1 H        0.926     0.043     2.405     2.425
    90   1 H        0.926     0.047     2.361     2.403

molecular dipole:
                 x           y           z       tot (Debye)
 q only:        0.003      -2.181      -0.007
   full:        0.003      -2.674      -0.009       6.796

 projected vibrational frequencies (cm⁻¹)
eigval :       -0.00    -0.00    -0.00     0.00     0.00     0.00
eigval :        5.57     8.90    10.75    19.36    21.47    25.98
eigval :       35.69    38.39    50.18    53.59    58.28    59.23
eigval :       63.67    66.66    68.77    78.80    81.42    86.24
eigval :       96.13   103.11   126.97   156.50   156.60   166.04
eigval :      181.48   208.76   209.19   213.76   229.34   236.03
eigval :      240.28   247.15   255.79   281.69   287.64   289.49
eigval :      336.64   336.83   349.12   362.79   366.90   375.23
eigval :      376.34   381.16   381.55   384.89   387.63   391.93
eigval :      400.56   413.23   414.06   431.00   434.08   435.16
eigval :      452.60   456.50   481.76   482.06   496.57   508.42
eigval :      515.57   519.28   544.17   546.99   547.38   551.22
eigval :      576.55   577.32   589.21   591.63   592.01   595.72
eigval :      599.36   601.41   611.22   615.97   627.24   656.69
eigval :      657.97   659.63   662.18   662.31   667.46   669.47
eigval :      693.81   698.85   703.88   710.58   711.94   714.58
eigval :      719.07   742.89   764.14   764.21   771.75   773.53
eigval :      774.16   774.28   815.96   819.94   859.44   860.16
eigval :      862.17   863.61   866.63   867.60   868.93   870.09
eigval :      877.82   878.00   882.95   883.89   889.19   890.86
eigval :      893.39   898.28   898.93   905.38   905.59   908.67
eigval :      911.97   917.91   918.41   920.02   920.24   921.65
eigval :      922.12   927.67   927.92   930.10   930.44   932.80
eigval :      933.13   944.33   954.84   955.67  1004.28  1008.89
eigval :     1027.66  1029.33  1058.95  1059.04  1078.54  1078.67
eigval :     1110.26  1111.92  1114.87  1115.54  1121.76  1125.64
eigval :     1129.16  1131.52  1132.55  1133.37  1134.20  1135.87
eigval :     1173.49  1173.69  1177.10  1177.87  1180.67  1181.63
eigval :     1182.48  1184.94  1187.71  1188.51  1194.95  1205.00
eigval :     1205.16  1218.43  1236.16  1256.33  1259.02  1260.28
eigval :     1262.53  1262.96  1272.64  1274.44  1274.82  1289.85
eigval :     1291.58  1296.93  1309.63  1309.81  1311.94  1312.45
eigval :     1314.37  1314.72  1322.28  1329.23  1359.40  1360.51
eigval :     1360.68  1365.19  1372.62  1373.43  1402.39  1403.92
eigval :     1414.10  1414.46  1424.26  1433.44  1433.64  1437.42
eigval :     1465.31  1466.74  1475.81  1475.94  1485.86  1485.90
eigval :     1491.36  1511.53  1527.40  1527.77  1555.28  1556.89
eigval :     1557.34  1577.40  1580.45  1582.07  1582.12  1585.92
eigval :     1587.34  1590.49  1591.11  1592.56  1592.62  1596.36
eigval :     1613.41  1613.41  3075.53  3075.55  3079.24  3079.25
eigval :     3079.96  3080.31  3080.34  3080.40  3080.64  3080.86
eigval :     3086.33  3086.35  3087.86  3088.03  3089.31  3089.45
eigval :     3089.88  3090.59  3090.61  3091.59  3091.63  3091.80
eigval :     3098.28  3098.32  3100.52  3100.57  3101.01  3101.14
eigval :     3101.82  3103.74  3105.22  3105.43  3105.95  3107.83

   temp. (K)  partition function   enthalpy   heat capacity  entropy
                                   cal/mol     cal/K/mol   cal/K/mol   J/K/mol
 298.15  VIB  0.150E+22            25773.209    162.496    162.686
         ROT  0.774E+08              888.752      2.981     39.078
         INT  0.116E+30            26661.961    165.477    201.764
         TR   0.186E+29             1481.254      4.968     45.577
         TOT                       28143.2150   170.4452   247.3408  1034.8740

       T/K    H(0)-H(T)+PV         H(T)/Eh          T*S/Eh         G(T)/Eh
   ------------------------------------------------------------------------
    298.15    0.448491E-01    0.733774E+00    0.117520E+00    0.616254E+00
   ------------------------------------------------------------------------

         :::::::::::::::::::::::::::::::::::::::::::::::::::::
         ::                  THERMODYNAMIC                  ::
         :::::::::::::::::::::::::::::::::::::::::::::::::::::
         :: total free energy        -141.484013335537 Eh   ::
         ::.................................................::
         :: total energy             -142.100267711628 Eh   ::
         :: zero point energy           0.688924915333 Eh   ::
         :: G(RRHO) w/o ZPVE           -0.072670539242 Eh   ::
         :: G(RRHO) contrib.            0.616254376090 Eh   ::
         :::::::::::::::::::::::::::::::::::::::::::::::::::::

           -------------------------------------------------
          | TOTAL ENERGY             -142.100267711628 Eh   |
          | TOTAL ENTHALPY           -141.366493728358 Eh   |
          | TOTAL FREE ENERGY        -141.484013335537 Eh   |
          | GRADIENT NORM               0.000063551420 Eh/α |
          | HOMO-LUMO GAP               1.562756675985 eV   |
           -------------------------------------------------

 * finished run on 2025/09/04 at 23:36:59.901
