   * xtb version 6.7.1 (edcfbbe) compiled by 'albert@albert-system' on 2024-07-22

   ID    Z sym.   atoms
    1    6 C      1-4, 6-10, 12-17, 19-23, 25-30, 32-47, 49-56
    2    7 N      5, 11, 18, 24, 31, 48
    3    1 H      57-90

          program call               : xtb data2507/toluene/DHPZ-2BI/DHPZ-2BI_toluene_S0_crest.xyz --gfn 2 --gbsa toluene --ohess vtight --parallel 40 --molden --ceasefiles --namespace data2507/toluene/DHPZ-2BI/DHPZ-2BI_toluene_S0_finalOpt
      * Solvation model:               GBSA
        Solvent                        toluene
        Solvent mass                       9.2140E+01 g/mol
          :  Hamiltonian                  GFN2-xTB          :
 * total energy  :  -142.0997826 Eh     change       -0.1506322E-08 Eh
 * total energy  :  -142.0998571 Eh     change       -0.7447525E-04 Eh
 * total energy  :  -142.0999238 Eh     change       -0.6665829E-04 Eh
 * total energy  :  -142.0999669 Eh     change       -0.4313130E-04 Eh
 * total energy  :  -142.1000024 Eh     change       -0.3552656E-04 Eh
 * total energy  :  -142.1000436 Eh     change       -0.4117863E-04 Eh
 * total energy  :  -142.1000700 Eh     change       -0.2639624E-04 Eh
 * total energy  :  -142.1000923 Eh     change       -0.2233357E-04 Eh
 * total energy  :  -142.1001256 Eh     change       -0.3327989E-04 Eh
 * total energy  :  -142.1001432 Eh     change       -0.1759783E-04 Eh
 * total energy  :  -142.1003338 Eh     change       -0.5602604E-06 Eh
 * total energy  :  -142.1003342 Eh     change       -0.4691770E-06 Eh
 * total energy  :  -142.1003346 Eh     change       -0.4224822E-06 Eh
 * total energy  :  -142.1003351 Eh     change       -0.4275910E-06 Eh
 * total energy  :  -142.1003356 Eh     change       -0.5077129E-06 Eh
 * total energy  :  -142.1003362 Eh     change       -0.6537395E-06 Eh
 * total energy  :  -142.1003371 Eh     change       -0.8349064E-06 Eh
 * total energy  :  -142.1003379 Eh     change       -0.8759984E-06 Eh
 * total energy  :  -142.1003380 Eh     change       -0.3603560E-08 Eh
   *** GEOMETRY OPTIMIZATION CONVERGED AFTER 68 ITERATIONS ***

 final structure:
================
90
 xtb: 6.7.1 (edcfbbe)
C            6.74281354472056       -3.89614946163062       -1.78779606771248
C            6.17450616027854       -3.50272915374078       -0.58667508621281
C            6.53749739806921       -2.30243642052422       -0.00421140902042
C            7.46694897474409       -1.48235164635580       -0.63626588368377
N            7.84535053394379       -0.26231302768296       -0.04459483010616
C            7.02551089344446        0.72645928854240        0.45807684437011
C            5.57965521252097        0.73920313123807        0.29761449399711
C            4.95946196865560        0.26701903228704       -0.85891602914568
C            3.58440603855657        0.29540229458568       -0.97349628776643
C            2.80114704125448        0.79327584668446        0.06467817460583
N            1.39169331520603        0.79024982016665       -0.04182629259199
C            0.70266068133856       -0.42364414883597       -0.06517344092901
C            1.37407545276358       -1.63503595698152        0.02368859906672
C            0.69000774355634       -2.84143820732656       -0.04275674132084
C           -0.67770651455552       -2.84383231201180       -0.20783076504438
C           -1.36724864843309       -1.63991811077994       -0.26065148152843
C           -0.70149990744293       -0.42655833321348       -0.15674885721552
N           -1.39876446449095        0.78317260016656       -0.16527944394259
C           -2.81104303572158        0.77349433386660       -0.20710530503098
C           -3.48947630862687        1.28156720911997       -1.31276114847380
C           -4.86819230870440        1.25470094235672       -1.35215273931928
C           -5.59707650825325        0.70435170153618       -0.29767709450734
C           -7.04984010214447        0.68737251396887       -0.37671900532779
N           -7.75174697645978        1.65178082710737       -0.91145457437338
C           -9.06410236634397        1.29641576822911       -0.75565712115097
C          -10.22750658793477        1.95409950539297       -1.14254597668771
C          -11.43131555512001        1.34151982915349       -0.86549914492132
C          -11.49264898592599        0.09967679135208       -0.22853560802232
C          -10.35123682041516       -0.56970221395459        0.16582777074925
C           -9.13817685092158        0.04918812063123       -0.09120602902128
N           -7.83262678060961       -0.32230233233938        0.14324604444722
C           -7.41019134675328       -1.55584768057583        0.67387418877157
C           -7.90605953014880       -1.99160052028412        1.89761097974960
C           -7.49876226331049       -3.21203815638607        2.40736136088452
C           -6.59644284415908       -3.99496211385104        1.70658172847757
C           -6.10342449546203       -3.55901919820279        0.48705780703661
C           -6.51135051967174       -2.34586705259935       -0.03596299953630
C           -4.91548641121929        0.21782778918785        0.81775035909267
C           -3.53695868337898        0.25460982103842        0.86221881507545
C           -0.71021957729820        1.99762388231513       -0.12269076952146
C           -1.38702346358741        3.20836620986849       -0.08497388145344
C           -0.69863047024072        4.41416278266028       -0.08811055573803
C            0.67843648295477        4.41639820602843       -0.13740657563299
C            1.37007218449438        3.21255160307777       -0.13437555499023
C            0.69622829920367        2.00032239537444       -0.09130920699190
C            3.41909357793514        1.29262915645567        1.20920094122108
C            4.79365715121732        1.27199654754072        1.31994109025373
N            7.68749046435298        1.67680078936882        1.06464868461917
C            9.00903637314979        1.33286258456191        0.97829940731823
C           10.14214054769630        1.98217382082902        1.45824222446724
C           11.36438806719690        1.38356319834574        1.23742944906204
C           11.47281614635732        0.16396045393691        0.56472775992002
C           10.36218779002795       -0.49697564158425        0.07896296951963
C            9.13167324458105        0.10781562540317        0.28061855150629
C            8.03821984163008       -1.87520591067675       -1.84146979355032
C            7.67526157193730       -3.08326898817035       -2.41069418388614
H            6.45984642442267       -4.83593878231570       -2.23703997082562
H            5.45095784623990       -4.13593783056506       -0.09563988460162
H            6.10755808587822       -1.99265738089948        0.93709786408893
H            5.55229425372370       -0.10423661925421       -1.68106128555704
H            3.10698411103521       -0.06848648196767       -1.87125222339106
H            2.44529130443829       -1.64163546959368        0.14719873543665
H            1.23949706979416       -3.76774249058145        0.02634344923544
H           -1.22279904609217       -3.77188616749815       -0.28725016215766
H           -2.43869958398984       -1.64974463392374       -0.38270604208008
H           -2.92743911184511        1.69232461194273       -2.13830291302488
H           -5.40330378332474        1.64692636587168       -2.20301431426632
H          -10.17486454518435        2.90718957703750       -1.64495688866498
H          -12.35290713458593        1.82649827283270       -1.15244463387390
H          -12.45787837990723       -0.34751317201288       -0.04202396142834
H          -10.40276638809635       -1.53445392846173        0.64794550005104
H           -8.59606987840045       -1.36776661012263        2.44654094504343
H           -7.88498920167014       -3.54789280009195        3.35812570599627
H           -6.27830729545650       -4.94442242553990        2.10960380259137
H           -5.40357290290813       -4.16875393975111       -0.06432090955138
H           -6.13995544366582       -2.00299761836186       -0.99060595046334
H           -5.46337261962909       -0.16948080273166        1.66337547138609
H           -3.01112635837207       -0.11891999015608        1.72838185999245
H           -2.46511870554732        3.21604940039966       -0.05145912943773
H           -1.25195394594218        5.34040106848529       -0.06156906299765
H            1.22876996963680        5.34427729680294       -0.16795333382124
H            2.44837048238855        3.22196608252335       -0.16429829498678
H            2.81319527440718        1.69147772405380        2.00907479012220
H            5.28196630660639        1.65549266588910        2.20228791810027
H           10.05261177294869        2.91785618704713        1.98745874924890
H           12.26341642592303        1.86222824424765        1.59724880882757
H           12.45048405618473       -0.27280335500695        0.42400876032288
H           10.44930146719548       -1.44530525144109       -0.42985744412590
H            8.75211186960386       -1.22799637926960       -2.32958847950541
H            8.11989387371105       -3.38593172206022       -3.34692787352599

          :  Hamiltonian                  GFN2-xTB          :
         :: gradient norm              0.000047201392 Eh/a0 ::
         :: HOMO-LUMO gap              1.611336236280 eV    ::
         :: SCC energy              -144.698711086038 Eh    ::
         :: -> dispersion             -0.131182395877 Eh    ::
         :: -> Gsolv                  -0.060803665357 Eh    ::
         :: repulsion energy           2.598373134772 Eh    ::

    * Orbital Energies and Occupations

         #    Occupation            Energy/Eh            Energy/eV
      -------------------------------------------------------------
         1        2.0000           -0.6908584             -18.7992
       ...           ...                  ...                  ...
       120        2.0000           -0.4165823             -11.3358
       121        2.0000           -0.4151021             -11.2955
       122        2.0000           -0.4141920             -11.2707
       123        2.0000           -0.4080499             -11.1036
       124        2.0000           -0.4045331             -11.0079
       125        2.0000           -0.3863529             -10.5132
       126        2.0000           -0.3856637             -10.4944
       127        2.0000           -0.3851023             -10.4792
       128        2.0000           -0.3847435             -10.4694
       129        2.0000           -0.3827570             -10.4153
       130        2.0000           -0.3826007             -10.4111
       131        2.0000           -0.3756013             -10.2206
       132        2.0000           -0.3269120              -8.8957 (HOMO)
       133                         -0.2676965              -7.2844 (LUMO)
       134                         -0.2667368              -7.2583
       135                         -0.2406904              -6.5495
       136                         -0.2406699              -6.5490
       137                         -0.2405080              -6.5446
       138                         -0.2404344              -6.5426
       139                         -0.2354583              -6.4071
       140                         -0.2354214              -6.4061
       141                         -0.2310341              -6.2868
       142                         -0.2248751              -6.1192
       143                         -0.2243207              -6.1041
       ...                                ...                  ...
       258                          0.6975758              18.9820
      -------------------------------------------------------------
                  HL-Gap            0.0592155 Eh            1.6113 eV

     #   Z          covCN         q      C6AA      α(0)
     1   6 C        2.919    -0.030    28.742     8.791
     2   6 C        2.920    -0.025    28.637     8.775
     3   6 C        2.921    -0.040    28.986     8.829
     4   6 C        2.912     0.064    26.573     8.453
     5   7 N        2.824    -0.058    22.361     7.023
     6   6 C        3.181     0.143    24.510     8.082
     7   6 C        2.974    -0.003    28.087     8.693
     8   6 C        2.922    -0.032    28.810     8.802
     9   6 C        2.921    -0.040    28.983     8.828
    10   6 C        2.923     0.069    26.457     8.435
    11   7 N        2.751    -0.077    22.736     7.082
    12   6 C        2.925     0.049    26.909     8.507
    13   6 C        2.924    -0.063    29.560     8.916
    14   6 C        2.918    -0.043    29.068     8.841
    15   6 C        2.918    -0.043    29.071     8.842
    16   6 C        2.924    -0.062    29.552     8.915
    17   6 C        2.925     0.048    26.914     8.508
    18   7 N        2.751    -0.077    22.731     7.081
    19   6 C        2.923     0.069    26.458     8.435
    20   6 C        2.920    -0.038    28.957     8.824
    21   6 C        2.925    -0.027    28.686     8.783
    22   6 C        2.974    -0.003    28.089     8.693
    23   6 C        3.181     0.143    24.505     8.081
    24   7 N        1.885    -0.318    29.084     7.995
    25   6 C        3.190     0.068    26.006     8.318
    26   6 C        2.910    -0.047    29.174     8.857
    27   6 C        2.922    -0.041    29.027     8.835
    28   6 C        2.926    -0.039    28.969     8.827
    29   6 C        2.907    -0.054    29.331     8.880
    30   6 C        3.087     0.036    27.102     8.534
    31   7 N        2.824    -0.058    22.362     7.023
    32   6 C        2.912     0.064    26.573     8.453
    33   6 C        2.921    -0.041    29.012     8.833
    34   6 C        2.920    -0.026    28.662     8.779
    35   6 C        2.919    -0.030    28.742     8.792
    36   6 C        2.920    -0.025    28.637     8.776
    37   6 C        2.921    -0.040    28.988     8.829
    38   6 C        2.922    -0.032    28.807     8.802
    39   6 C        2.921    -0.040    28.982     8.828
    40   6 C        2.924     0.048    26.912     8.507
    41   6 C        2.923    -0.062    29.543     8.914
    42   6 C        2.918    -0.042    29.052     8.839
    43   6 C        2.918    -0.042    29.053     8.839
    44   6 C        2.924    -0.062    29.535     8.912
    45   6 C        2.925     0.048    26.913     8.508
    46   6 C        2.920    -0.038    28.951     8.823
    47   6 C        2.926    -0.027    28.685     8.783
    48   7 N        1.885    -0.318    29.083     7.995
    49   6 C        3.190     0.068    26.008     8.319
    50   6 C        2.910    -0.047    29.174     8.857
    51   6 C        2.922    -0.041    29.026     8.835
    52   6 C        2.926    -0.039    28.968     8.826
    53   6 C        2.907    -0.054    29.330     8.880
    54   6 C        3.088     0.036    27.101     8.533
    55   6 C        2.921    -0.041    29.011     8.833
    56   6 C        2.920    -0.026    28.661     8.779
    57   1 H        0.926     0.047     2.361     2.403
    58   1 H        0.926     0.046     2.369     2.407
    59   1 H        0.926     0.036     2.508     2.477
    60   1 H        0.926     0.039     2.466     2.456
    61   1 H        0.926     0.049     2.338     2.391
    62   1 H        0.926     0.029     2.597     2.520
    63   1 H        0.926     0.030     2.586     2.515
    64   1 H        0.926     0.030     2.586     2.515
    65   1 H        0.926     0.029     2.601     2.522
    66   1 H        0.926     0.050     2.318     2.381
    67   1 H        0.926     0.054     2.275     2.359
    68   1 H        0.926     0.039     2.467     2.456
    69   1 H        0.926     0.034     2.523     2.484
    70   1 H        0.926     0.036     2.507     2.476
    71   1 H        0.926     0.032     2.552     2.498
    72   1 H        0.926     0.043     2.406     2.426
    73   1 H        0.926     0.047     2.362     2.403
    74   1 H        0.926     0.047     2.361     2.403
    75   1 H        0.926     0.046     2.370     2.407
    76   1 H        0.926     0.036     2.509     2.477
    77   1 H        0.926     0.038     2.470     2.458
    78   1 H        0.926     0.048     2.346     2.395
    79   1 H        0.926     0.031     2.579     2.511
    80   1 H        0.926     0.030     2.585     2.514
    81   1 H        0.926     0.030     2.586     2.515
    82   1 H        0.926     0.030     2.586     2.515
    83   1 H        0.926     0.050     2.326     2.385
    84   1 H        0.926     0.054     2.269     2.356
    85   1 H        0.926     0.039     2.467     2.456
    86   1 H        0.926     0.035     2.523     2.484
    87   1 H        0.926     0.036     2.507     2.476
    88   1 H        0.926     0.032     2.552     2.498
    89   1 H        0.926     0.043     2.405     2.425
    90   1 H        0.926     0.047     2.361     2.403

molecular dipole:
                 x           y           z       tot (Debye)
 q only:        0.058      -2.296      -0.057
   full:        0.069      -2.832      -0.049       7.202

 projected vibrational frequencies (cm⁻¹)
eigval :       -0.00    -0.00    -0.00     0.00     0.00     0.00
eigval :        4.82     7.76    10.80    20.18    23.21    24.97
eigval :       36.75    40.89    53.14    55.09    58.63    60.77
eigval :       64.15    65.89    69.38    77.78    82.53    86.59
eigval :       96.72   103.14   126.21   155.77   156.24   167.89
eigval :      183.18   206.93   208.80   213.12   228.66   234.95
eigval :      239.62   247.21   256.64   283.04   290.47   293.22
eigval :      335.32   336.83   349.29   363.08   367.11   375.86
eigval :      377.33   380.58   382.04   384.30   387.57   393.30
eigval :      398.63   413.66   414.22   430.42   434.83   435.77
eigval :      453.93   457.85   482.97   483.14   497.44   506.79
eigval :      515.63   518.87   544.47   546.38   547.72   551.08
eigval :      576.64   577.31   589.15   591.43   592.35   596.76
eigval :      599.48   602.24   611.22   615.65   626.89   656.20
eigval :      656.81   658.94   662.30   663.46   667.75   669.68
eigval :      693.68   699.02   703.88   710.44   712.25   715.23
eigval :      719.47   742.90   763.82   764.61   771.34   771.66
eigval :      772.93   773.55   819.18   823.00   857.90   859.25
eigval :      859.93   863.32   865.62   866.83   873.15   874.59
eigval :      878.01   880.03   883.02   884.00   889.09   891.72
eigval :      892.42   896.96   897.66   904.86   905.04   908.10
eigval :      912.85   919.11   919.28   919.45   920.60   922.14
eigval :      922.51   929.18   930.30   931.70   931.91   932.45
eigval :      932.69   943.85   954.78   955.63  1004.16  1008.70
eigval :     1027.78  1029.35  1058.96  1059.19  1079.14  1079.90
eigval :     1111.03  1113.28  1116.08  1116.45  1121.85  1125.65
eigval :     1130.71  1131.37  1132.95  1133.45  1134.37  1136.17
eigval :     1173.17  1173.31  1177.49  1178.73  1180.98  1182.10
eigval :     1182.51  1184.94  1188.80  1189.52  1195.16  1205.20
eigval :     1205.26  1218.90  1236.18  1256.06  1259.07  1260.39
eigval :     1262.84  1263.00  1273.00  1275.34  1275.87  1289.37
eigval :     1290.95  1296.91  1309.40  1309.67  1312.44  1313.26
eigval :     1314.75  1315.34  1321.65  1328.63  1357.38  1360.54
eigval :     1360.81  1363.70  1372.51  1373.28  1402.68  1404.75
eigval :     1414.42  1414.88  1424.30  1433.60  1433.74  1437.24
eigval :     1465.67  1466.84  1476.12  1476.13  1485.89  1485.98
eigval :     1489.57  1510.61  1529.89  1531.10  1555.72  1556.35
eigval :     1557.18  1576.65  1580.13  1582.34  1582.61  1585.93
eigval :     1587.42  1590.73  1591.14  1592.78  1592.79  1595.45
eigval :     1614.00  1614.08  3074.59  3074.84  3079.24  3079.32
eigval :     3080.82  3080.92  3080.98  3081.39  3081.71  3081.78
eigval :     3085.48  3085.68  3087.46  3088.36  3089.49  3089.55
eigval :     3089.68  3089.73  3090.61  3090.85  3092.05  3092.37
eigval :     3096.81  3097.21  3100.21  3100.60  3100.87  3101.40
eigval :     3102.34  3104.09  3104.55  3106.70  3107.56  3111.20

   temp. (K)  partition function   enthalpy   heat capacity  entropy
                                   cal/mol     cal/K/mol   cal/K/mol   J/K/mol
 298.15  VIB  0.148E+22            25749.816    162.633    162.764
         ROT  0.153E+09              888.752      2.981     40.437
         INT  0.227E+30            26638.568    165.614    203.200
         TR   0.186E+29             1481.254      4.968     45.577
         TOT                       28119.8224   170.5818   248.7773  1040.8842

       T/K    H(0)-H(T)+PV         H(T)/Eh          T*S/Eh         G(T)/Eh
   ------------------------------------------------------------------------
    298.15    0.448118E-01    0.733868E+00    0.118202E+00    0.615666E+00
   ------------------------------------------------------------------------

         :::::::::::::::::::::::::::::::::::::::::::::::::::::
         ::                  THERMODYNAMIC                  ::
         :::::::::::::::::::::::::::::::::::::::::::::::::::::
         :: total free energy        -141.484671829441 Eh   ::
         ::.................................................::
         :: total energy             -142.100337950997 Eh   ::
         :: zero point energy           0.689056453907 Eh   ::
         :: G(RRHO) w/o ZPVE           -0.073390332351 Eh   ::
         :: G(RRHO) contrib.            0.615666121556 Eh   ::
         :::::::::::::::::::::::::::::::::::::::::::::::::::::

           -------------------------------------------------
          | TOTAL ENERGY             -142.100337950997 Eh   |
          | TOTAL ENTHALPY           -141.366469707708 Eh   |
          | TOTAL FREE ENERGY        -141.484671829441 Eh   |
          | GRADIENT NORM               0.000047204289 Eh/α |
          | HOMO-LUMO GAP               1.611336206604 eV   |
           -------------------------------------------------

 * finished run on 2025/09/04 at 23:43:07.087
