   * xtb version 6.7.1 (edcfbbe) compiled by 'albert@albert-system' on 2024-07-22

   ID    Z sym.   atoms
    1    6 C      1-4, 6-10, 12-17, 19-23, 25-30, 32-47, 49-56
    2    7 N      5, 11, 18, 24, 31, 48
    3    1 H      57-90

          program call               : xtb data2507/toluene/DHPZ-2BI/DHPZ-2BI_toluene_S0_finalOpt.xtbopt.xyz --gfn 2 --uhf 2 --gbsa toluene --ohess vtight --parallel 40 --molden --ceasefiles --namespace data2507/toluene/DHPZ-2BI/DHPZ-2BI_toluene_T1_preOpt
      * Solvation model:               GBSA
        Solvent                        toluene
        Solvent mass                       9.2140E+01 g/mol
          :  Hamiltonian                  GFN2-xTB          :
 * total energy  :  -142.0200906 Eh     change       -0.8643042E-10 Eh
 * total energy  :  -142.0240208 Eh     change       -0.3930247E-02 Eh
 * total energy  :  -142.0250564 Eh     change       -0.1035566E-02 Eh
 * total energy  :  -142.0252235 Eh     change       -0.1671207E-03 Eh
 * total energy  :  -142.0254413 Eh     change       -0.2178125E-03 Eh
 * total energy  :  -142.0255780 Eh     change       -0.1366187E-03 Eh
 * total energy  :  -142.0256976 Eh     change       -0.1195996E-03 Eh
 * total energy  :  -142.0258108 Eh     change       -0.1132451E-03 Eh
 * total energy  :  -142.0259267 Eh     change       -0.1159134E-03 Eh
 * total energy  :  -142.0259705 Eh     change       -0.4382086E-04 Eh
 * total energy  :  -142.0265904 Eh     change       -0.1673169E-05 Eh
 * total energy  :  -142.0265920 Eh     change       -0.1562134E-05 Eh
 * total energy  :  -142.0265935 Eh     change       -0.1507908E-05 Eh
 * total energy  :  -142.0265950 Eh     change       -0.1487641E-05 Eh
 * total energy  :  -142.0265965 Eh     change       -0.1508200E-05 Eh
 * total energy  :  -142.0265980 Eh     change       -0.1559614E-05 Eh
 * total energy  :  -142.0265997 Eh     change       -0.1630974E-05 Eh
 * total energy  :  -142.0266014 Eh     change       -0.1722293E-05 Eh
 * total energy  :  -142.0266014 Eh     change       -0.7802754E-08 Eh
   *** GEOMETRY OPTIMIZATION CONVERGED AFTER 94 ITERATIONS ***

 final structure:
================
90
 xtb: 6.7.1 (edcfbbe)
C            7.02158328712775       -3.77280363781106       -2.12764761708141
C            6.42140060083451       -3.49976834994564       -0.90803433866149
C            6.71074802796918       -2.32870274909467       -0.23492783796600
C            7.60000756957167       -1.40897360712369       -0.78985358553139
N            7.90560196454924       -0.22459911294323       -0.10410411699187
C            7.02573685396386        0.63987798959589        0.54369350833636
C            5.60507471876835        0.64580623086071        0.37295460396838
C            4.95831647013650        0.13389260681003       -0.77061247437205
C            3.59016974933117        0.16427988545307       -0.87647322500334
C            2.81260078566038        0.71141818630861        0.14947745453341
N            1.39736338927618        0.70736777957332        0.05144413502448
C            0.71880352958050       -0.49138986622788        0.03792620690855
C            1.39241844944486       -1.71132941924463        0.16300288694281
C            0.71015413990469       -2.90525539177638        0.08414763896756
C           -0.66624636858889       -2.91156085597522       -0.13521213634076
C           -1.35878856375685       -1.72384692879220       -0.21660798298831
C           -0.69553341399007       -0.49778512017620       -0.09506608324820
N           -1.38517064851424        0.69440984300651       -0.11093824043051
C           -2.80108940266216        0.68436459422371       -0.19903860030202
C           -3.44436379535474        1.22325973934583       -1.32168107836698
C           -4.81109469634475        1.18381899427404       -1.41325267382269
C           -5.59512577407536        0.59646464876650       -0.39740547438589
C           -7.01707171362403        0.58433456428428       -0.55491065642139
N           -7.65894288598534        1.45478851069597       -1.31904372327812
C           -8.98342457022796        1.20004283935775       -1.15742552232135
C          -10.09465934598892        1.82146904111929       -1.72617088114666
C          -11.34363783350246        1.33586310510767       -1.39668575823937
C          -11.50415611678049        0.25257691268477       -0.53323101387149
C          -10.41559705336040       -0.37758224336711        0.04795914972701
C           -9.16103720396962        0.11647276034837       -0.25855425889505
N           -7.89142274092538       -0.26771693424218        0.11660538887432
C           -7.58240215856948       -1.43717481653417        0.82597047393639
C           -8.17540694490447       -1.68247442094668        2.06176316343322
C           -7.88388258974500       -2.84808640290748        2.74688458377765
C           -6.99998785842275       -3.77178839971434        2.21247480711912
C           -6.40958534014513       -3.52868899168374        0.98178658570361
C           -6.70084408112557       -2.37227048496341        0.28455351326795
C           -4.93442306092506        0.09818726638336        0.74431217967501
C           -3.56562869501949        0.13882953255662        0.83744550649556
C           -0.70957632268208        1.89281667817959       -0.04760391422897
C           -1.39359711836776        3.11207955456060        0.00142427213480
C           -0.70617074099121        4.30565943258199       -0.00444821367020
C            0.68618476109643        4.31161106139733       -0.07510129440956
C            1.38405604641256        3.12418741190076       -0.07496769362330
C            0.71077089958684        1.89910652145272       -0.01952431491343
C            3.44221480715818        1.26534849610884        1.27258559571870
C            4.80843168972131        1.23737140697254        1.37615648776622
N            7.66048152490474        1.52391187214548        1.29765893542820
C            8.98647525431280        1.26545729104751        1.15331014781887
C           10.09265205896743        1.89624982087085        1.72150392384772
C           11.34432921784342        1.40358124527849        1.41335558001467
C           11.51226608505349        0.30455288168013        0.57149738759873
C           10.42888210301263       -0.33520116159594       -0.00882146231571
C            9.17187280298414        0.16537791373179        0.27630712828753
C            8.20295838583195       -1.68433979033523       -2.01439252573788
C            7.91327490935024       -2.86441505231777       -2.67516381830290
H            6.79644236045274       -4.69094125898806       -2.64887739555731
H            5.73131859755262       -4.20776617207092       -0.47355236738905
H            6.25754922027308       -2.11436247524203        0.72204632244590
H            5.54114241837376       -0.25789224307093       -1.58921821367751
H            3.10549104412323       -0.21889913561193       -1.76257758098656
H            2.45825575735018       -1.70896074097854        0.32134206048261
H            1.24793774448970       -3.83473158193657        0.18168977062959
H           -1.19584046183016       -3.84594818116620       -0.23068626908435
H           -2.42471118659444       -1.73058046470088       -0.37446621238439
H           -2.85350177442449        1.65001072307238       -2.11855264627020
H           -5.32170204253068        1.58935776264320       -2.27208491249361
H           -9.96834882723729        2.65087683479106       -2.40475101644671
H          -12.22273996555960        1.79892707896386       -1.82238942538897
H          -12.49977973469285       -0.10445958462187       -0.31310118971034
H          -10.54745285172850       -1.22366292384923        0.70641698770945
H           -8.84889138944378       -0.95050179968337        2.48314965295359
H           -8.34556499465637       -3.03121743015919        3.70609232686588
H           -6.77332109762070       -4.67858111346367        2.75258585773363
H           -5.72541861946422       -4.24875203162239        0.55791050507577
H           -6.25455086707771       -2.18100673918849       -0.68052255427418
H           -5.50675859318168       -0.29115189056364        1.57135051649958
H           -3.07023708335949       -0.23439258642757        1.72187836783022
H           -2.47057910098387        3.10947571732678        0.04227243202382
H           -1.25141976413363        5.23517317473443        0.03305737028213
H            1.22319061676151        5.24572187405484       -0.11735127920049
H            2.46100767446043        3.13073572595257       -0.11608281434179
H            2.84146760122273        1.69441967198086        2.06076739501367
H            5.30841588460858        1.65424899066977        2.23583169099088
H            9.96055899049116        2.73837048908157        2.38313623257408
H           12.21965755436011        1.87356209862861        1.83924418473884
H           12.50965779078240       -0.05733991777068        0.36793775452148
H           10.56628348635802       -1.19359508869671       -0.64996408700879
H            8.88269487619638       -0.96450419992384       -2.44655496919451
H            8.38281953235453       -3.07111712031237       -3.62570841834494

          :  Hamiltonian                  GFN2-xTB          :
         :: gradient norm              0.000072195790 Eh/a0 ::
         :: HOMO-LUMO gap              0.014253730872 eV    ::
         :: SCC energy              -144.607211551160 Eh    ::
         :: -> dispersion             -0.130811697853 Eh    ::
         :: -> Gsolv                  -0.067574846443 Eh    ::
         :: repulsion energy           2.580610144560 Eh    ::

    * Orbital Energies and Occupations

         #    Occupation            Energy/Eh            Energy/eV
      -------------------------------------------------------------
         1        2.0000           -0.7129201             -19.3995
       ...           ...                  ...                  ...
       121        2.0000           -0.4126762             -11.2295
       122        2.0000           -0.4122811             -11.2187
       123        2.0000           -0.4071295             -11.0786
       124        2.0000           -0.4065824             -11.0637
       125        2.0000           -0.4020921             -10.9415
       126        2.0000           -0.3746015             -10.1934
       127        2.0000           -0.3740744             -10.1791
       128        2.0000           -0.3714681             -10.1082
       129        2.0000           -0.3703774             -10.0785
       130        1.9999           -0.3688253             -10.0362
       131        1.9999           -0.3681448             -10.0177
       132        1.0002           -0.3512610              -9.5583
       133        0.5289           -0.2662980              -7.2463 (HOMO)
       134        0.3928           -0.2657742              -7.2321 (LUMO)
       135        0.0784           -0.2638466              -7.1796
       136                         -0.2476785              -6.7397
       137                         -0.2346890              -6.3862
       138                         -0.2339918              -6.3672
       139                         -0.2334640              -6.3529
       140                         -0.2331778              -6.3451
       141                         -0.2295072              -6.2452
       142                         -0.2271727              -6.1817
       143                         -0.2269842              -6.1766
       144                         -0.2182264              -5.9382
       ...                                ...                  ...
       258                          0.7082823              19.2733
      -------------------------------------------------------------
                  HL-Gap            0.0005238 Eh            0.0143 eV

     #   Z          covCN         q      C6AA      α(0)
     1   6 C        2.919    -0.035    28.868     8.811
     2   6 C        2.919    -0.028    28.711     8.787
     3   6 C        2.921    -0.043    29.056     8.840
     4   6 C        2.912     0.065    26.539     8.447
     5   7 N        2.816    -0.074    22.672     7.072
     6   6 C        3.156     0.131    24.867     8.154
     7   6 C        2.970    -0.013    28.336     8.732
     8   6 C        2.919    -0.042    29.033     8.836
     9   6 C        2.915    -0.041    29.011     8.832
    10   6 C        2.927     0.031    27.313     8.571
    11   7 N        2.752     0.005    21.176     6.835
    12   6 C        2.931     0.049    26.894     8.505
    13   6 C        2.918    -0.046    29.139     8.852
    14   6 C        2.916    -0.026    28.662     8.779
    15   6 C        2.916    -0.026    28.660     8.779
    16   6 C        2.918    -0.046    29.138     8.852
    17   6 C        2.931     0.049    26.895     8.505
    18   7 N        2.752     0.005    21.176     6.835
    19   6 C        2.927     0.031    27.316     8.571
    20   6 C        2.914    -0.040    29.004     8.831
    21   6 C        2.925    -0.035    28.871     8.812
    22   6 C        2.970    -0.013    28.338     8.732
    23   6 C        3.155     0.131    24.873     8.155
    24   7 N        1.881    -0.341    29.712     8.080
    25   6 C        3.171     0.072    26.032     8.335
    26   6 C        2.910    -0.058    29.437     8.897
    27   6 C        2.920    -0.045    29.123     8.850
    28   6 C        2.925    -0.047    29.158     8.855
    29   6 C        2.907    -0.062    29.537     8.912
    30   6 C        3.072     0.038    27.073     8.531
    31   7 N        2.816    -0.074    22.673     7.072
    32   6 C        2.911     0.065    26.539     8.447
    33   6 C        2.921    -0.044    29.086     8.844
    34   6 C        2.919    -0.029    28.728     8.789
    35   6 C        2.919    -0.035    28.869     8.811
    36   6 C        2.919    -0.028    28.711     8.787
    37   6 C        2.921    -0.042    29.055     8.839
    38   6 C        2.919    -0.042    29.038     8.837
    39   6 C        2.915    -0.041    29.011     8.832
    40   6 C        2.931     0.050    26.886     8.504
    41   6 C        2.918    -0.045    29.128     8.850
    42   6 C        2.917    -0.026    28.643     8.776
    43   6 C        2.916    -0.026    28.641     8.776
    44   6 C        2.918    -0.045    29.128     8.850
    45   6 C        2.931     0.050    26.888     8.504
    46   6 C        2.914    -0.040    29.003     8.831
    47   6 C        2.925    -0.035    28.869     8.811
    48   7 N        1.881    -0.341    29.709     8.080
    49   6 C        3.172     0.072    26.030     8.334
    50   6 C        2.910    -0.058    29.435     8.896
    51   6 C        2.920    -0.045    29.122     8.850
    52   6 C        2.925    -0.047    29.157     8.855
    53   6 C        2.907    -0.062    29.535     8.911
    54   6 C        3.072     0.038    27.074     8.531
    55   6 C        2.921    -0.044    29.086     8.844
    56   6 C        2.919    -0.029    28.727     8.789
    57   1 H        0.926     0.041     2.442     2.444
    58   1 H        0.926     0.042     2.423     2.434
    59   1 H        0.926     0.033     2.550     2.497
    60   1 H        0.926     0.030     2.579     2.512
    61   1 H        0.926     0.041     2.431     2.438
    62   1 H        0.926     0.058     2.224     2.332
    63   1 H        0.926     0.056     2.245     2.343
    64   1 H        0.926     0.056     2.245     2.343
    65   1 H        0.926     0.058     2.225     2.332
    66   1 H        0.926     0.043     2.405     2.425
    67   1 H        0.926     0.050     2.321     2.382
    68   1 H        0.926     0.027     2.631     2.537
    69   1 H        0.926     0.023     2.688     2.564
    70   1 H        0.926     0.023     2.684     2.562
    71   1 H        0.926     0.021     2.724     2.581
    72   1 H        0.926     0.036     2.500     2.473
    73   1 H        0.926     0.039     2.458     2.452
    74   1 H        0.926     0.040     2.443     2.444
    75   1 H        0.926     0.042     2.424     2.435
    76   1 H        0.926     0.033     2.549     2.496
    77   1 H        0.926     0.030     2.580     2.512
    78   1 H        0.926     0.041     2.434     2.440
    79   1 H        0.926     0.059     2.211     2.325
    80   1 H        0.926     0.057     2.239     2.340
    81   1 H        0.926     0.057     2.239     2.340
    82   1 H        0.926     0.059     2.211     2.325
    83   1 H        0.926     0.043     2.404     2.425
    84   1 H        0.926     0.050     2.323     2.383
    85   1 H        0.926     0.027     2.630     2.536
    86   1 H        0.926     0.023     2.687     2.564
    87   1 H        0.926     0.023     2.683     2.561
    88   1 H        0.926     0.021     2.723     2.580
    89   1 H        0.926     0.036     2.499     2.472
    90   1 H        0.926     0.039     2.458     2.451

molecular dipole:
                 x           y           z       tot (Debye)
 q only:        0.028      -1.498      -0.014
   full:        0.029      -2.006      -0.005       5.100

 projected vibrational frequencies (cm⁻¹)
eigval :       -0.00    -0.00     0.00     0.00     0.00     0.00
eigval :        5.51     8.68    10.08    18.09    20.48    29.70
eigval :       38.66    40.72    54.75    57.89    60.19    65.44
eigval :       67.30    67.96    72.95    80.83    83.27    92.13
eigval :      102.26   103.90   126.50   154.01   156.57   167.49
eigval :      188.06   208.39   209.83   214.94   230.98   239.98
eigval :      241.01   242.13   257.18   283.77   287.76   290.21
eigval :      331.87   336.60   351.48   364.08   365.21   373.92
eigval :      379.01   380.25   385.16   386.45   388.37   390.96
eigval :      408.52   412.39   415.38   426.02   430.83   434.07
eigval :      452.82   466.08   474.63   480.06   480.12   490.24
eigval :      511.44   534.85   538.81   539.42   541.08   549.98
eigval :      573.79   574.97   582.95   587.31   590.04   590.49
eigval :      596.09   598.84   608.85   614.71   624.80   627.69
eigval :      634.39   651.28   661.59   666.56   666.90   668.24
eigval :      675.25   676.67   683.72   701.52   702.43   708.70
eigval :      715.21   734.74   758.91   759.04   760.35   760.89
eigval :      763.97   770.14   801.19   804.80   841.54   845.25
eigval :      845.44   847.08   856.75   861.18   862.45   863.76
eigval :      873.35   874.00   878.63   879.56   880.07   880.97
eigval :      885.62   892.70   897.62   898.98   899.75   901.86
eigval :      905.05   908.87   910.30   911.66   912.24   912.95
eigval :      914.76   915.63   917.73   926.06   927.87   927.90
eigval :      928.55   930.04   945.36   945.94   992.07   992.84
eigval :     1007.81  1011.83  1060.84  1061.13  1077.13  1077.30
eigval :     1087.51  1091.76  1107.26  1108.20  1116.96  1118.05
eigval :     1124.25  1129.99  1130.51  1131.00  1132.78  1133.71
eigval :     1158.02  1166.55  1172.70  1172.92  1173.04  1176.74
eigval :     1176.91  1182.63  1185.61  1186.97  1199.63  1202.39
eigval :     1205.52  1209.51  1222.62  1245.77  1251.19  1253.76
eigval :     1256.33  1257.84  1272.06  1274.81  1277.60  1277.97
eigval :     1296.02  1298.40  1298.45  1302.34  1304.87  1315.62
eigval :     1316.32  1316.55  1324.82  1328.51  1343.27  1344.91
eigval :     1349.49  1358.60  1367.52  1367.80  1378.65  1379.35
eigval :     1384.35  1407.30  1419.91  1420.53  1422.63  1423.78
eigval :     1428.87  1431.64  1432.89  1434.84  1443.82  1450.22
eigval :     1454.65  1472.66  1472.88  1475.23  1482.09  1482.36
eigval :     1502.83  1507.46  1509.29  1531.07  1543.67  1567.84
eigval :     1568.01  1576.90  1577.60  1578.33  1582.15  1588.77
eigval :     1592.91  1593.15  3064.89  3065.64  3068.49  3069.07
eigval :     3075.14  3075.59  3076.16  3076.18  3080.15  3080.55
eigval :     3081.98  3082.18  3083.26  3083.91  3084.33  3084.53
eigval :     3087.33  3087.42  3092.84  3093.09  3096.95  3097.02
eigval :     3099.53  3100.08  3102.68  3103.58  3107.66  3107.74
eigval :     3108.77  3109.64  3117.96  3120.07  3120.22  3121.96

   temp. (K)  partition function   enthalpy   heat capacity  entropy
                                   cal/mol     cal/K/mol   cal/K/mol   J/K/mol
 298.15  VIB  0.913E+21            25858.347    164.556    162.817
         ROT  0.156E+09              888.752      2.981     40.474
         INT  0.143E+30            26747.099    167.537    203.291
         TR   0.186E+29             1481.254      4.968     45.577
         TOT                       28228.3534   172.5052   248.8677  1041.2625

       T/K    H(0)-H(T)+PV         H(T)/Eh          T*S/Eh         G(T)/Eh
   ------------------------------------------------------------------------
    298.15    0.449847E-01    0.729380E+00    0.118245E+00    0.611135E+00
   ------------------------------------------------------------------------

         :::::::::::::::::::::::::::::::::::::::::::::::::::::
         ::                  THERMODYNAMIC                  ::
         :::::::::::::::::::::::::::::::::::::::::::::::::::::
         :: total free energy        -141.415466128663 Eh   ::
         ::.................................................::
         :: total energy             -142.026601404734 Eh   ::
         :: zero point energy           0.684395611644 Eh   ::
         :: G(RRHO) w/o ZPVE           -0.073260335574 Eh   ::
         :: G(RRHO) contrib.            0.611135276071 Eh   ::
         :::::::::::::::::::::::::::::::::::::::::::::::::::::

           -------------------------------------------------
          | TOTAL ENERGY             -142.026601404734 Eh   |
          | TOTAL ENTHALPY           -141.297221048549 Eh   |
          | TOTAL FREE ENERGY        -141.415466128663 Eh   |
          | GRADIENT NORM               0.000075623047 Eh/α |
          | HOMO-LUMO GAP               0.014253153674 eV   |
           -------------------------------------------------

 * finished run on 2025/09/04 at 23:43:23.686
