   * xtb version 6.7.1 (edcfbbe) compiled by 'albert@albert-system' on 2024-07-22

   ID    Z sym.   atoms
    1    6 C      1-4, 6-10, 12-17, 19-23, 25-30, 32-47, 49-56
    2    7 N      5, 11, 18, 24, 31, 48
    3    1 H      57-90

          program call               : xtb data2507/toluene/DHPZ-2BI/DHPZ-2BI_toluene_T1_crest.xyz --gfn 2 --uhf 2 --gbsa toluene --ohess vtight --parallel 40 --molden --ceasefiles --namespace data2507/toluene/DHPZ-2BI/DHPZ-2BI_toluene_T1_finalOpt
      * Solvation model:               GBSA
        Solvent                        toluene
        Solvent mass                       9.2140E+01 g/mol
          :  Hamiltonian                  GFN2-xTB          :
 * total energy  :  -142.0264509 Eh     change       -0.4317059E-08 Eh
 * total energy  :  -142.0265743 Eh     change       -0.1234036E-03 Eh
 * total energy  :  -142.0266250 Eh     change       -0.5065545E-04 Eh
 * total energy  :  -142.0266344 Eh     change       -0.9404044E-05 Eh
 * total energy  :  -142.0266421 Eh     change       -0.7696187E-05 Eh
 * total energy  :  -142.0266490 Eh     change       -0.6885266E-05 Eh
 * total energy  :  -142.0266561 Eh     change       -0.7169668E-05 Eh
 * total energy  :  -142.0266615 Eh     change       -0.5342887E-05 Eh
 * total energy  :  -142.0266649 Eh     change       -0.3410217E-05 Eh
 * total energy  :  -142.0266673 Eh     change       -0.2439610E-05 Eh
 * total energy  :  -142.0266920 Eh     change       -0.2987078E-06 Eh
 * total energy  :  -142.0266922 Eh     change       -0.2641889E-06 Eh
 * total energy  :  -142.0266924 Eh     change       -0.1716975E-06 Eh
 * total energy  :  -142.0266925 Eh     change       -0.1261919E-06 Eh
 * total energy  :  -142.0266927 Eh     change       -0.1412469E-06 Eh
 * total energy  :  -142.0266928 Eh     change       -0.1489749E-06 Eh
 * total energy  :  -142.0266930 Eh     change       -0.1293490E-06 Eh
 * total energy  :  -142.0266931 Eh     change       -0.1057157E-06 Eh
 * total energy  :  -142.0266931 Eh     change       -0.7537727E-07 Eh
   *** GEOMETRY OPTIMIZATION CONVERGED AFTER 42 ITERATIONS ***

 final structure:
================
90
 xtb: 6.7.1 (edcfbbe)
C            7.08660978902706       -3.57694916031027       -2.47166509139193
C            6.48531327998321       -3.42300866523877       -1.23190371665353
C            6.75416587451697       -2.30954087602380       -0.45975541542266
C            7.62402987290895       -1.32820243228273       -0.93392438418187
N            7.91214755306132       -0.20289434889788       -0.14820271913286
C            7.02313284783640        0.59627944486884        0.56721253513155
C            5.60148308523215        0.60161279522036        0.40288690514900
C            4.95031028653790        0.15918056416231       -0.76658105008502
C            3.58099068793340        0.18962225261917       -0.86226674190201
C            2.80852964733982        0.67352780756447        0.19786673883470
N            1.39167578020354        0.67698455728416        0.10474139272289
C            0.70962623123984       -0.51837805349935        0.06927365920244
C            1.38108717076176       -1.74194653154782        0.16633457215305
C            0.69376958973976       -2.93208354805302        0.07687678782139
C           -0.68571887119335       -2.93055748061887       -0.12481556639910
C           -1.37488918754505       -1.73964377647309       -0.18548031708838
C           -0.70557444661989       -0.51772569853132       -0.05732962217510
N           -1.38893519525497        0.67761979839104       -0.06295726782837
C           -2.80497178145382        0.67586722800672       -0.16287587761109
C           -3.43301542413801        1.20092603287674       -1.30026717775990
C           -4.79893449783641        1.16850644769135       -1.40483620221779
C           -5.59735456093552        0.60618566259630       -0.38581624355756
C           -7.01738093412412        0.60358747722342       -0.56041458765035
N           -7.63760671505399        1.45481023971080       -1.36340139265945
C           -8.96713987749424        1.21939699808656       -1.21593596082038
C          -10.06207771819171        1.83176725525092       -1.82469618226423
C          -11.32135053204477        1.36935984773639       -1.50114967770657
C          -11.50772856393070        0.31773318875377       -0.60441410970965
C          -10.43573483976804       -0.30231674250239        0.01704731361371
C           -9.17115075651684        0.16891076870366       -0.28423240885439
N           -7.91213187066899       -0.21566838060628        0.12485785036058
C           -7.63181405444974       -1.36030173096315        0.88507938922378
C           -8.24561529832480       -1.54451231588171        2.12135371704061
C           -7.98434334439774       -2.68618643023577        2.85714300044998
C           -7.11026908338023       -3.64615965726653        2.37283072739130
C           -6.49910754920092       -3.46382528087070        1.14175723544259
C           -6.76004990447038       -2.33174618267619        0.39428437297487
C           -4.95130284699300        0.12431325920166        0.77112000030657
C           -3.58269207210931        0.15390317036260        0.87533789424087
C           -0.70939321247392        1.87217236242768        0.01794416126436
C           -1.38961372102599        3.09334804527813        0.07371238225394
C           -0.69748247073471        4.28383123110206        0.09606292233110
C            0.69624163302404        4.28540263475354        0.04996414171111
C            1.38975717570424        3.09552068876077        0.03810200974021
C            0.71097266960977        1.87258478086345        0.05830914094790
C            3.44148397739749        1.15859663277670        1.34987847291871
C            4.80824751969408        1.12538260643658        1.44576238836579
N            7.64914860394354        1.42494930827832        1.38845185413949
C            8.97779681578151        1.19485437052055        1.22308201543019
C           10.07738336548648        1.79130068071748        1.83898149666790
C           11.33419069856264        1.33924515567419        1.49199309492423
C           11.51362631492667        0.31300520190987        0.56496187032577
C           10.43680570468554       -0.29052849712807       -0.06426988613628
C            9.17448887261122        0.17091263699563        0.26084972339041
C            8.22746153997782       -1.48354135291321       -2.17917894476373
C            7.95844767468593       -2.60701175303245       -2.93983860864405
H            6.87782412832028       -4.45072133007217       -3.07022531107079
H            5.81033367867063       -4.17957561457098       -0.86007368322835
H            6.29882950393720       -2.18688435349773        0.51222895401177
H            5.52915806602258       -0.18016416633206       -1.61090564980728
H            3.09201460687979       -0.14412588022012       -1.76581554247897
H            2.44883777966006       -1.74382760787275        0.31189612190040
H            1.22914065265104       -3.86491735869449        0.15351802707537
H           -1.21971777430688       -3.86199627238989       -0.22453899941106
H           -2.44247956364379       -1.74015531465559       -0.33212129736968
H           -2.83132051939374        1.61154754595950       -2.09747379268957
H           -5.29847505691749        1.56216141128591       -2.27557652195450
H           -9.91598651566290        2.63725142975141       -2.52774093105230
H          -12.18820079531631        1.82596631359928       -1.95786286019072
H          -12.51059250731201       -0.02216102331433       -0.39000134994723
H          -10.58720716584521       -1.12402338458692        0.70165540026171
H           -8.91135500286504       -0.78404587390226        2.50278762355680
H           -8.46199037891868       -2.82252975165729        3.81632757441650
H           -6.90738139469653       -4.53415314537750        2.95220873909082
H           -5.82255292290007       -4.21264405096848        0.75726385704602
H           -6.29654662299380       -2.18648801069270       -0.57070734628347
H           -5.53389669514196       -0.24520056680529        1.60000292879135
H           -3.09812081075278       -0.20974544329561        1.76969105100829
H           -2.46714107145823        3.09392013785552        0.09805886211748
H           -1.23953126291740        5.21500757392586        0.13848032620188
H            1.23717275455101        5.21806357030141        0.03468191370264
H            2.46732693948390        3.09778566328612        0.01455132797757
H            2.84329726041649        1.53949720987463        2.16427377774269
H            5.31192149909435        1.48891627618045        2.32716097334857
H            9.93670906869630        2.57726542273629        2.56485217437474
H           12.20458604802450        1.78402221113889        1.95359175852834
H           12.51485596185841       -0.01977645503195        0.33254761024282
H           10.58283987496222       -1.09319090063036       -0.77229008706447
H            8.89132870466292       -0.71516584073326       -2.54776533401597
H            8.42829212596946       -2.72121739533653       -3.90574761118972

          :  Hamiltonian                  GFN2-xTB          :
         :: gradient norm              0.000022890705 Eh/a0 ::
         :: HOMO-LUMO gap              0.011145685667 eV    ::
         :: SCC energy              -144.607485061658 Eh    ::
         :: -> dispersion             -0.130638266666 Eh    ::
         :: -> Gsolv                  -0.067599881256 Eh    ::
         :: repulsion energy           2.580791929995 Eh    ::

    * Orbital Energies and Occupations

         #    Occupation            Energy/Eh            Energy/eV
      -------------------------------------------------------------
         1        2.0000           -0.7131315             -19.4053
       ...           ...                  ...                  ...
       121        2.0000           -0.4127362             -11.2311
       122        2.0000           -0.4123052             -11.2194
       123        2.0000           -0.4072012             -11.0805
       124        2.0000           -0.4065692             -11.0633
       125        2.0000           -0.4025740             -10.9546
       126        2.0000           -0.3744857             -10.1903
       127        2.0000           -0.3740292             -10.1779
       128        2.0000           -0.3711699             -10.1000
       129        2.0000           -0.3702499             -10.0750
       130        1.9999           -0.3686534             -10.0316
       131        1.9999           -0.3680079             -10.0140
       132        1.0002           -0.3515585              -9.5664
       133        0.5109           -0.2662589              -7.2453 (HOMO)
       134        0.4043           -0.2658493              -7.2341 (LUMO)
       135        0.0847           -0.2639565              -7.1826
       136                         -0.2477481              -6.7416
       137                         -0.2345413              -6.3822
       138                         -0.2339580              -6.3663
       139                         -0.2334124              -6.3515
       140                         -0.2331338              -6.3439
       141                         -0.2296016              -6.2478
       142                         -0.2272417              -6.1836
       143                         -0.2270272              -6.1777
       144                         -0.2179178              -5.9298
       ...                                ...                  ...
       258                          0.7083750              19.2759
      -------------------------------------------------------------
                  HL-Gap            0.0004096 Eh            0.0111 eV

     #   Z          covCN         q      C6AA      α(0)
     1   6 C        2.919    -0.035    28.867     8.811
     2   6 C        2.919    -0.028    28.710     8.787
     3   6 C        2.921    -0.042    29.053     8.839
     4   6 C        2.912     0.065    26.539     8.447
     5   7 N        2.816    -0.074    22.673     7.072
     6   6 C        3.155     0.131    24.874     8.156
     7   6 C        2.970    -0.013    28.338     8.732
     8   6 C        2.919    -0.042    29.038     8.837
     9   6 C        2.915    -0.041    29.009     8.832
    10   6 C        2.927     0.031    27.315     8.571
    11   7 N        2.752     0.005    21.175     6.834
    12   6 C        2.931     0.049    26.891     8.504
    13   6 C        2.918    -0.046    29.133     8.851
    14   6 C        2.916    -0.026    28.657     8.778
    15   6 C        2.916    -0.026    28.659     8.779
    16   6 C        2.918    -0.046    29.133     8.851
    17   6 C        2.931     0.049    26.893     8.505
    18   7 N        2.752     0.005    21.170     6.834
    19   6 C        2.927     0.031    27.320     8.572
    20   6 C        2.914    -0.040    29.003     8.831
    21   6 C        2.925    -0.035    28.872     8.812
    22   6 C        2.970    -0.013    28.341     8.732
    23   6 C        3.154     0.130    24.880     8.157
    24   7 N        1.881    -0.341    29.715     8.081
    25   6 C        3.171     0.072    26.036     8.336
    26   6 C        2.910    -0.058    29.438     8.897
    27   6 C        2.920    -0.045    29.124     8.850
    28   6 C        2.925    -0.047    29.160     8.856
    29   6 C        2.907    -0.062    29.537     8.912
    30   6 C        3.073     0.038    27.073     8.531
    31   7 N        2.816    -0.074    22.675     7.072
    32   6 C        2.912     0.065    26.539     8.447
    33   6 C        2.921    -0.044    29.084     8.844
    34   6 C        2.919    -0.029    28.728     8.789
    35   6 C        2.919    -0.035    28.868     8.811
    36   6 C        2.919    -0.028    28.710     8.787
    37   6 C        2.921    -0.042    29.053     8.839
    38   6 C        2.918    -0.042    29.043     8.837
    39   6 C        2.915    -0.041    29.011     8.832
    40   6 C        2.931     0.050    26.887     8.504
    41   6 C        2.918    -0.045    29.123     8.850
    42   6 C        2.916    -0.025    28.640     8.776
    43   6 C        2.916    -0.025    28.640     8.776
    44   6 C        2.918    -0.045    29.124     8.850
    45   6 C        2.931     0.050    26.884     8.503
    46   6 C        2.914    -0.040    29.001     8.831
    47   6 C        2.925    -0.035    28.869     8.811
    48   7 N        1.881    -0.341    29.711     8.080
    49   6 C        3.171     0.072    26.035     8.335
    50   6 C        2.910    -0.058    29.436     8.896
    51   6 C        2.921    -0.045    29.124     8.850
    52   6 C        2.925    -0.047    29.159     8.855
    53   6 C        2.907    -0.062    29.535     8.911
    54   6 C        3.073     0.038    27.075     8.532
    55   6 C        2.921    -0.044    29.084     8.844
    56   6 C        2.919    -0.029    28.727     8.789
    57   1 H        0.926     0.040     2.443     2.444
    58   1 H        0.926     0.042     2.423     2.434
    59   1 H        0.926     0.033     2.547     2.495
    60   1 H        0.926     0.031     2.577     2.510
    61   1 H        0.926     0.041     2.436     2.440
    62   1 H        0.926     0.058     2.227     2.334
    63   1 H        0.926     0.056     2.243     2.342
    64   1 H        0.926     0.056     2.243     2.342
    65   1 H        0.926     0.058     2.225     2.333
    66   1 H        0.926     0.043     2.409     2.427
    67   1 H        0.926     0.050     2.316     2.380
    68   1 H        0.926     0.027     2.633     2.537
    69   1 H        0.926     0.023     2.690     2.565
    70   1 H        0.926     0.023     2.686     2.563
    71   1 H        0.926     0.020     2.727     2.583
    72   1 H        0.926     0.036     2.500     2.473
    73   1 H        0.926     0.039     2.458     2.452
    74   1 H        0.926     0.040     2.443     2.444
    75   1 H        0.926     0.042     2.423     2.434
    76   1 H        0.926     0.033     2.546     2.495
    77   1 H        0.926     0.031     2.578     2.511
    78   1 H        0.926     0.041     2.436     2.441
    79   1 H        0.926     0.059     2.213     2.326
    80   1 H        0.926     0.057     2.237     2.339
    81   1 H        0.926     0.057     2.237     2.339
    82   1 H        0.926     0.059     2.214     2.327
    83   1 H        0.926     0.043     2.407     2.426
    84   1 H        0.926     0.050     2.316     2.380
    85   1 H        0.926     0.027     2.632     2.537
    86   1 H        0.926     0.023     2.689     2.564
    87   1 H        0.926     0.023     2.685     2.562
    88   1 H        0.926     0.020     2.726     2.582
    89   1 H        0.926     0.036     2.499     2.472
    90   1 H        0.926     0.039     2.458     2.452

molecular dipole:
                 x           y           z       tot (Debye)
 q only:        0.014      -1.457       0.004
   full:        0.012      -1.937      -0.006       4.924

 projected vibrational frequencies (cm⁻¹)
eigval :       -0.00     0.00     0.00     0.00     0.00     0.00
eigval :        6.05     8.22     9.57    17.93    19.80    27.26
eigval :       38.89    40.53    54.09    57.43    58.41    62.31
eigval :       66.52    68.76    73.28    80.22    80.90    90.75
eigval :      101.91   103.86   121.02   153.43   154.39   166.00
eigval :      186.07   207.64   208.88   215.35   231.64   240.14
eigval :      240.86   242.16   256.67   282.81   286.10   289.51
eigval :      331.74   336.68   351.70   364.04   365.72   373.80
eigval :      379.02   380.88   384.62   385.68   387.92   391.28
eigval :      409.97   413.60   415.19   426.60   430.13   433.39
eigval :      451.92   465.61   474.62   478.16   480.49   490.59
eigval :      511.16   534.07   538.71   538.75   540.86   550.06
eigval :      574.00   575.13   583.06   587.14   590.41   590.75
eigval :      596.09   598.52   608.56   614.73   624.47   626.76
eigval :      632.11   651.30   661.35   665.89   667.19   668.11
eigval :      674.17   676.66   683.62   700.98   701.78   708.58
eigval :      715.00   735.27   761.16   761.30   763.58   764.92
eigval :      766.15   770.13   799.78   803.27   841.39   844.26
eigval :      854.13   856.52   858.29   861.33   863.75   864.84
eigval :      875.27   875.49   878.65   879.91   883.80   885.60
eigval :      886.95   893.79   898.46   899.47   900.53   902.80
eigval :      903.68   907.95   909.85   911.95   912.60   913.27
eigval :      914.12   914.86   916.63   927.03   928.42   929.99
eigval :      930.38   931.67   945.89   946.29   992.14   992.98
eigval :     1008.28  1012.14  1061.46  1061.56  1077.29  1077.97
eigval :     1087.31  1091.34  1107.12  1108.04  1117.55  1119.42
eigval :     1124.73  1129.71  1130.49  1131.37  1132.13  1133.31
eigval :     1159.27  1166.90  1172.20  1172.64  1173.89  1177.80
eigval :     1179.43  1182.03  1185.31  1188.68  1199.62  1203.31
eigval :     1205.86  1209.69  1224.25  1246.70  1251.11  1254.85
eigval :     1255.16  1256.94  1272.65  1275.51  1277.89  1279.02
eigval :     1296.18  1299.16  1300.17  1303.06  1305.03  1315.90
eigval :     1316.30  1316.85  1324.50  1328.19  1344.01  1345.79
eigval :     1350.25  1359.08  1367.57  1367.85  1378.61  1379.67
eigval :     1389.12  1408.13  1419.63  1420.03  1422.60  1423.97
eigval :     1429.17  1431.91  1433.31  1434.82  1443.91  1450.49
eigval :     1455.00  1472.76  1472.92  1475.04  1481.75  1482.12
eigval :     1503.88  1507.77  1511.87  1529.69  1543.58  1568.08
eigval :     1568.32  1577.02  1577.68  1578.49  1582.32  1588.89
eigval :     1593.03  1593.42  3064.08  3064.39  3068.66  3069.01
eigval :     3075.52  3076.06  3076.65  3077.03  3080.31  3080.43
eigval :     3081.83  3082.19  3083.36  3084.27  3084.37  3084.73
eigval :     3087.47  3088.32  3092.49  3092.82  3096.90  3097.19
eigval :     3099.51  3100.74  3104.14  3104.69  3107.55  3108.17
eigval :     3110.42  3110.58  3117.72  3119.62  3120.12  3121.59

   temp. (K)  partition function   enthalpy   heat capacity  entropy
                                   cal/mol     cal/K/mol   cal/K/mol   J/K/mol
 298.15  VIB  0.126E+22            25886.881    164.363    163.212
         ROT  0.157E+09              888.752      2.981     40.481
         INT  0.198E+30            26775.633    167.344    203.693
         TR   0.186E+29             1481.254      4.968     45.577
         TOT                       28256.8874   172.3123   249.2703  1042.9471

       T/K    H(0)-H(T)+PV         H(T)/Eh          T*S/Eh         G(T)/Eh
   ------------------------------------------------------------------------
    298.15    0.450302E-01    0.729544E+00    0.118436E+00    0.611108E+00
   ------------------------------------------------------------------------

         :::::::::::::::::::::::::::::::::::::::::::::::::::::
         ::                  THERMODYNAMIC                  ::
         :::::::::::::::::::::::::::::::::::::::::::::::::::::
         :: total free energy        -141.415585353818 Eh   ::
         ::.................................................::
         :: total energy             -142.026693134014 Eh   ::
         :: zero point energy           0.684513943012 Eh   ::
         :: G(RRHO) w/o ZPVE           -0.073406162816 Eh   ::
         :: G(RRHO) contrib.            0.611107780196 Eh   ::
         :::::::::::::::::::::::::::::::::::::::::::::::::::::

           -------------------------------------------------
          | TOTAL ENERGY             -142.026693134014 Eh   |
          | TOTAL ENTHALPY           -141.297148974642 Eh   |
          | TOTAL FREE ENERGY        -141.415585353818 Eh   |
          | GRADIENT NORM               0.000023863035 Eh/α |
          | HOMO-LUMO GAP               0.011145083235 eV   |
           -------------------------------------------------

 * finished run on 2025/09/04 at 23:55:27.902
