   * xtb version 6.7.1 (edcfbbe) compiled by 'albert@albert-system' on 2024-07-22

   ID    Z sym.   atoms
    1    6 C      1-4, 6-43
    2    7 N      5
    3    1 H      44-70

          program call               : xtb data2507/toluene/3CzAnN/3CzAnN_toluene_S0_crest.xyz --gfn 2 --gbsa toluene --ohess vtight --parallel 40 --molden --ceasefiles --namespace data2507/toluene/3CzAnN/3CzAnN_toluene_S0_finalOpt
      * Solvation model:               GBSA
        Solvent                        toluene
        Solvent mass                       9.2140E+01 g/mol
          :  Hamiltonian                  GFN2-xTB          :
 * total energy  :  -106.7103737 Eh     change       -0.6987904E-09 Eh
 * total energy  :  -106.7103954 Eh     change       -0.2172563E-04 Eh
 * total energy  :  -106.7104065 Eh     change       -0.1114898E-04 Eh
 * total energy  :  -106.7104125 Eh     change       -0.5957907E-05 Eh
 * total energy  :  -106.7104220 Eh     change       -0.9504862E-05 Eh
 * total energy  :  -106.7104284 Eh     change       -0.6395186E-05 Eh
 * total energy  :  -106.7104367 Eh     change       -0.8270828E-05 Eh
 * total energy  :  -106.7104441 Eh     change       -0.7417903E-05 Eh
 * total energy  :  -106.7104474 Eh     change       -0.3283852E-05 Eh
 * total energy  :  -106.7104497 Eh     change       -0.2373523E-05 Eh
 * total energy  :  -106.7104547 Eh     change       -0.1038705E-05 Eh
 * total energy  :  -106.7104556 Eh     change       -0.8711041E-06 Eh
 * total energy  :  -106.7104564 Eh     change       -0.8859837E-06 Eh
 * total energy  :  -106.7104572 Eh     change       -0.7816042E-06 Eh
 * total energy  :  -106.7104579 Eh     change       -0.7019933E-06 Eh
 * total energy  :  -106.7104585 Eh     change       -0.6016872E-06 Eh
 * total energy  :  -106.7104590 Eh     change       -0.4171726E-06 Eh
 * total energy  :  -106.7104592 Eh     change       -0.2579340E-06 Eh
 * total energy  :  -106.7104592 Eh     change       -0.2888711E-07 Eh
   *** GEOMETRY OPTIMIZATION CONVERGED AFTER 21 ITERATIONS ***

 final structure:
================
70
 xtb: 6.7.1 (edcfbbe)
C           -8.26414278286491       -2.50156960426466       -1.39852855960636
C           -8.30268756065655       -1.13905869722649       -1.64619652743785
C           -7.29935484122199       -0.31450899540899       -1.17029339002309
C           -6.25157930324541       -0.85252148344619       -0.42880670381493
N           -5.23467094286701       -0.01884600948507        0.06482597004328
C           -5.41989144535067        1.13200197834226        0.80482511393249
C           -6.59636815502197        1.71345057053471        1.25720646187801
C           -6.49806037470823        2.86637103499504        2.01261430765411
C           -5.26201524342499        3.43109548145761        2.32241892294244
C           -4.08714734903766        2.84576984773285        1.89412685409432
C           -4.16039275223822        1.68591934759466        1.13319054762801
C           -3.17147510177844        0.82146229328981        0.55216527214856
C           -1.78449722987789        0.84979084293271        0.51659265349627
C           -1.10681149739735       -0.15061590718072       -0.16492264354271
C            0.37155806420520       -0.15067880206140       -0.21713634416799
C            1.09344777396314       -1.15357639183088        0.44722773816988
C            0.44428785049546       -2.16006728053372        1.21059398811484
C            1.15043383814196       -3.14449819006040        1.83061022146861
C            2.55537796759905       -3.18586713560477        1.72439059237109
C            3.21862223116644       -2.22516904588846        1.02490071668712
C            2.52202232948587       -1.16845574552182        0.38025712712004
C            3.19698197087017       -0.15968870444433       -0.32135304761289
C            4.67554216108419       -0.16543547324097       -0.38415405529837
C            5.32065305542518       -0.50813491441608       -1.59220029668780
C            6.68331063859995       -0.52496960380997       -1.67499862977272
C            7.48160609576311       -0.19601831948182       -0.55836015705242
C            8.89112594844327       -0.20153261070757       -0.61139572207263
C            9.63270209285764        0.12307634859494        0.49031771055407
C            8.99889506204253        0.46713234112375        1.69543330812174
C            7.63472105243046        0.48116124870166        1.77913420597874
C            6.84043378199549        0.15195281015408        0.65990452788700
C            5.43196218219795        0.15590865050325        0.71536726847638
C            2.47749721119560        0.85358650753430       -0.97016843323460
C            3.13353947713727        1.90570237537755       -1.66304832577708
C            2.42854401327377        2.87293366945627       -2.31068435260945
C            1.01932085099094        2.84320098352646       -2.31193713290227
C            0.35246022623292        1.86301951713881       -1.64331743582668
C            1.04787595448305        0.84946570744538       -0.93178198023195
C           -1.82418605276000       -1.16164168430711       -0.81742094645707
C           -3.20362169770940       -1.20791467940322       -0.79697404308547
C           -3.87855429060195       -0.21908441461739       -0.09417041431272
C           -6.21625681611805       -2.22104552408824       -0.17701544980739
C           -7.21756268080717       -3.03940663453353       -0.66737274765584
H           -9.04731505034830       -3.14252844025605       -1.77483098079241
H           -9.11421206633690       -0.71588931299366       -2.21981734594472
H           -7.31497919598408        0.74500710517497       -1.37906123506503
H           -7.55828470918336        1.27553951853494        1.03693149270972
H           -7.39989880478152        3.33916776264411        2.37384759497116
H           -5.22760782676748        4.33471790013337        2.91347250499786
H           -3.12856386020759        3.27452451177514        2.14632941000477
H           -1.23671695636760        1.63652608335557        1.01438476442553
H           -0.63195358733560       -2.12794384925872        1.29330333625533
H            0.64033756603464       -3.90234676186832        2.40777008159664
H            3.10040226558475       -3.98362516966153        2.20829918440359
H            4.29568821044540       -2.25385542278897        0.94840296588189
H            4.71359786888937       -0.76260336678642       -2.44963044318361
H            7.17145467259145       -0.79165037205593       -2.60213428624358
H            9.37435987126834       -0.46776504918047       -1.54125159273029
H           10.71223656599807        0.11723968571575        0.44291042389960
H            9.60075390189846        0.72077545017809        2.55635966015406
H            7.14196282142793        0.74468594224391        2.70467873592600
H            4.94603718029017        0.42315579803527        1.64396471554081
H            4.21356453314118        1.92554980936926       -1.66540351742737
H            2.94263719782330        3.66723390134879       -2.83262569615412
H            0.47376039400113        3.60677976082380       -2.84761980467208
H           -0.72727535952266        1.84174470359099       -1.64645111435292
H           -1.27447927263848       -1.91803930640324       -1.35926705285229
H           -3.73674654919072       -1.98589247721045       -1.32232486730096
H           -5.41037840082718       -2.63353606668467        0.41188737205105
H           -7.18448003539605       -4.10069730544721       -0.46904711557541

          :  Hamiltonian                  GFN2-xTB          :
         :: gradient norm              0.000137818099 Eh/a0 ::
         :: HOMO-LUMO gap              2.084708101803 eV    ::
         :: SCC energy              -108.786502620129 Eh    ::
         :: -> dispersion             -0.099289428391 Eh    ::
         :: -> Gsolv                  -0.043057214207 Eh    ::
         :: repulsion energy           2.076043381743 Eh    ::

    * Orbital Energies and Occupations

         #    Occupation            Energy/Eh            Energy/eV
      -------------------------------------------------------------
         1        2.0000           -0.6761805             -18.3998
       ...           ...                  ...                  ...
        88        2.0000           -0.4144102             -11.2767
        89        2.0000           -0.4136647             -11.2564
        90        2.0000           -0.4118049             -11.2058
        91        2.0000           -0.4096422             -11.1469
        92        2.0000           -0.4040211             -10.9940
        93        2.0000           -0.4022707             -10.9463
        94        2.0000           -0.3989949             -10.8572
        95        2.0000           -0.3966650             -10.7938
        96        2.0000           -0.3956508             -10.7662
        97        2.0000           -0.3784870             -10.2992
        98        2.0000           -0.3773472             -10.2681
        99        2.0000           -0.3630623              -9.8794
       100        2.0000           -0.3539608              -9.6318 (HOMO)
       101                         -0.2773492              -7.5471 (LUMO)
       102                         -0.2583969              -7.0313
       103                         -0.2461769              -6.6988
       104                         -0.2331613              -6.3446
       105                         -0.2308516              -6.2818
       106                         -0.2287651              -6.2250
       107                         -0.2276777              -6.1954
       108                         -0.2223866              -6.0514
       109                         -0.2180143              -5.9325
       110                         -0.1928936              -5.2489
       111                         -0.1886071              -5.1323
       ...                                ...                  ...
       199                          0.7450142              20.2729
      -------------------------------------------------------------
                  HL-Gap            0.0766116 Eh            2.0847 eV

     #   Z          covCN         q      C6AA      α(0)
     1   6 C        2.919    -0.033    28.820     8.803
     2   6 C        2.920    -0.028    28.701     8.785
     3   6 C        2.922    -0.042    29.048     8.838
     4   6 C        2.913     0.064    26.563     8.451
     5   7 N        2.802    -0.047    22.139     6.988
     6   6 C        3.076     0.048    26.852     8.496
     7   6 C        2.909    -0.052    29.290     8.874
     8   6 C        2.924    -0.035    28.871     8.812
     9   6 C        2.920    -0.043    29.061     8.840
    10   6 C        2.912    -0.035    28.863     8.810
    11   6 C        3.068    -0.019    28.405     8.739
    12   6 C        3.065    -0.019    28.421     8.742
    13   6 C        2.917    -0.037    28.929     8.820
    14   6 C        2.976     0.003    27.957     8.673
    15   6 C        2.977    -0.006    28.155     8.704
    16   6 C        2.983     0.004    27.918     8.667
    17   6 C        2.917    -0.035    28.874     8.812
    18   6 C        2.914    -0.032    28.797     8.800
    19   6 C        2.914    -0.032    28.788     8.798
    20   6 C        2.917    -0.035    28.882     8.813
    21   6 C        2.983     0.005    27.909     8.666
    22   6 C        2.977    -0.008    28.207     8.712
    23   6 C        2.973     0.014    27.687     8.631
    24   6 C        2.919    -0.033    28.819     8.803
    25   6 C        2.916    -0.037    28.921     8.819
    26   6 C        2.987     0.009    27.800     8.649
    27   6 C        2.918    -0.036    28.899     8.815
    28   6 C        2.916    -0.032    28.793     8.799
    29   6 C        2.916    -0.031    28.778     8.797
    30   6 C        2.918    -0.036    28.905     8.816
    31   6 C        2.985     0.011    27.769     8.644
    32   6 C        2.923    -0.040    29.001     8.831
    33   6 C        2.984     0.005    27.906     8.665
    34   6 C        2.917    -0.035    28.876     8.812
    35   6 C        2.914    -0.032    28.787     8.798
    36   6 C        2.914    -0.032    28.794     8.799
    37   6 C        2.917    -0.035    28.872     8.811
    38   6 C        2.983     0.004    27.918     8.667
    39   6 C        2.928    -0.037    28.919     8.819
    40   6 C        2.908    -0.052    29.301     8.876
    41   6 C        3.076     0.046    26.889     8.502
    42   6 C        2.922    -0.042    29.047     8.838
    43   6 C        2.920    -0.028    28.701     8.785
    44   1 H        0.926     0.039     2.462     2.454
    45   1 H        0.926     0.040     2.451     2.448
    46   1 H        0.926     0.041     2.434     2.440
    47   1 H        0.926     0.030     2.588     2.516
    48   1 H        0.926     0.030     2.591     2.517
    49   1 H        0.926     0.027     2.625     2.534
    50   1 H        0.926     0.030     2.589     2.516
    51   1 H        0.926     0.030     2.591     2.517
    52   1 H        0.926     0.032     2.564     2.504
    53   1 H        0.926     0.029     2.603     2.523
    54   1 H        0.926     0.029     2.605     2.524
    55   1 H        0.926     0.030     2.589     2.516
    56   1 H        0.926     0.030     2.585     2.514
    57   1 H        0.926     0.033     2.548     2.496
    58   1 H        0.925     0.032     2.564     2.504
    59   1 H        0.926     0.030     2.581     2.512
    60   1 H        0.926     0.030     2.581     2.512
    61   1 H        0.926     0.031     2.569     2.506
    62   1 H        0.925     0.030     2.588     2.516
    63   1 H        0.926     0.030     2.587     2.515
    64   1 H        0.926     0.029     2.604     2.524
    65   1 H        0.926     0.029     2.605     2.524
    66   1 H        0.926     0.031     2.566     2.505
    67   1 H        0.926     0.030     2.587     2.515
    68   1 H        0.926     0.031     2.570     2.507
    69   1 H        0.926     0.041     2.437     2.441
    70   1 H        0.926     0.040     2.450     2.448

molecular dipole:
                 x           y           z       tot (Debye)
 q only:       -0.662      -0.415      -0.259
   full:       -0.687      -0.434      -0.272       2.178

 projected vibrational frequencies (cm⁻¹)
eigval :        0.00     0.00     0.00     0.00     0.00     0.00
eigval :       11.71    13.01    17.93    25.24    39.25    44.37
eigval :       57.53    62.53    63.81    72.22   101.44   110.27
eigval :      133.10   134.00   134.87   143.62   164.51   173.34
eigval :      187.75   209.71   215.04   231.60   246.36   268.08
eigval :      293.11   315.40   336.43   348.94   357.30   365.51
eigval :      380.61   389.41   390.99   397.74   400.44   413.45
eigval :      429.11   440.89   445.47   448.74   459.45   462.53
eigval :      477.18   487.76   496.16   531.30   534.52   548.47
eigval :      550.31   577.03   580.61   584.88   588.49   595.43
eigval :      609.74   610.46   617.50   634.96   648.52   650.94
eigval :      668.97   684.79   686.74   692.66   707.46   723.37
eigval :      724.35   739.59   753.02   762.23   770.80   773.11
eigval :      775.50   781.36   797.23   819.84   821.92   830.64
eigval :      867.89   869.94   873.03   874.47   879.80   881.82
eigval :      883.71   885.77   889.60   898.03   899.09   904.79
eigval :      910.35   911.60   917.55   918.03   919.51   920.44
eigval :      921.39   925.45   927.54   927.92   931.57   932.16
eigval :      933.52   961.50   993.90   997.34  1029.90  1070.08
eigval :     1077.83  1079.62  1081.44  1082.11  1116.97  1118.24
eigval :     1131.89  1133.96  1141.45  1154.10  1170.73  1175.64
eigval :     1176.97  1180.10  1180.13  1180.66  1183.52  1187.62
eigval :     1196.29  1200.55  1225.91  1228.42  1230.19  1236.58
eigval :     1243.95  1257.61  1258.74  1261.61  1273.89  1279.56
eigval :     1302.00  1315.39  1319.13  1328.29  1341.37  1349.13
eigval :     1349.75  1359.45  1366.06  1380.95  1383.70  1396.26
eigval :     1416.31  1417.22  1424.65  1427.88  1429.95  1434.72
eigval :     1441.00  1456.89  1475.65  1480.23  1482.97  1491.36
eigval :     1499.77  1525.14  1528.36  1541.03  1559.66  1562.98
eigval :     1581.34  1582.66  1593.32  1596.46  1604.99  1607.14
eigval :     1609.36  1612.37  1621.31  3062.02  3062.98  3064.52
eigval :     3066.85  3067.75  3067.94  3071.14  3073.32  3074.23
eigval :     3074.41  3074.95  3076.18  3076.62  3077.64  3077.96
eigval :     3081.65  3084.30  3084.60  3084.87  3085.46  3086.78
eigval :     3088.28  3089.41  3090.15  3091.29  3092.35  3096.86

   temp. (K)  partition function   enthalpy   heat capacity  entropy
                                   cal/mol     cal/K/mol   cal/K/mol   J/K/mol
 298.15  VIB  0.164E+15            18814.384    123.319    115.571
         ROT  0.623E+08              888.752      2.981     38.646
         INT  0.102E+23            19703.137    126.300    154.217
         TR   0.123E+29             1481.254      4.968     44.756
         TOT                       21184.3905   131.2678   198.9725   832.5008

       T/K    H(0)-H(T)+PV         H(T)/Eh          T*S/Eh         G(T)/Eh
   ------------------------------------------------------------------------
    298.15    0.337595E-01    0.574139E+00    0.945382E-01    0.479601E+00
   ------------------------------------------------------------------------

         :::::::::::::::::::::::::::::::::::::::::::::::::::::
         ::                  THERMODYNAMIC                  ::
         :::::::::::::::::::::::::::::::::::::::::::::::::::::
         :: total free energy        -106.230858219646 Eh   ::
         ::.................................................::
         :: total energy             -106.710459235658 Eh   ::
         :: zero point energy           0.540379775156 Eh   ::
         :: G(RRHO) w/o ZPVE           -0.060778759144 Eh   ::
         :: G(RRHO) contrib.            0.479601016012 Eh   ::
         :::::::::::::::::::::::::::::::::::::::::::::::::::::

           -------------------------------------------------
          | TOTAL ENERGY             -106.710459235658 Eh   |
          | TOTAL ENTHALPY           -106.136319985361 Eh   |
          | TOTAL FREE ENERGY        -106.230858219646 Eh   |
          | GRADIENT NORM               0.000137821681 Eh/α |
          | HOMO-LUMO GAP               2.084708055001 eV   |
           -------------------------------------------------

 * finished run on 2025/07/20 at 14:32:28.992
