   * xtb version 6.7.1 (edcfbbe) compiled by 'albert@albert-system' on 2024-07-22

   ID    Z sym.   atoms
    1    6 C      1-4, 6-43
    2    7 N      5
    3    1 H      44-70

          program call               : xtb data2507/toluene/3CzAnN/3CzAnN.xyz --gfn 2 --gbsa toluene --ohess vtight --parallel 40 --molden --ceasefiles --namespace data2507/toluene/3CzAnN/3CzAnN_toluene_S0_preOpt
      * Solvation model:               GBSA
        Solvent                        toluene
        Solvent mass                       9.2140E+01 g/mol
          :  Hamiltonian                  GFN2-xTB          :
 * total energy  :  -106.6897240 Eh     change       -0.4524949E-08 Eh
 * total energy  :  -106.7053414 Eh     change       -0.1561736E-01 Eh
 * total energy  :  -106.7091237 Eh     change       -0.3782301E-02 Eh
 * total energy  :  -106.7095634 Eh     change       -0.4396676E-03 Eh
 * total energy  :  -106.7098206 Eh     change       -0.2572354E-03 Eh
 * total energy  :  -106.7098996 Eh     change       -0.7898861E-04 Eh
 * total energy  :  -106.7099725 Eh     change       -0.7293434E-04 Eh
 * total energy  :  -106.7100267 Eh     change       -0.5414541E-04 Eh
 * total energy  :  -106.7100700 Eh     change       -0.4334506E-04 Eh
 * total energy  :  -106.7101132 Eh     change       -0.4316749E-04 Eh
 * total energy  :  -106.7101651 Eh     change       -0.1780672E-05 Eh
 * total energy  :  -106.7101668 Eh     change       -0.1682136E-05 Eh
 * total energy  :  -106.7101678 Eh     change       -0.9968910E-06 Eh
 * total energy  :  -106.7101685 Eh     change       -0.7461382E-06 Eh
 * total energy  :  -106.7101693 Eh     change       -0.7430262E-06 Eh
 * total energy  :  -106.7101699 Eh     change       -0.6558948E-06 Eh
 * total energy  :  -106.7101704 Eh     change       -0.4749384E-06 Eh
 * total energy  :  -106.7101709 Eh     change       -0.5320902E-06 Eh
 * total energy  :  -106.7101709 Eh     change       -0.7685770E-08 Eh
   *** GEOMETRY OPTIMIZATION CONVERGED AFTER 44 ITERATIONS ***

 final structure:
================
70
 xtb: 6.7.1 (edcfbbe)
C           -8.34278810951538        2.62079833589716        0.58389977466981
C           -8.33455263007676        1.41160672526217        1.25995201392734
C           -7.31030775231218        0.50500160861082        1.05549589714208
C           -6.28845994666097        0.80192518516868        0.15835882766959
N           -5.24820765548639       -0.11743061566116       -0.05548911569501
C           -5.39945035740589       -1.45244145002278       -0.37217937301484
C           -6.55843545564239       -2.18176748331104       -0.60021439172120
C           -6.42661686612617       -3.51696048276280       -0.93067531453876
C           -5.17470735701441       -4.12000502006991       -1.04060817368098
C           -4.01750325805380       -3.39473118340047       -0.83827979611057
C           -4.12422021781710       -2.04977471610219       -0.50725244055931
C           -3.16108507244811       -1.01458119157008       -0.25614632448738
C           -1.77328930370925       -0.98861773488610       -0.23328101133797
C           -1.12899176248322        0.20152583536903        0.06572187126396
C            0.35262071209738        0.26456211651561        0.08372456802735
C            1.04574718812815        0.64768648597986       -1.07174421474979
C            0.36623659307328        0.97533755521299       -2.27488302689427
C            1.04948670197275        1.34339962824141       -3.39277220026536
C            2.45824947763539        1.40698904164342       -3.37761232879804
C            3.14770909609754        1.09966630641677       -2.24523271875718
C            2.47404825192485        0.71202411723473       -1.05657771674831
C            3.17260988606752        0.39002505472193        0.11398300636861
C            4.65295931087648        0.46330304667539        0.13129109244921
C            5.28390197606581        1.69434476587204        0.40961626027920
C            6.64582704762885        1.78918610018744        0.43372216371593
C            7.45524593150693        0.66153570156199        0.17841770151920
C            8.86430452926586        0.72657270561414        0.19401820883189
C            9.61763499064764       -0.38563145179585       -0.05946359129134
C            8.99658043954052       -1.61366217094292       -0.33988063074535
C            7.63331170337455       -1.70948751650486       -0.36159656573254
C            6.82709693336736       -0.58014403352316       -0.10421498585278
C            5.41892821770086       -0.64702427839020       -0.11887978363679
C            2.48032595824549        0.00817377552359        1.27018222069227
C            3.15948140414010       -0.31459427200986        2.47496763552271
C            2.47533618829455       -0.67922889753453        3.59347529861492
C            1.06666988640337       -0.74534678090974        3.57704573502135
C            0.37797951266145       -0.44267331757336        2.44300833348986
C            1.05185976201941       -0.05630247549356        1.25417573728128
C           -1.87309507520792        1.35037988365199        0.35783624632614
C           -3.25380094232927        1.34660454753600        0.34298840746409
C           -3.89806826623627        0.16145854536077        0.01600267999690
C           -6.30096979076376        2.01464395126077       -0.52462047540474
C           -7.32349843965459        2.91971776210271       -0.30537665454840
H           -9.14180924987591        3.32793771131506        0.74911771713084
H           -9.12532594980476        1.17539849249397        1.95680140219721
H           -7.28984197677354       -0.43008769070241        1.59543049067621
H           -7.53232503720607       -1.72080338203670       -0.53171341748421
H           -7.31391452008477       -4.10653514358251       -1.11088891460352
H           -5.11422043535707       -5.16761128729039       -1.29721318414539
H           -3.04693844203198       -3.85760526889345       -0.93871403986468
H           -1.20030561923937       -1.87978501985736       -0.44391671349505
H           -0.71283117326886        0.92351709071007       -2.28381234391083
H            0.51891571253401        1.58906074140865       -4.30151592926030
H            2.98422720566014        1.70011543895740       -4.27482953621440
H            4.22713277964262        1.14519209835158       -2.23229455647033
H            4.66747202034306        2.56047245674383        0.60518380366603
H            7.12447540973634        2.73446773798048        0.64883652281886
H            9.33751783151517        1.67435041364648        0.41029390656970
H           10.69664758066399       -0.32885283242753       -0.04614274099943
H            9.60754844320586       -2.48269118320587       -0.53822221270044
H            7.15056622452414       -2.65271414882602       -0.57640742589473
H            4.94193761534289       -1.59363348223659       -0.33354880772030
H            4.23865752975290       -0.26260725520159        2.48605136918341
H            3.00563973162778       -0.92074047974087        4.50347694659921
H            0.54046882945642       -1.03681413915421        4.47467784846315
H           -0.70122541174220       -0.49048434254463        2.42734380368234
H           -1.34475791822352        2.26040507468035        0.60401601827070
H           -3.81054285147969        2.23873885364227        0.58713066618920
H           -5.51544320618643        2.23590364681677       -1.23193541187534
H           -7.32783156252929        3.85933718979237       -0.83810710650560

          :  Hamiltonian                  GFN2-xTB          :
         :: gradient norm              0.000062339754 Eh/a0 ::
         :: HOMO-LUMO gap              2.184298397885 eV    ::
         :: SCC energy              -108.787385171998 Eh    ::
         :: -> dispersion             -0.099002391323 Eh    ::
         :: -> Gsolv                  -0.043351026790 Eh    ::
         :: repulsion energy           2.077214236500 Eh    ::

    * Orbital Energies and Occupations

         #    Occupation            Energy/Eh            Energy/eV
      -------------------------------------------------------------
         1        2.0000           -0.6759539             -18.3936
       ...           ...                  ...                  ...
        88        2.0000           -0.4149484             -11.2913
        89        2.0000           -0.4138049             -11.2602
        90        2.0000           -0.4118033             -11.2057
        91        2.0000           -0.4095836             -11.1453
        92        2.0000           -0.4041430             -10.9973
        93        2.0000           -0.4017153             -10.9312
        94        2.0000           -0.3999670             -10.8837
        95        2.0000           -0.3970658             -10.8047
        96        2.0000           -0.3957471             -10.7688
        97        2.0000           -0.3783660             -10.2959
        98        2.0000           -0.3772215             -10.2647
        99        2.0000           -0.3609562              -9.8221
       100        2.0000           -0.3569128              -9.7121 (HOMO)
       101                         -0.2766413              -7.5278 (LUMO)
       102                         -0.2588609              -7.0440
       103                         -0.2461454              -6.6980
       104                         -0.2331017              -6.3430
       105                         -0.2307767              -6.2798
       106                         -0.2290610              -6.2331
       107                         -0.2276973              -6.1960
       108                         -0.2219463              -6.0395
       109                         -0.2184563              -5.9445
       110                         -0.1907247              -5.1899
       111                         -0.1884153              -5.1270
       ...                                ...                  ...
       199                          0.7450935              20.2750
      -------------------------------------------------------------
                  HL-Gap            0.0802715 Eh            2.1843 eV

     #   Z          covCN         q      C6AA      α(0)
     1   6 C        2.919    -0.033    28.820     8.804
     2   6 C        2.920    -0.028    28.702     8.785
     3   6 C        2.922    -0.042    29.047     8.838
     4   6 C        2.913     0.064    26.562     8.451
     5   7 N        2.802    -0.047    22.150     6.990
     6   6 C        3.076     0.048    26.850     8.496
     7   6 C        2.909    -0.052    29.291     8.874
     8   6 C        2.924    -0.035    28.872     8.812
     9   6 C        2.920    -0.043    29.064     8.841
    10   6 C        2.912    -0.035    28.863     8.810
    11   6 C        3.068    -0.019    28.408     8.740
    12   6 C        3.066    -0.019    28.415     8.741
    13   6 C        2.917    -0.038    28.939     8.821
    14   6 C        2.977     0.003    27.946     8.671
    15   6 C        2.978    -0.005    28.146     8.702
    16   6 C        2.984     0.005    27.914     8.667
    17   6 C        2.917    -0.034    28.851     8.808
    18   6 C        2.914    -0.031    28.783     8.798
    19   6 C        2.914    -0.031    28.779     8.797
    20   6 C        2.917    -0.035    28.860     8.809
    21   6 C        2.984     0.005    27.906     8.665
    22   6 C        2.978    -0.007    28.194     8.710
    23   6 C        2.973     0.015    27.678     8.630
    24   6 C        2.919    -0.033    28.821     8.804
    25   6 C        2.916    -0.037    28.914     8.818
    26   6 C        2.987     0.009    27.802     8.649
    27   6 C        2.918    -0.036    28.898     8.815
    28   6 C        2.916    -0.032    28.793     8.799
    29   6 C        2.916    -0.031    28.776     8.797
    30   6 C        2.918    -0.036    28.904     8.816
    31   6 C        2.986     0.011    27.764     8.643
    32   6 C        2.923    -0.040    29.005     8.832
    33   6 C        2.984     0.005    27.906     8.665
    34   6 C        2.917    -0.035    28.863     8.810
    35   6 C        2.914    -0.031    28.778     8.797
    36   6 C        2.914    -0.031    28.782     8.797
    37   6 C        2.917    -0.034    28.850     8.808
    38   6 C        2.984     0.005    27.914     8.667
    39   6 C        2.928    -0.037    28.926     8.820
    40   6 C        2.908    -0.052    29.296     8.875
    41   6 C        3.076     0.046    26.896     8.503
    42   6 C        2.922    -0.042    29.047     8.838
    43   6 C        2.920    -0.028    28.702     8.785
    44   1 H        0.926     0.039     2.463     2.454
    45   1 H        0.926     0.040     2.451     2.448
    46   1 H        0.926     0.041     2.437     2.441
    47   1 H        0.926     0.030     2.591     2.517
    48   1 H        0.926     0.030     2.593     2.518
    49   1 H        0.926     0.027     2.627     2.535
    50   1 H        0.926     0.030     2.592     2.518
    51   1 H        0.926     0.028     2.613     2.528
    52   1 H        0.926     0.030     2.584     2.514
    53   1 H        0.926     0.029     2.596     2.520
    54   1 H        0.926     0.029     2.596     2.519
    55   1 H        0.926     0.029     2.597     2.520
    56   1 H        0.926     0.029     2.595     2.519
    57   1 H        0.926     0.033     2.544     2.494
    58   1 H        0.926     0.032     2.563     2.504
    59   1 H        0.926     0.030     2.580     2.512
    60   1 H        0.926     0.030     2.580     2.512
    61   1 H        0.926     0.031     2.568     2.506
    62   1 H        0.925     0.029     2.598     2.520
    63   1 H        0.926     0.029     2.596     2.520
    64   1 H        0.926     0.029     2.596     2.520
    65   1 H        0.926     0.029     2.596     2.520
    66   1 H        0.926     0.030     2.585     2.514
    67   1 H        0.926     0.029     2.607     2.525
    68   1 H        0.926     0.031     2.569     2.507
    69   1 H        0.926     0.041     2.436     2.441
    70   1 H        0.926     0.040     2.450     2.448

molecular dipole:
                 x           y           z       tot (Debye)
 q only:       -0.621       0.477       0.109
   full:       -0.650       0.499       0.115       2.102

 projected vibrational frequencies (cm⁻¹)
eigval :       -0.00    -0.00    -0.00    -0.00     0.00     0.00
eigval :       -4.28    12.88    15.87    18.96    37.89    44.91
eigval :       57.34    61.79    65.32    71.37    99.37   107.86
eigval :      128.52   129.89   134.91   142.66   163.53   172.45
eigval :      186.17   208.05   212.20   227.92   246.34   263.52
eigval :      291.83   316.13   331.67   349.95   359.22   361.85
eigval :      377.53   390.76   391.42   396.51   400.53   413.24
eigval :      428.77   442.17   445.74   448.68   458.33   461.82
eigval :      477.37   488.01   496.11   531.06   534.90   547.71
eigval :      550.19   578.44   580.32   584.65   588.54   595.93
eigval :      610.37   612.38   613.90   636.79   649.13   651.10
eigval :      669.46   684.73   686.61   692.22   707.27   723.39
eigval :      724.67   740.53   756.44   762.23   771.77   771.93
eigval :      777.53   782.56   797.59   819.85   821.31   833.13
eigval :      866.91   873.20   874.62   875.77   877.59   880.22
eigval :      881.62   885.87   889.78   897.77   899.12   903.94
eigval :      912.08   914.56   919.11   919.79   920.29   921.54
eigval :      922.81   929.25   930.23   930.57   930.81   931.52
eigval :      931.92   961.32   993.94   996.96  1030.17  1070.10
eigval :     1076.80  1077.70  1078.31  1079.35  1117.46  1118.37
eigval :     1132.06  1133.47  1142.32  1153.65  1172.54  1176.66
eigval :     1177.03  1177.80  1179.18  1179.54  1182.32  1186.40
eigval :     1194.92  1200.20  1225.25  1226.51  1229.09  1236.16
eigval :     1243.34  1255.38  1257.49  1263.04  1273.46  1278.70
eigval :     1301.75  1315.38  1320.41  1329.22  1340.33  1348.31
eigval :     1349.65  1359.28  1366.24  1381.11  1383.92  1395.97
eigval :     1416.87  1417.69  1424.89  1428.29  1430.11  1434.74
eigval :     1442.57  1458.28  1477.04  1479.97  1483.52  1494.26
eigval :     1500.55  1525.07  1532.32  1543.22  1560.09  1563.81
eigval :     1581.50  1582.74  1593.46  1597.58  1606.85  1607.26
eigval :     1610.09  1613.37  1621.95  3062.42  3063.33  3065.01
eigval :     3067.40  3068.09  3068.10  3070.55  3073.34  3073.49
eigval :     3073.61  3074.36  3075.77  3076.37  3077.76  3077.87
eigval :     3080.78  3081.85  3082.25  3084.00  3085.16  3087.04
eigval :     3087.64  3088.13  3089.63  3090.58  3091.70  3096.77

   temp. (K)  partition function   enthalpy   heat capacity  entropy
                                   cal/mol     cal/K/mol   cal/K/mol   J/K/mol
 298.15  VIB  0.769E+15            18871.905    123.262    117.266
         ROT  0.622E+08              888.752      2.981     38.644
         INT  0.478E+23            19760.658    126.242    155.910
         TR   0.123E+29             1481.254      4.968     44.756
         TOT                       21241.9115   131.2106   200.6658   839.5859

       T/K    H(0)-H(T)+PV         H(T)/Eh          T*S/Eh         G(T)/Eh
   ------------------------------------------------------------------------
    298.15    0.338511E-01    0.574143E+00    0.953428E-01    0.478800E+00
   ------------------------------------------------------------------------

         :::::::::::::::::::::::::::::::::::::::::::::::::::::
         ::                  THERMODYNAMIC                  ::
         :::::::::::::::::::::::::::::::::::::::::::::::::::::
         :: total free energy        -106.231370583086 Eh   ::
         ::.................................................::
         :: total energy             -106.710170930057 Eh   ::
         :: zero point energy           0.540292019928 Eh   ::
         :: G(RRHO) w/o ZPVE           -0.061491672958 Eh   ::
         :: G(RRHO) contrib.            0.478800346971 Eh   ::
         :::::::::::::::::::::::::::::::::::::::::::::::::::::

           -------------------------------------------------
          | TOTAL ENERGY             -106.710170930057 Eh   |
          | TOTAL ENTHALPY           -106.136027769462 Eh   |
          | TOTAL FREE ENERGY        -106.231370583086 Eh   |
          | GRADIENT NORM               0.000062339290 Eh/α |
          | HOMO-LUMO GAP               2.184298391739 eV   |
           -------------------------------------------------

 * finished run on 2025/07/20 at 14:29:35.688
