   * xtb version 6.7.1 (edcfbbe) compiled by 'albert@albert-system' on 2024-07-22

   ID    Z sym.   atoms
    1    6 C      1-4, 6-43
    2    7 N      5
    3    1 H      44-70

          program call               : xtb data2507/toluene/3CzAnN/3CzAnN_toluene_T1_crest.xyz --gfn 2 --uhf 2 --gbsa toluene --ohess vtight --parallel 40 --molden --ceasefiles --namespace data2507/toluene/3CzAnN/3CzAnN_toluene_T1_finalOpt
      * Solvation model:               GBSA
        Solvent                        toluene
        Solvent mass                       9.2140E+01 g/mol
          :  Hamiltonian                  GFN2-xTB          :
 * total energy  :  -106.6424654 Eh     change       -0.1269228E-08 Eh
 * total energy  :  -106.6424933 Eh     change       -0.2785925E-04 Eh
 * total energy  :  -106.6425059 Eh     change       -0.1260063E-04 Eh
 * total energy  :  -106.6425115 Eh     change       -0.5613465E-05 Eh
 * total energy  :  -106.6425186 Eh     change       -0.7120728E-05 Eh
 * total energy  :  -106.6425242 Eh     change       -0.5620320E-05 Eh
 * total energy  :  -106.6425311 Eh     change       -0.6871331E-05 Eh
 * total energy  :  -106.6425355 Eh     change       -0.4371759E-05 Eh
 * total energy  :  -106.6425369 Eh     change       -0.1436088E-05 Eh
 * total energy  :  -106.6425381 Eh     change       -0.1174981E-05 Eh
 * total energy  :  -106.6425428 Eh     change       -0.7905998E-06 Eh
 * total energy  :  -106.6425434 Eh     change       -0.6283676E-06 Eh
 * total energy  :  -106.6425440 Eh     change       -0.5559288E-06 Eh
 * total energy  :  -106.6425444 Eh     change       -0.4670719E-06 Eh
 * total energy  :  -106.6425448 Eh     change       -0.3307777E-06 Eh
 * total energy  :  -106.6425450 Eh     change       -0.2683112E-06 Eh
 * total energy  :  -106.6425453 Eh     change       -0.2840532E-06 Eh
 * total energy  :  -106.6425456 Eh     change       -0.3100977E-06 Eh
 * total energy  :  -106.6425456 Eh     change       -0.5317077E-08 Eh
   *** GEOMETRY OPTIMIZATION CONVERGED AFTER 22 ITERATIONS ***

 final structure:
================
70
 xtb: 6.7.1 (edcfbbe)
C           -8.18839472219888       -2.71358950008052       -1.29844888765903
C           -8.25540381732494       -1.36721347687663       -1.61830291971172
C           -7.27861629667615       -0.49491834691655       -1.17360142618021
C           -6.22861418742802       -0.96918138330312       -0.39274245610955
N           -5.23588808343243       -0.08683675230438        0.06488367155041
C           -5.45614933614951        1.09819204936185        0.74158211244211
C           -6.65005382608128        1.67243515648365        1.15420676826114
C           -6.58594179683421        2.87114300105587        1.84035172930960
C           -5.36730804754818        3.48555252747600        2.12020966658789
C           -4.17401893691974        2.90651361026166        1.73257569327967
C           -4.21344639670528        1.70202430222196        1.04373415335793
C           -3.19825383079874        0.83313938781572        0.51170167460771
C           -1.81691990778007        0.89960542746094        0.47731204419444
C           -1.09504700899547       -0.12344242188822       -0.14292621331262
C            0.36094768750498       -0.08330375952667       -0.19009727386926
C            1.12114521472036       -1.20133788800956        0.27473861537582
C            0.51149700299282       -2.30739891699205        0.87565619052900
C            1.24267215259753       -3.43412358444129        1.24279228344512
C            2.60211713212943       -3.47300740498376        1.01478839276154
C            3.24562101232707       -2.35823205711519        0.48401572439128
C            2.54452803946578       -1.19146131174421        0.16234479957994
C            3.21045984173786       -0.01264985927262       -0.29521839606764
C            4.66538709309805        0.02396557565843       -0.37330947153154
C            5.30320958427347        0.35965049482168       -1.59467706172787
C            6.66160111611523        0.38248432066336       -1.69810994303059
C            7.48438732195085        0.09561273559146       -0.58424721474438
C            8.88928493518818        0.12322633803156       -0.65576978205100
C            9.65191997309217       -0.15736200262570        0.44716651739939
C            9.03876200539261       -0.47821709128678        1.66784705675997
C            7.67559496785032       -0.51677168041157        1.76862021772783
C            6.86076631041134       -0.23333242976353        0.64968651595328
C            5.45764714468715       -0.26860683707206        0.72246488180551
C            2.45307540529501        1.13429653669701       -0.68670417445703
C            3.07311079992072        2.33726649725955       -1.03992739220346
C            2.34090960959337        3.42209216710996       -1.51583528812162
C            0.97314286129812        3.31502785372060       -1.65486423404619
C            0.32417471490920        2.15184419182305       -1.24877249403195
C            1.02682563652414        1.07432326079400       -0.69917029490305
C           -1.79620202761226       -1.19109000579828       -0.73859019659346
C           -3.17084636227525       -1.26716880775814       -0.72679737338103
C           -3.87815150336467       -0.25934581044235       -0.07966021555386
C           -6.16395526872302       -2.32124470417507       -0.06869593478588
C           -7.14028933200075       -3.18738568753575       -0.52624195421164
H           -8.95125698092544       -3.39180291811521       -1.65014756441300
H           -9.06810470655591       -0.99452191657847       -2.22417274891879
H           -7.31531688944586        0.55142117546463       -1.43832429128854
H           -7.59894328691548        1.19811909286599        0.95457144412225
H           -7.50181461309511        3.34039541914921        2.16896544574330
H           -5.35919293646170        4.42336672323924        2.65605735941046
H           -3.22860248731256        3.37490255578343        1.96235869976173
H           -1.29530192016868        1.71481401447346        0.95598593646183
H           -0.55103887370594       -2.28923233688033        1.06386794767469
H            0.73613040936786       -4.27578138464763        1.69234103889197
H            3.17648503567860       -4.35512145287224        1.25753108296122
H            4.31088233835389       -2.40054015305776        0.31547709712640
H            4.68698362847079        0.56029690297948       -2.45973607115766
H            7.13259149078517        0.61672715927606       -2.64293623722079
H            9.35761846854632        0.37212159060735       -1.59809012933792
H           10.73039432742419       -0.13243355177296        0.38516718550372
H            9.65475117396417       -0.69497271310334        2.52905398639563
H            7.19895720074082       -0.76542859859055        2.70669846432937
H            4.99231525720494       -0.49528873424612        1.67193693178673
H            4.14385805013386        2.43153051373441       -0.94169675172055
H            2.85268455027563        4.33396149397653       -1.78692485956416
H            0.39592984402399        4.13192643775106       -2.06300271994666
H           -0.74640422910516        2.08303989742917       -1.36708246777047
H           -1.22920731142710       -1.95101655299866       -1.25632954387541
H           -3.68201306005287       -2.07898963186920       -1.22206873875602
H           -5.35597990656225       -2.68258825973370        0.55009460033566
H           -7.08576560616289       -4.23557018215150       -0.27160392326873

          :  Hamiltonian                  GFN2-xTB          :
         :: gradient norm              0.000056154965 Eh/a0 ::
         :: HOMO-LUMO gap              0.769918221388 eV    ::
         :: SCC energy              -108.700056627206 Eh    ::
         :: -> dispersion             -0.099622452666 Eh    ::
         :: -> Gsolv                  -0.042950192712 Eh    ::
         :: repulsion energy           2.057510984225 Eh    ::

    * Orbital Energies and Occupations

         #    Occupation            Energy/Eh            Energy/eV
      -------------------------------------------------------------
         1        2.0000           -0.6801313             -18.5073
       ...           ...                  ...                  ...
        89        2.0000           -0.4130549             -11.2398
        90        2.0000           -0.4120858             -11.2134
        91        2.0000           -0.4107809             -11.1779
        92        2.0000           -0.4040581             -10.9950
        93        2.0000           -0.4028280             -10.9615
        94        2.0000           -0.3968474             -10.7988
        95        2.0000           -0.3955683             -10.7640
        96        2.0000           -0.3933209             -10.7028
        97        2.0000           -0.3811556             -10.3718
        98        2.0000           -0.3755573             -10.2194
        99        2.0000           -0.3661488              -9.9634
       100        1.0000           -0.3440011              -9.3607
       101        1.0000           -0.2842472              -7.7348 (HOMO)
       102        0.0000           -0.2559532              -6.9648 (LUMO)
       103                         -0.2483102              -6.7569
       104                         -0.2354103              -6.4058
       105                         -0.2327157              -6.3325
       106                         -0.2267048              -6.1690
       107                         -0.2261820              -6.1547
       108                         -0.2234893              -6.0815
       109                         -0.2186411              -5.9495
       110                         -0.1985025              -5.4015
       111                         -0.1897851              -5.1643
       112                         -0.1876020              -5.1049
       ...                                ...                  ...
       199                          0.7430463              20.2193
      -------------------------------------------------------------
                  HL-Gap            0.0282940 Eh            0.7699 eV

     #   Z          covCN         q      C6AA      α(0)
     1   6 C        2.919    -0.032    28.791     8.799
     2   6 C        2.920    -0.027    28.684     8.783
     3   6 C        2.922    -0.041    29.025     8.835
     4   6 C        2.913     0.063    26.582     8.454
     5   7 N        2.802    -0.038    21.970     6.962
     6   6 C        3.076     0.047    26.865     8.498
     7   6 C        2.909    -0.050    29.240     8.867
     8   6 C        2.924    -0.034    28.844     8.807
     9   6 C        2.920    -0.041    29.012     8.833
    10   6 C        2.912    -0.033    28.828     8.804
    11   6 C        3.067    -0.017    28.365     8.733
    12   6 C        3.062    -0.017    28.371     8.734
    13   6 C        2.916    -0.036    28.894     8.815
    14   6 C        2.973     0.007    27.855     8.657
    15   6 C        2.972    -0.015    28.374     8.738
    16   6 C        2.977     0.007    27.861     8.658
    17   6 C        2.921    -0.041    29.029     8.836
    18   6 C        2.914    -0.034    28.836     8.806
    19   6 C        2.914    -0.034    28.856     8.809
    20   6 C        2.921    -0.040    29.005     8.832
    21   6 C        2.976     0.006    27.875     8.660
    22   6 C        2.973    -0.012    28.317     8.729
    23   6 C        2.970     0.013    27.731     8.638
    24   6 C        2.919    -0.033    28.815     8.803
    25   6 C        2.914    -0.039    28.966     8.826
    26   6 C        2.986     0.009    27.813     8.651
    27   6 C        2.917    -0.037    28.926     8.820
    28   6 C        2.916    -0.033    28.831     8.805
    29   6 C        2.915    -0.032    28.793     8.799
    30   6 C        2.918    -0.038    28.946     8.823
    31   6 C        2.983     0.010    27.784     8.646
    32   6 C        2.923    -0.042    29.052     8.839
    33   6 C        2.977     0.007    27.870     8.660
    34   6 C        2.921    -0.040    28.993     8.830
    35   6 C        2.913    -0.035    28.866     8.810
    36   6 C        2.914    -0.033    28.829     8.804
    37   6 C        2.921    -0.042    29.036     8.836
    38   6 C        2.976     0.007    27.861     8.658
    39   6 C        2.927    -0.036    28.890     8.815
    40   6 C        2.907    -0.051    29.255     8.869
    41   6 C        3.076     0.047    26.875     8.500
    42   6 C        2.922    -0.041    29.023     8.835
    43   6 C        2.920    -0.027    28.684     8.783
    44   1 H        0.926     0.040     2.442     2.444
    45   1 H        0.926     0.042     2.429     2.437
    46   1 H        0.926     0.043     2.412     2.429
    47   1 H        0.926     0.033     2.544     2.494
    48   1 H        0.926     0.032     2.551     2.498
    49   1 H        0.926     0.030     2.584     2.514
    50   1 H        0.926     0.033     2.550     2.497
    51   1 H        0.926     0.035     2.510     2.478
    52   1 H        0.926     0.031     2.568     2.506
    53   1 H        0.926     0.027     2.629     2.536
    54   1 H        0.926     0.026     2.640     2.541
    55   1 H        0.926     0.030     2.583     2.513
    56   1 H        0.926     0.031     2.571     2.507
    57   1 H        0.925     0.031     2.574     2.509
    58   1 H        0.925     0.030     2.592     2.518
    59   1 H        0.926     0.029     2.607     2.525
    60   1 H        0.926     0.029     2.604     2.523
    61   1 H        0.926     0.029     2.595     2.519
    62   1 H        0.925     0.030     2.580     2.512
    63   1 H        0.926     0.030     2.588     2.516
    64   1 H        0.926     0.026     2.643     2.542
    65   1 H        0.926     0.027     2.633     2.538
    66   1 H        0.926     0.031     2.572     2.508
    67   1 H        0.926     0.035     2.513     2.479
    68   1 H        0.926     0.034     2.525     2.485
    69   1 H        0.926     0.042     2.416     2.431
    70   1 H        0.926     0.041     2.429     2.437

molecular dipole:
                 x           y           z       tot (Debye)
 q only:       -1.645      -0.393      -0.198
   full:       -1.648      -0.416      -0.217       4.354

 projected vibrational frequencies (cm⁻¹)
eigval :       -0.00    -0.00    -0.00    -0.00     0.00     0.00
eigval :       10.22    17.38    21.48    36.70    40.60    51.83
eigval :       57.02    59.48    67.63    77.13   102.28   118.30
eigval :      132.50   135.72   141.96   153.17   172.72   179.40
eigval :      191.40   212.03   230.54   233.71   247.02   274.71
eigval :      294.78   313.16   330.92   345.16   356.58   364.98
eigval :      376.76   380.25   389.20   395.70   400.60   410.49
eigval :      419.23   423.19   433.88   450.21   459.52   470.69
eigval :      476.25   487.11   495.07   527.63   537.67   545.74
eigval :      550.78   565.13   576.29   581.37   584.31   591.20
eigval :      600.79   608.08   616.25   620.85   643.68   645.67
eigval :      668.28   673.96   682.92   689.05   707.01   716.47
eigval :      720.43   723.24   747.89   755.46   760.18   761.29
eigval :      773.90   775.09   794.55   815.97   825.97   835.72
eigval :      844.52   849.14   869.14   871.28   879.21   880.61
eigval :      883.49   883.94   887.54   893.22   895.71   899.13
eigval :      901.59   905.71   905.96   908.05   912.66   920.52
eigval :      921.17   922.19   925.12   930.88   933.72   933.97
eigval :      944.57   960.17   992.10   996.59  1027.06  1069.77
eigval :     1078.32  1078.77  1102.14  1105.30  1113.63  1114.96
eigval :     1116.73  1124.61  1140.16  1152.01  1172.04  1175.71
eigval :     1176.08  1177.23  1177.87  1180.60  1181.06  1183.82
eigval :     1185.32  1199.22  1220.87  1227.75  1228.33  1234.47
eigval :     1242.89  1253.78  1259.66  1267.85  1273.00  1281.34
eigval :     1289.06  1300.44  1303.52  1315.20  1324.63  1330.93
eigval :     1338.05  1354.38  1360.69  1362.23  1369.43  1371.05
eigval :     1375.91  1390.14  1409.03  1419.50  1419.91  1422.83
eigval :     1428.11  1433.71  1441.50  1456.70  1476.81  1477.51
eigval :     1480.33  1487.76  1491.09  1523.26  1527.14  1538.14
eigval :     1544.68  1553.12  1576.39  1579.88  1580.94  1587.35
eigval :     1591.34  1599.25  1604.56  3060.14  3061.70  3063.33
eigval :     3067.55  3069.85  3070.17  3072.09  3073.56  3076.73
eigval :     3077.00  3077.84  3078.82  3079.08  3079.25  3079.33
eigval :     3083.68  3086.45  3087.20  3087.82  3089.98  3090.68
eigval :     3091.00  3091.42  3093.78  3093.98  3095.59  3097.46

   temp. (K)  partition function   enthalpy   heat capacity  entropy
                                   cal/mol     cal/K/mol   cal/K/mol   J/K/mol
 298.15  VIB  0.565E+14            18806.631    124.463    114.803
         ROT  0.626E+08              888.752      2.981     38.655
         INT  0.353E+22            19695.383    127.444    153.458
         TR   0.123E+29             1481.254      4.968     44.756
         TOT                       21176.6370   132.4119   198.2139   829.3268

       T/K    H(0)-H(T)+PV         H(T)/Eh          T*S/Eh         G(T)/Eh
   ------------------------------------------------------------------------
    298.15    0.337471E-01    0.571959E+00    0.941778E-01    0.477781E+00
   ------------------------------------------------------------------------

         :::::::::::::::::::::::::::::::::::::::::::::::::::::
         ::                  THERMODYNAMIC                  ::
         :::::::::::::::::::::::::::::::::::::::::::::::::::::
         :: total free energy        -106.164764327260 Eh   ::
         ::.................................................::
         :: total energy             -106.642545642370 Eh   ::
         :: zero point energy           0.538211996395 Eh   ::
         :: G(RRHO) w/o ZPVE           -0.060430681285 Eh   ::
         :: G(RRHO) contrib.            0.477781315110 Eh   ::
         :::::::::::::::::::::::::::::::::::::::::::::::::::::

           -------------------------------------------------
          | TOTAL ENERGY             -106.642545642370 Eh   |
          | TOTAL ENTHALPY           -106.070586526781 Eh   |
          | TOTAL FREE ENERGY        -106.164764327260 Eh   |
          | GRADIENT NORM               0.000056143534 Eh/α |
          | HOMO-LUMO GAP               0.769918033083 eV   |
           -------------------------------------------------

 * finished run on 2025/07/20 at 14:35:44.685
