   * xtb version 6.7.1 (edcfbbe) compiled by 'albert@albert-system' on 2024-07-22

   ID    Z sym.   atoms
    1    6 C      1-4, 6-43
    2    7 N      5
    3    1 H      44-70

          program call               : xtb data2507/toluene/3CzAnN/3CzAnN_toluene_S0_finalOpt.xtbopt.xyz --gfn 2 --uhf 2 --gbsa toluene --ohess vtight --parallel 40 --molden --ceasefiles --namespace data2507/toluene/3CzAnN/3CzAnN_toluene_T1_preOpt
      * Solvation model:               GBSA
        Solvent                        toluene
        Solvent mass                       9.2140E+01 g/mol
          :  Hamiltonian                  GFN2-xTB          :
 * total energy  :  -106.6331284 Eh     change       -0.9737846E-09 Eh
 * total energy  :  -106.6389233 Eh     change       -0.5794901E-02 Eh
 * total energy  :  -106.6403149 Eh     change       -0.1391570E-02 Eh
 * total energy  :  -106.6404519 Eh     change       -0.1370440E-03 Eh
 * total energy  :  -106.6405845 Eh     change       -0.1325772E-03 Eh
 * total energy  :  -106.6406536 Eh     change       -0.6912574E-04 Eh
 * total energy  :  -106.6407456 Eh     change       -0.9200151E-04 Eh
 * total energy  :  -106.6408470 Eh     change       -0.1013036E-03 Eh
 * total energy  :  -106.6409503 Eh     change       -0.1033528E-03 Eh
 * total energy  :  -106.6410597 Eh     change       -0.1094034E-03 Eh
 * total energy  :  -106.6425889 Eh     change       -0.1038551E-05 Eh
 * total energy  :  -106.6425896 Eh     change       -0.6226679E-06 Eh
 * total energy  :  -106.6425900 Eh     change       -0.4306469E-06 Eh
 * total energy  :  -106.6425905 Eh     change       -0.4788570E-06 Eh
 * total energy  :  -106.6425912 Eh     change       -0.7160503E-06 Eh
 * total energy  :  -106.6425921 Eh     change       -0.9384867E-06 Eh
 * total energy  :  -106.6425929 Eh     change       -0.7818355E-06 Eh
 * total energy  :  -106.6425934 Eh     change       -0.4552820E-06 Eh
 * total energy  :  -106.6425934 Eh     change       -0.3849436E-08 Eh
   *** GEOMETRY OPTIMIZATION CONVERGED AFTER 68 ITERATIONS ***

 final structure:
================
70
 xtb: 6.7.1 (edcfbbe)
C           -8.18726379550232       -2.82959162189090       -0.98474410521654
C           -8.25431472057713       -1.52869656908824       -1.45671432402308
C           -7.27806037477136       -0.61093994110993       -1.11400333598746
C           -6.22836491909668       -0.99254471843545       -0.28353126965207
N           -5.23634601853219       -0.06300016804981        0.07063190180643
C           -5.45807323801261        1.19113509134438        0.60766559667978
C           -6.65265874033192        1.80429939023310        0.95748185453628
C           -6.59061543724993        3.07193847668276        1.50596099614334
C           -5.37304344027798        3.71695813291052        1.71183484324253
C           -4.17904735227832        3.10253729271009        1.38573062687205
C           -4.21636822600548        1.82884582612110        0.83497387204123
C           -3.20015097765234        0.90752484091097        0.40242438939710
C           -1.81876504884946        0.97250425360716        0.35721645419809
C           -1.09639673758871       -0.11639150011304       -0.13614196217459
C            0.36066930219197       -0.08548702350299       -0.18294719322356
C            1.11351574861912       -1.13145374837694        0.43553958941627
C            0.49467517929207       -2.14195997548052        1.17847903815212
C            1.21966812648062       -3.20458838522820        1.71185729221616
C            2.58191224682049       -3.27420041041386        1.51017104953761
C            3.23318999366137       -2.24804723419175        0.83048532008217
C            2.53756901016853       -1.14119811302558        0.33323341292008
C            3.20972010125210       -0.04684989002772       -0.29321373001624
C            4.66527868734386       -0.03269228102876       -0.37613637099683
C            5.30289077910959        0.09678206621676       -1.63600905833733
C            6.66122913908984        0.08855393857568       -1.74297053604112
C            7.48375396387781       -0.02363133878530       -0.59809785750880
C            8.88874747368610       -0.02300840842636       -0.67433373288268
C            9.65131091933231       -0.12703918083037        0.45898293587331
C            9.03791490131544       -0.23822612717667        1.71615726455829
C            7.67472241903974       -0.24707820308732        1.82287549046005
C            6.86001749142023       -0.14147146237287        0.67341227274506
C            5.45669753311236       -0.15149448570463        0.75189656181535
C            2.45952462755882        1.03462631199990       -0.84975709065043
C            3.08840627310985        2.16501250361752       -1.38164215228710
C            2.36228118410942        3.17959966260980       -2.00063476076434
C            0.99139714650368        3.07335948454634       -2.10422052247196
C            0.33475377021023        1.98739079920153       -1.53069540897378
C            1.03268717459900        0.98747826672911       -0.84529342279551
C           -1.79561949111110       -1.24806290886078       -0.60068923258536
C           -3.17021034605179       -1.32381389900004       -0.58087446180114
C           -3.87847854762256       -0.24810391533325       -0.05581446444393
C           -6.16385484024888       -2.29846263214055        0.19350524222717
C           -7.13980657596995       -3.21155193759066       -0.16239270443697
H           -8.94950244170283       -3.54388727232074       -1.25745428043204
H           -9.06647074730566       -1.22788664265881       -2.10197314188194
H           -7.31529502901633        0.39841252970416       -1.49612908800107
H           -7.60028651246420        1.30725074599943        0.81536557428331
H           -7.50688609751015        3.57188526567186        1.78425148065392
H           -5.36635255323865        4.70818130839940        2.14097559077307
H           -3.23462600213483        3.59658176494424        1.55890471610288
H           -1.29824740607532        1.84031773663531        0.73379566557744
H           -0.57023764276479       -2.09805832421363        1.34782740105844
H            0.70627260683600       -3.97435608920462        2.26946939774067
H            3.15261935103640       -4.11069293485479        1.88623547829149
H            4.30009636062917       -2.31474509359382        0.68150660723204
H            4.68602497519748        0.16275883371176       -2.52116666963664
H            7.13232367832656        0.16312729416557       -2.71344871509326
H            9.35719125764790        0.06429046360723       -1.64498736934148
H           10.72982443813632       -0.12306459206157        0.39304286835942
H            9.65384285050679       -0.31723281962175        2.60075166667617
H            7.19794427179875       -0.33566578048779        2.78918219540968
H            4.99126429487336       -0.21917629130061        1.72570404679519
H            4.16143258659365        2.25825105309911       -1.31043719256538
H            2.88079408433676        4.03574408345417       -2.40683312533545
H            0.41797808621665        3.83357442699702       -2.61448039232672
H           -0.73816112369793        1.91718959768097       -1.62423084116089
H           -1.22697343682393       -2.06378158063615       -1.02295129640685
H           -3.68021699069623       -2.18901608032092       -0.97697449102148
H           -5.35655420906013       -2.58642368082051        0.85042457433475
H           -7.08535126624454       -4.22357357957976        0.21091208164032

          :  Hamiltonian                  GFN2-xTB          :
         :: gradient norm              0.000053174866 Eh/a0 ::
         :: HOMO-LUMO gap              0.764593439927 eV    ::
         :: SCC energy              -108.700296531416 Eh    ::
         :: -> dispersion             -0.099579979063 Eh    ::
         :: -> Gsolv                  -0.043020773113 Eh    ::
         :: repulsion energy           2.057703175079 Eh    ::

    * Orbital Energies and Occupations

         #    Occupation            Energy/Eh            Energy/eV
      -------------------------------------------------------------
         1        2.0000           -0.6800992             -18.5064
       ...           ...                  ...                  ...
        89        2.0000           -0.4130539             -11.2398
        90        2.0000           -0.4121145             -11.2142
        91        2.0000           -0.4108150             -11.1788
        92        2.0000           -0.4039578             -10.9923
        93        2.0000           -0.4027346             -10.9590
        94        2.0000           -0.3969835             -10.8025
        95        2.0000           -0.3957193             -10.7681
        96        2.0000           -0.3934580             -10.7065
        97        2.0000           -0.3811548             -10.3717
        98        2.0000           -0.3756063             -10.2208
        99        2.0000           -0.3660512              -9.9608
       100        1.0000           -0.3441978              -9.3661
       101        1.0000           -0.2841470              -7.7320 (HOMO)
       102        0.0000           -0.2560486              -6.9674 (LUMO)
       103                         -0.2483079              -6.7568
       104                         -0.2354007              -6.4056
       105                         -0.2327170              -6.3326
       106                         -0.2267440              -6.1700
       107                         -0.2261017              -6.1525
       108                         -0.2233809              -6.0785
       109                         -0.2186781              -5.9505
       110                         -0.1983281              -5.3968
       111                         -0.1897845              -5.1643
       112                         -0.1876249              -5.1055
       ...                                ...                  ...
       199                          0.7429278              20.2161
      -------------------------------------------------------------
                  HL-Gap            0.0280983 Eh            0.7646 eV

     #   Z          covCN         q      C6AA      α(0)
     1   6 C        2.919    -0.032    28.791     8.799
     2   6 C        2.920    -0.027    28.684     8.783
     3   6 C        2.922    -0.041    29.025     8.835
     4   6 C        2.913     0.063    26.582     8.454
     5   7 N        2.802    -0.038    21.974     6.962
     6   6 C        3.076     0.047    26.864     8.498
     7   6 C        2.909    -0.050    29.240     8.867
     8   6 C        2.924    -0.034    28.844     8.807
     9   6 C        2.920    -0.041    29.013     8.833
    10   6 C        2.912    -0.033    28.829     8.804
    11   6 C        3.067    -0.017    28.366     8.733
    12   6 C        3.062    -0.017    28.371     8.735
    13   6 C        2.916    -0.036    28.894     8.815
    14   6 C        2.973     0.007    27.855     8.657
    15   6 C        2.973    -0.015    28.371     8.737
    16   6 C        2.977     0.007    27.861     8.658
    17   6 C        2.921    -0.041    29.029     8.835
    18   6 C        2.914    -0.034    28.835     8.805
    19   6 C        2.913    -0.034    28.855     8.808
    20   6 C        2.921    -0.041    29.007     8.832
    21   6 C        2.976     0.006    27.874     8.660
    22   6 C        2.973    -0.012    28.316     8.729
    23   6 C        2.970     0.013    27.729     8.637
    24   6 C        2.919    -0.033    28.814     8.803
    25   6 C        2.914    -0.039    28.965     8.825
    26   6 C        2.986     0.009    27.813     8.651
    27   6 C        2.917    -0.037    28.926     8.819
    28   6 C        2.916    -0.033    28.830     8.805
    29   6 C        2.915    -0.032    28.792     8.799
    30   6 C        2.918    -0.038    28.945     8.822
    31   6 C        2.984     0.010    27.784     8.646
    32   6 C        2.923    -0.042    29.049     8.839
    33   6 C        2.977     0.007    27.870     8.660
    34   6 C        2.921    -0.040    28.994     8.830
    35   6 C        2.913    -0.035    28.865     8.810
    36   6 C        2.914    -0.033    28.828     8.804
    37   6 C        2.921    -0.042    29.036     8.837
    38   6 C        2.976     0.007    27.860     8.658
    39   6 C        2.927    -0.036    28.887     8.814
    40   6 C        2.907    -0.051    29.256     8.869
    41   6 C        3.076     0.047    26.873     8.499
    42   6 C        2.922    -0.041    29.023     8.835
    43   6 C        2.920    -0.027    28.684     8.783
    44   1 H        0.926     0.040     2.442     2.444
    45   1 H        0.926     0.042     2.428     2.437
    46   1 H        0.926     0.043     2.413     2.429
    47   1 H        0.926     0.033     2.545     2.495
    48   1 H        0.926     0.032     2.552     2.498
    49   1 H        0.926     0.030     2.584     2.514
    50   1 H        0.926     0.033     2.551     2.498
    51   1 H        0.926     0.035     2.512     2.479
    52   1 H        0.926     0.031     2.571     2.508
    53   1 H        0.926     0.027     2.629     2.536
    54   1 H        0.926     0.026     2.639     2.541
    55   1 H        0.926     0.030     2.583     2.513
    56   1 H        0.926     0.031     2.571     2.508
    57   1 H        0.925     0.031     2.572     2.508
    58   1 H        0.925     0.030     2.591     2.517
    59   1 H        0.926     0.029     2.606     2.524
    60   1 H        0.926     0.029     2.603     2.523
    61   1 H        0.926     0.029     2.594     2.519
    62   1 H        0.925     0.030     2.580     2.512
    63   1 H        0.926     0.030     2.590     2.516
    64   1 H        0.926     0.026     2.643     2.542
    65   1 H        0.926     0.027     2.633     2.538
    66   1 H        0.926     0.031     2.574     2.509
    67   1 H        0.926     0.035     2.517     2.481
    68   1 H        0.926     0.034     2.525     2.485
    69   1 H        0.926     0.042     2.416     2.431
    70   1 H        0.926     0.041     2.429     2.437

molecular dipole:
                 x           y           z       tot (Debye)
 q only:       -1.628      -0.415      -0.152
   full:       -1.630      -0.442      -0.167       4.314

 projected vibrational frequencies (cm⁻¹)
eigval :       -0.00    -0.00    -0.00    -0.00     0.00     0.00
eigval :        8.96    18.57    23.10    36.70    40.72    53.14
eigval :       58.57    60.03    66.81    78.32   104.80   119.40
eigval :      132.26   137.02   140.27   151.79   172.78   178.36
eigval :      192.26   212.40   231.20   234.88   248.00   274.14
eigval :      294.52   313.28   331.65   344.69   356.00   364.12
eigval :      376.56   379.02   389.14   395.12   400.20   409.28
eigval :      418.97   423.04   432.03   449.56   459.11   472.14
eigval :      476.05   487.41   494.68   527.50   537.37   546.29
eigval :      550.81   565.33   576.31   581.46   584.21   591.43
eigval :      600.82   608.22   616.20   620.85   643.59   645.21
eigval :      668.60   673.56   682.39   689.11   706.59   716.36
eigval :      722.01   723.33   743.59   753.41   756.91   762.36
eigval :      774.76   775.60   794.39   815.82   823.75   832.61
eigval :      843.25   847.66   869.02   869.84   874.63   877.38
eigval :      881.96   883.89   887.71   891.87   893.06   895.54
eigval :      899.80   902.38   904.10   907.13   911.21   921.22
eigval :      922.62   923.43   923.85   928.74   932.95   933.21
eigval :      944.27   960.15   992.19   996.84  1026.56  1070.13
eigval :     1078.91  1078.94  1101.76  1104.97  1113.01  1113.67
eigval :     1117.62  1124.32  1140.22  1152.13  1171.56  1175.06
eigval :     1176.66  1176.94  1178.45  1178.91  1179.77  1181.84
eigval :     1184.83  1199.18  1220.85  1227.10  1227.92  1234.54
eigval :     1242.64  1254.05  1260.83  1267.70  1273.39  1281.21
eigval :     1289.59  1300.35  1303.52  1315.17  1325.00  1331.22
eigval :     1338.24  1354.68  1361.02  1362.98  1369.68  1371.50
eigval :     1374.86  1390.51  1408.20  1419.85  1420.30  1422.92
eigval :     1427.85  1434.02  1442.22  1457.67  1477.00  1477.88
eigval :     1480.56  1487.42  1491.15  1523.04  1527.07  1538.60
eigval :     1545.32  1553.47  1576.44  1580.12  1581.39  1587.45
eigval :     1591.51  1599.71  1604.75  3060.59  3062.28  3063.64
eigval :     3067.51  3069.43  3069.85  3072.58  3073.35  3076.70
eigval :     3077.37  3077.92  3078.39  3078.95  3079.16  3079.80
eigval :     3084.12  3085.32  3087.00  3088.30  3089.61  3090.07
eigval :     3091.40  3091.98  3093.36  3093.80  3095.42  3098.20

   temp. (K)  partition function   enthalpy   heat capacity  entropy
                                   cal/mol     cal/K/mol   cal/K/mol   J/K/mol
 298.15  VIB  0.525E+14            18806.285    124.617    114.786
         ROT  0.626E+08              888.752      2.981     38.656
         INT  0.328E+22            19695.037    127.598    153.442
         TR   0.123E+29             1481.254      4.968     44.756
         TOT                       21176.2912   132.5659   198.1977   829.2591

       T/K    H(0)-H(T)+PV         H(T)/Eh          T*S/Eh         G(T)/Eh
   ------------------------------------------------------------------------
    298.15    0.337466E-01    0.571867E+00    0.941701E-01    0.477697E+00
   ------------------------------------------------------------------------

         :::::::::::::::::::::::::::::::::::::::::::::::::::::
         ::                  THERMODYNAMIC                  ::
         :::::::::::::::::::::::::::::::::::::::::::::::::::::
         :: total free energy        -106.164896187877 Eh   ::
         ::.................................................::
         :: total energy             -106.642593357204 Eh   ::
         :: zero point energy           0.538120716277 Eh   ::
         :: G(RRHO) w/o ZPVE           -0.060423546950 Eh   ::
         :: G(RRHO) contrib.            0.477697169327 Eh   ::
         :::::::::::::::::::::::::::::::::::::::::::::::::::::

           -------------------------------------------------
          | TOTAL ENERGY             -106.642593357204 Eh   |
          | TOTAL ENTHALPY           -106.070726072857 Eh   |
          | TOTAL FREE ENERGY        -106.164896187877 Eh   |
          | GRADIENT NORM               0.000053172740 Eh/α |
          | HOMO-LUMO GAP               0.764594153027 eV   |
           -------------------------------------------------

 * finished run on 2025/07/20 at 14:32:35.761
