   * xtb version 6.7.1 (edcfbbe) compiled by 'albert@albert-system' on 2024-07-22

   ID    Z sym.   atoms
    1    6 C      1-17, 19, 20, 22, 23, 25-49, 51-58
    2    7 N      18, 21, 24, 50
    3    1 H      59-96

          program call               : xtb data2507/toluene/PrDPhAc/PrDPhAc_toluene_S0_crest.xyz --gfn 2 --gbsa toluene --ohess vtight --parallel 40 --molden --ceasefiles --namespace data2507/toluene/PrDPhAc/PrDPhAc_toluene_S0_finalOpt
      * Solvation model:               GBSA
        Solvent                        toluene
        Solvent mass                       9.2140E+01 g/mol
          :  Hamiltonian                  GFN2-xTB          :
 * total energy  :  -146.7981238 Eh     change       -0.5593989E-08 Eh
 * total energy  :  -146.7982270 Eh     change       -0.1032186E-03 Eh
 * total energy  :  -146.7983085 Eh     change       -0.8147156E-04 Eh
 * total energy  :  -146.7983713 Eh     change       -0.6287769E-04 Eh
 * total energy  :  -146.7984262 Eh     change       -0.5481445E-04 Eh
 * total energy  :  -146.7984949 Eh     change       -0.6873388E-04 Eh
 * total energy  :  -146.7985316 Eh     change       -0.3666471E-04 Eh
 * total energy  :  -146.7985582 Eh     change       -0.2661131E-04 Eh
 * total energy  :  -146.7986080 Eh     change       -0.4981233E-04 Eh
 * total energy  :  -146.7986555 Eh     change       -0.4755511E-04 Eh
 * total energy  :  -146.7990445 Eh     change       -0.2323147E-05 Eh
 * total energy  :  -146.7990457 Eh     change       -0.1189452E-05 Eh
 * total energy  :  -146.7990465 Eh     change       -0.8591841E-06 Eh
 * total energy  :  -146.7990475 Eh     change       -0.1000975E-05 Eh
 * total energy  :  -146.7990485 Eh     change       -0.1025975E-05 Eh
 * total energy  :  -146.7990497 Eh     change       -0.1143659E-05 Eh
 * total energy  :  -146.7990502 Eh     change       -0.5634747E-06 Eh
 * total energy  :  -146.7990505 Eh     change       -0.2553104E-06 Eh
 * total energy  :  -146.7990505 Eh     change       -0.4076128E-08 Eh
   *** GEOMETRY OPTIMIZATION CONVERGED AFTER 44 ITERATIONS ***

 final structure:
================
96
 xtb: 6.7.1 (edcfbbe)
C           -2.77114899809069       -1.74231743910614       -3.57728114818803
C           -3.65754359642267       -2.37170506558826       -2.72025588849075
C           -4.16263557429473       -1.69773149868999       -1.62230852090619
C           -3.78781551166921       -0.38469018340356       -1.36127016039007
C           -4.32402576773885        0.34413879452949       -0.12891605675659
C           -5.64702478125571        1.03215337983978       -0.40006497882629
C           -6.26174412490745        1.00542951093143       -1.64353851412004
C           -7.46990861313108        1.65418754673925       -1.84448469442869
C           -8.07863454702257        2.33681445376457       -0.80669289951342
C           -7.47130950513444        2.36998720078663        0.43869069536391
C           -6.26594509623663        1.72414571850509        0.63905299716363
C           -4.44314910941724       -0.67542776354740        0.99383326084790
C           -5.63992845355170       -1.17599617502453        1.48099914001730
C           -5.64501696061324       -2.12556939545022        2.48950585709923
C           -4.45167179355315       -2.57457990467004        3.02972380783602
C           -3.24830318450727       -2.08771603269025        2.55167103151483
C           -3.24184648769244       -1.16033899644524        1.51751519412368
N           -2.04312962339818       -0.60927838760789        1.02582487732633
C           -1.01204519554356       -1.35863055717864        0.52704791492073
C           -1.02625488437496       -2.76255824955216        0.50577245908046
N            0.00874894116008       -3.44376456908978        0.04914701672737
C            1.04460514448014       -2.78091341650052       -0.43206817886309
C            1.03153419168796       -1.37885519123285       -0.50516424485551
N            2.06322309146823       -0.64850042532181       -1.03016175317263
C            2.10730955176459        0.75802396554431       -0.91119347540061
C            1.06501469561732        1.55651965965390       -1.35614484781604
C            1.17689482866262        2.93267566081667       -1.27084721464956
C            2.32407865451228        3.50590968666232       -0.74942117332713
C            3.36489312442702        2.70632829915303       -0.30533203275104
C            3.26979390850068        1.32665781363500       -0.38766689053733
C            4.32200423712736        0.35268114388967        0.12299223668069
C            3.76004741885302       -0.33042432635509        1.37021083806816
C            4.12499073686898       -1.63430762648237        1.68549728055158
C            3.59610811205691       -2.26697321807400        2.79678120770165
C            2.69532081232545       -1.60483907174536        3.61312014934437
C            2.34157952328555       -0.29931970729857        3.31847648031443
C            2.87139258093186        0.33361381449667        2.20769123570933
C            5.63977937581643        1.04975632124824        0.39566559262399
C            6.27734761890784        1.70927370619105       -0.65325068243501
C            7.47918945862978        2.36130075854029       -0.45150437841611
C            8.06455143671847        2.36640780214853        0.80478212134569
C            7.43771171097855        1.71529033357076        1.85198734329990
C            6.23284186934500        1.06088009179222        1.64988066394267
C            4.46228909714799       -0.70753161523534       -0.95901789774628
C            5.66759885879139       -1.22212011703607       -1.40886301937663
C            5.69012328958700       -2.21043865918409       -2.37926589208386
C            4.50625916118164       -2.68396091539673       -2.91932136805718
C            3.29445505671351       -2.18227893722751       -2.47914314974745
C            3.27028762368517       -1.21541412221167       -1.48229755816083
N            0.00986803237116       -0.69025864889952       -0.00204673084625
C           -2.09181901966316        0.79123859021135        0.85234950949689
C           -1.04502174793223        1.60879278231916        1.24999531671468
C           -1.16098299833365        2.98026151576038        1.11145428777174
C           -2.31657831489091        3.53054011402398        0.58399464825438
C           -3.36215934235680        2.71212604575327        0.18829810175359
C           -3.26340327833659        1.33696413922373        0.32467862926132
C           -2.91414228775604        0.24602130755534       -2.23927482844731
C           -2.40825083469467       -0.42821757053204       -3.33689109741060
H           -2.36936090870060       -2.27156926831643       -4.42903431429166
H           -3.95496611193049       -3.39428602976968       -2.90261083308642
H           -4.85369536504145       -2.20072322110999       -0.96136520876939
H           -5.79903571820176        0.47692036481268       -2.46374964475131
H           -7.93497938096660        1.62338659219197       -2.81925632601601
H           -9.02057807084456        2.84097307980351       -0.96550915778770
H           -7.93778943922277        2.90105427149976        1.25574937542070
H           -5.79304625148777        1.75385972267021        1.61072751566030
H           -6.57431612615957       -0.83140020940019        1.06426411576345
H           -6.58411173668842       -2.51208596749804        2.85537940023535
H           -4.45490997981567       -3.30048302420350        3.82889118721479
H           -2.31267503483049       -2.41717569780655        2.97912697629131
H           -1.86955519730396       -3.34614935949188        0.84143830352674
H            1.88724486761657       -3.37726641655749       -0.74613939167691
H            0.17555511065491        1.09548587730046       -1.75295549585861
H            0.36605200762096        3.55643238597993       -1.61481477690653
H            2.40988571425470        4.58002347495978       -0.67930425782373
H            4.24827169810459        3.15995472632136        0.11839130470504
H            4.82706975997987       -2.16273555998287        1.05679215349896
H            3.88619136899960       -3.28319722568761        3.02148137023526
H            2.27534912710546       -2.10179273259821        4.47547832437384
H            1.64683737896477        0.23017571389497        3.95496051350898
H            2.58806853629438        1.35282910024812        1.98972173339454
H            5.82193796456726        1.70873930497746       -1.63369476361464
H            7.96012639842549        2.86722634694187       -1.27611070009320
H            9.00382285165719        2.87519791050639        0.96463847064750
H            7.88574612719814        1.71399349394751        2.83518191953205
H            5.75562723527634        0.55763225835729        2.47762114642069
H            6.59467843699242       -0.85860393018342       -0.99189068234516
H            6.63561450454582       -2.60784546284278       -2.71582757077581
H            4.52350148317337       -3.44089488474011       -3.68895990975444
H            2.36625316243901       -2.53050489559630       -2.90788710300616
H           -0.14889805540915        1.16542903549211        1.65170729828183
H           -0.34658120391060        3.61849007595382        1.41853523206503
H           -2.40563690638623        4.60081582528049        0.47184310213857
H           -4.25285511148790        3.14702330687427       -0.23976389665520
H           -2.62381219603400        1.27144368552208       -2.06349783431464
H           -1.72511628412905        0.07583297977253       -4.00574752962079

          :  Hamiltonian                  GFN2-xTB          :
         :: gradient norm              0.000047675466 Eh/a0 ::
         :: HOMO-LUMO gap              2.613161460210 eV    ::
         :: SCC energy              -149.526349232064 Eh    ::
         :: -> dispersion             -0.162976287602 Eh    ::
         :: -> Gsolv                  -0.053974389365 Eh    ::
         :: repulsion energy           2.727298727209 Eh    ::

    * Orbital Energies and Occupations

         #    Occupation            Energy/Eh            Energy/eV
      -------------------------------------------------------------
         1        2.0000           -0.6780507             -18.4507
       ...           ...                  ...                  ...
       125        2.0000           -0.4069263             -11.0730
       126        2.0000           -0.4064153             -11.0591
       127        2.0000           -0.4055836             -11.0365
       128        2.0000           -0.4054714             -11.0334
       129        2.0000           -0.4042145             -10.9992
       130        2.0000           -0.4041842             -10.9984
       131        2.0000           -0.3981196             -10.8334
       132        2.0000           -0.3975294             -10.8173
       133        2.0000           -0.3962201             -10.7817
       134        2.0000           -0.3948510             -10.7444
       135        2.0000           -0.3725711             -10.1382
       136        2.0000           -0.3612447              -9.8300
       137        2.0000           -0.3531041              -9.6085 (HOMO)
       138                         -0.2570722              -6.9953 (LUMO)
       139                         -0.2418475              -6.5810
       140                         -0.2370260              -6.4498
       141                         -0.2362373              -6.4283
       142                         -0.2316647              -6.3039
       143                         -0.2314625              -6.2984
       144                         -0.2293311              -6.2404
       145                         -0.2291435              -6.2353
       146                         -0.2270500              -6.1783
       147                         -0.2269481              -6.1756
       148                         -0.2262429              -6.1564
       ...                                ...                  ...
       270                          0.6716647              18.2769
      -------------------------------------------------------------
                  HL-Gap            0.0960319 Eh            2.6132 eV

     #   Z          covCN         q      C6AA      α(0)
     1   6 C        2.919    -0.034    28.849     8.808
     2   6 C        2.919    -0.032    28.801     8.801
     3   6 C        2.924    -0.038    28.936     8.821
     4   6 C        2.980     0.013    27.718     8.636
     5   6 C        3.924     0.011    20.329     6.408
     6   6 C        2.975     0.012    27.737     8.639
     7   6 C        2.922    -0.036    28.888     8.814
     8   6 C        2.920    -0.030    28.761     8.794
     9   6 C        2.919    -0.032    28.801     8.801
    10   6 C        2.919    -0.031    28.770     8.796
    11   6 C        2.925    -0.033    28.812     8.803
    12   6 C        2.992    -0.002    28.069     8.691
    13   6 C        2.921    -0.036    28.888     8.814
    14   6 C        2.919    -0.036    28.905     8.816
    15   6 C        2.920    -0.033    28.811     8.802
    16   6 C        2.919    -0.048    29.184     8.859
    17   6 C        2.945     0.056    26.739     8.481
    18   7 N        2.761    -0.087    22.937     7.113
    19   6 C        2.891     0.161    24.524     8.119
    20   6 C        2.901     0.014    27.708     8.631
    21   7 N        1.840    -0.254    27.472     7.767
    22   6 C        2.901     0.014    27.710     8.631
    23   6 C        2.891     0.161    24.522     8.119
    24   7 N        2.761    -0.088    22.946     7.114
    25   6 C        2.950     0.068    26.469     8.438
    26   6 C        2.919    -0.038    28.939     8.822
    27   6 C        2.921    -0.031    28.777     8.797
    28   6 C        2.919    -0.036    28.905     8.816
    29   6 C        2.921    -0.037    28.926     8.820
    30   6 C        2.992    -0.004    28.118     8.698
    31   6 C        3.924     0.011    20.328     6.408
    32   6 C        2.980     0.013    27.717     8.636
    33   6 C        2.924    -0.038    28.936     8.821
    34   6 C        2.919    -0.032    28.801     8.801
    35   6 C        2.919    -0.034    28.849     8.808
    36   6 C        2.919    -0.032    28.790     8.799
    37   6 C        2.923    -0.035    28.874     8.812
    38   6 C        2.975     0.012    27.738     8.639
    39   6 C        2.925    -0.033    28.813     8.803
    40   6 C        2.919    -0.031    28.770     8.796
    41   6 C        2.919    -0.032    28.801     8.801
    42   6 C        2.920    -0.030    28.760     8.794
    43   6 C        2.922    -0.036    28.888     8.814
    44   6 C        2.992    -0.002    28.069     8.691
    45   6 C        2.921    -0.036    28.889     8.814
    46   6 C        2.919    -0.036    28.903     8.816
    47   6 C        2.920    -0.033    28.810     8.802
    48   6 C        2.919    -0.048    29.183     8.859
    49   6 C        2.945     0.056    26.739     8.481
    50   7 N        1.862    -0.305    28.763     7.949
    51   6 C        2.949     0.068    26.472     8.439
    52   6 C        2.919    -0.038    28.947     8.823
    53   6 C        2.921    -0.031    28.778     8.797
    54   6 C        2.919    -0.036    28.907     8.817
    55   6 C        2.921    -0.037    28.926     8.820
    56   6 C        2.992    -0.004    28.120     8.699
    57   6 C        2.923    -0.035    28.877     8.812
    58   6 C        2.919    -0.032    28.791     8.799
    59   1 H        0.926     0.031     2.566     2.505
    60   1 H        0.926     0.032     2.556     2.500
    61   1 H        0.926     0.029     2.594     2.519
    62   1 H        0.926     0.029     2.597     2.520
    63   1 H        0.926     0.033     2.545     2.495
    64   1 H        0.926     0.034     2.530     2.487
    65   1 H        0.926     0.035     2.523     2.484
    66   1 H        0.926     0.032     2.564     2.504
    67   1 H        0.926     0.043     2.405     2.425
    68   1 H        0.926     0.043     2.404     2.425
    69   1 H        0.926     0.042     2.417     2.431
    70   1 H        0.926     0.032     2.553     2.499
    71   1 H        0.926     0.020     2.731     2.584
    72   1 H        0.926     0.020     2.730     2.584
    73   1 H        0.926     0.041     2.430     2.438
    74   1 H        0.926     0.041     2.440     2.443
    75   1 H        0.926     0.042     2.427     2.436
    76   1 H        0.926     0.041     2.442     2.444
    77   1 H        0.926     0.029     2.596     2.519
    78   1 H        0.926     0.032     2.557     2.501
    79   1 H        0.926     0.031     2.567     2.506
    80   1 H        0.926     0.032     2.565     2.504
    81   1 H        0.926     0.033     2.549     2.497
    82   1 H        0.926     0.032     2.561     2.503
    83   1 H        0.926     0.035     2.523     2.484
    84   1 H        0.926     0.034     2.530     2.487
    85   1 H        0.926     0.033     2.545     2.495
    86   1 H        0.926     0.029     2.598     2.520
    87   1 H        0.926     0.043     2.405     2.425
    88   1 H        0.926     0.043     2.403     2.424
    89   1 H        0.926     0.042     2.416     2.431
    90   1 H        0.926     0.033     2.550     2.497
    91   1 H        0.926     0.042     2.422     2.434
    92   1 H        0.926     0.041     2.442     2.444
    93   1 H        0.926     0.042     2.428     2.437
    94   1 H        0.926     0.040     2.444     2.445
    95   1 H        0.926     0.033     2.550     2.497
    96   1 H        0.926     0.032     2.564     2.504

molecular dipole:
                 x           y           z       tot (Debye)
 q only:        0.007       1.385      -0.022
   full:        0.007       1.088      -0.016       2.766

 projected vibrational frequencies (cm⁻¹)
eigval :       -0.00    -0.00     0.00     0.00     0.00     0.00
eigval :        4.84    11.06    13.67    25.06    30.46    38.03
eigval :       41.78    51.38    52.86    53.24    54.53    57.93
eigval :       60.19    73.16    79.27    85.03    85.95    86.89
eigval :       93.81    94.15   130.39   139.55   147.78   164.57
eigval :      170.08   175.16   181.08   220.94   226.34   230.77
eigval :      236.45   239.54   246.01   259.56   260.07   263.53
eigval :      266.06   288.86   291.98   303.11   314.51   325.79
eigval :      327.46   363.47   366.08   374.49   374.99   376.20
eigval :      376.47   385.27   399.81   404.80   430.74   440.47
eigval :      450.24   452.46   458.33   461.48   467.67   473.65
eigval :      476.61   503.67   505.61   512.97   513.80   517.90
eigval :      521.54   585.71   587.78   588.14   588.22   588.49
eigval :      593.14   596.06   600.47   604.98   605.55   611.55
eigval :      611.70   615.49   621.61   626.50   662.91   673.44
eigval :      673.80   674.09   674.21   685.11   694.43   695.19
eigval :      698.45   703.57   715.17   717.00   753.47   754.24
eigval :      754.72   756.49   767.22   778.66   780.73   784.01
eigval :      784.75   799.69   841.24   878.11   879.48   880.33
eigval :      880.95   881.05   881.54   888.65   889.54   892.69
eigval :      893.70   898.81   900.57   903.55   904.77   905.83
eigval :      906.72   906.96   914.20   915.33   920.58   921.28
eigval :      921.57   922.10   923.93   927.17   929.59   929.75
eigval :      930.30   931.40   931.69   933.22   933.61   934.17
eigval :      936.57   937.33   937.36   938.25   985.98   986.94
eigval :     1002.04  1002.30  1017.31  1052.03  1086.53  1086.93
eigval :     1089.11  1089.81  1092.70  1092.93  1093.72  1093.87
eigval :     1111.46  1111.97  1118.24  1124.85  1125.47  1127.91
eigval :     1129.77  1140.57  1172.80  1173.67  1176.88  1177.87
eigval :     1180.41  1180.49  1180.64  1180.78  1181.23  1181.83
eigval :     1182.39  1200.97  1201.63  1201.83  1203.23  1203.39
eigval :     1204.86  1209.45  1211.05  1220.45  1230.92  1242.47
eigval :     1249.54  1252.96  1253.73  1260.10  1260.31  1274.44
eigval :     1281.08  1287.07  1287.69  1287.80  1289.26  1291.85
eigval :     1304.11  1316.03  1316.30  1316.73  1316.80  1322.26
eigval :     1324.48  1327.94  1328.41  1379.45  1409.21  1430.17
eigval :     1430.84  1431.28  1431.93  1432.84  1439.74  1439.86
eigval :     1440.49  1448.45  1451.85  1452.22  1470.91  1472.82
eigval :     1473.35  1474.95  1476.57  1484.96  1518.12  1556.71
eigval :     1575.43  1576.12  1583.28  1583.41  1584.89  1585.03
eigval :     1587.47  1587.54  1587.98  1588.03  1595.56  1595.89
eigval :     1599.01  1599.07  1601.85  1601.95  3067.87  3068.66
eigval :     3069.23  3069.25  3070.92  3071.22  3071.97  3072.42
eigval :     3077.94  3078.18  3078.33  3078.36  3079.44  3079.68
eigval :     3079.92  3080.06  3080.36  3080.78  3084.46  3084.48
eigval :     3086.71  3086.78  3087.20  3087.27  3087.59  3088.65
eigval :     3090.86  3090.88  3092.37  3092.55  3093.45  3093.57
eigval :     3096.00  3096.30  3099.63  3099.67  3115.05  3115.96

   temp. (K)  partition function   enthalpy   heat capacity  entropy
                                   cal/mol     cal/K/mol   cal/K/mol   J/K/mol
 298.15  VIB  0.123E+22            26963.449    172.243    169.007
         ROT  0.865E+08              888.752      2.981     39.300
         INT  0.107E+30            27852.202    175.224    208.307
         TR   0.196E+29             1481.254      4.968     45.675
         TOT                       29333.4554   180.1923   253.9821  1062.6609

       T/K    H(0)-H(T)+PV         H(T)/Eh          T*S/Eh         G(T)/Eh
   ------------------------------------------------------------------------
    298.15    0.467458E-01    0.791971E+00    0.120675E+00    0.671296E+00
   ------------------------------------------------------------------------

         :::::::::::::::::::::::::::::::::::::::::::::::::::::
         ::                  THERMODYNAMIC                  ::
         :::::::::::::::::::::::::::::::::::::::::::::::::::::
         :: total free energy        -146.127754608521 Eh   ::
         ::.................................................::
         :: total energy             -146.799050508028 Eh   ::
         :: zero point energy           0.745225134747 Eh   ::
         :: G(RRHO) w/o ZPVE           -0.073929235240 Eh   ::
         :: G(RRHO) contrib.            0.671295899507 Eh   ::
         :::::::::::::::::::::::::::::::::::::::::::::::::::::

           -------------------------------------------------
          | TOTAL ENERGY             -146.799050508028 Eh   |
          | TOTAL ENTHALPY           -146.007079536549 Eh   |
          | TOTAL FREE ENERGY        -146.127754608521 Eh   |
          | GRADIENT NORM               0.000047670372 Eh/α |
          | HOMO-LUMO GAP               2.613161447847 eV   |
           -------------------------------------------------

 * finished run on 2025/09/07 at 23:05:36.919
