   * xtb version 6.7.1 (edcfbbe) compiled by 'albert@albert-system' on 2024-07-22

   ID    Z sym.   atoms
    1    6 C      1-17, 19, 20, 22, 23, 25-49, 51-58
    2    7 N      18, 21, 24, 50
    3    1 H      59-96

          program call               : xtb data2507/toluene/PrDPhAc/PrDPhAc_toluene_S0_finalOpt.xtbopt.xyz --gfn 2 --uhf 2 --gbsa toluene --ohess vtight --parallel 40 --molden --ceasefiles --namespace data2507/toluene/PrDPhAc/PrDPhAc_toluene_T1_preOpt
      * Solvation model:               GBSA
        Solvent                        toluene
        Solvent mass                       9.2140E+01 g/mol
          :  Hamiltonian                  GFN2-xTB          :
 * total energy  :  -146.6982758 Eh     change       -0.8824486E-08 Eh
 * total energy  :  -146.7024200 Eh     change       -0.4144197E-02 Eh
 * total energy  :  -146.7031614 Eh     change       -0.7413937E-03 Eh
 * total energy  :  -146.7033089 Eh     change       -0.1475411E-03 Eh
 * total energy  :  -146.7034835 Eh     change       -0.1745235E-03 Eh
 * total energy  :  -146.7035557 Eh     change       -0.7221401E-04 Eh
 * total energy  :  -146.7036500 Eh     change       -0.9435432E-04 Eh
 * total energy  :  -146.7037445 Eh     change       -0.9447186E-04 Eh
 * total energy  :  -146.7038253 Eh     change       -0.8081990E-04 Eh
 * total energy  :  -146.7038831 Eh     change       -0.5775962E-04 Eh
 * total energy  :  -146.7061714 Eh     change       -0.9005778E-06 Eh
 * total energy  :  -146.7061724 Eh     change       -0.9607513E-06 Eh
 * total energy  :  -146.7061734 Eh     change       -0.1015211E-05 Eh
 * total energy  :  -146.7061745 Eh     change       -0.1107317E-05 Eh
 * total energy  :  -146.7061757 Eh     change       -0.1196770E-05 Eh
 * total energy  :  -146.7061770 Eh     change       -0.1283930E-05 Eh
 * total energy  :  -146.7061784 Eh     change       -0.1364646E-05 Eh
 * total energy  :  -146.7061798 Eh     change       -0.1434609E-05 Eh
 * total energy  :  -146.7061798 Eh     change       -0.7016467E-08 Eh
   *** GEOMETRY OPTIMIZATION CONVERGED AFTER 94 ITERATIONS ***

 final structure:
================
96
 xtb: 6.7.1 (edcfbbe)
C           -3.36168292854624       -1.94788937970525       -3.69912093198325
C           -4.19459673974208       -2.52791190018828       -2.75707318727031
C           -4.62087575433270       -1.79823633898321       -1.66187872187293
C           -4.22488710676141       -0.47590819361348       -1.49175555306698
C           -4.69040070754684        0.30877670467315       -0.26444891412564
C           -6.09289938895900        0.85951650781518       -0.43884295163337
C           -6.80515815169654        0.73027353727396       -1.62235102778836
C           -8.08231761928179        1.25674681859530       -1.73543498265240
C           -8.66236187319343        1.92092370978520       -0.66967869595940
C           -7.95543518282112        2.06124727229569        0.51415327706811
C           -6.68191106819562        1.53651497175975        0.62722217312291
C           -4.60263528244038       -0.63252807427713        0.92646956345958
C           -5.69480866982394       -1.23124213101519        1.53270112165423
C           -5.52200915198961       -2.12010937944754        2.58112152169503
C           -4.24605580831712       -2.41735174175508        3.03867483050401
C           -3.14512876910793       -1.83778475870655        2.44046990694505
C           -3.31512599974519       -0.95839482435181        1.37295417792310
N           -2.22318541604216       -0.31977809790113        0.77123860709767
C           -1.08229452469902       -1.00348287888413        0.43043497086027
C           -1.11250383781534       -2.38731060726218        0.31926331079449
N           -0.00111871540390       -3.09050034109398        0.05550612272147
C            1.11033267396431       -2.39753080232669       -0.23400366278246
C            1.08003676818466       -1.01886062062251       -0.39674673451118
N            2.22137119543287       -0.34808455712398       -0.76132302979075
C            2.43457340298745        1.02212482324373       -0.52764068959591
C            1.46965991312742        1.97004955906559       -0.84701183912078
C            1.74733763844017        3.31295605223500       -0.68020928029021
C            2.98214350215810        3.71520282380157       -0.19520747967246
C            3.94911712658850        2.77113980306977        0.10996144463427
C            3.69427993032382        1.42077673598600       -0.06521807488012
C            4.68731041918756        0.31744357032795        0.25684200655437
C            4.22091704152350       -0.41960526546869        1.51295353025231
C            4.61018819143307       -1.73684410613900        1.73095971035670
C            4.18303752733848       -2.42315010916656        2.85352921319922
C            3.35611088703997       -1.80393360201803        3.77563603292965
C            2.97464741200209       -0.48913780253387        3.57341038069775
C            3.40719397149216        0.19982788202898        2.45319297515853
C            6.08973015076825        0.87458640866003        0.41059185476750
C            6.67685044768193        1.51448580555450       -0.67916542614913
C            7.95015251489317        2.04362111619855       -0.58617229620750
C            8.65884842425487        1.94471527325543        0.60080684134239
C            8.08106943441061        1.31670362551164        1.68945317107104
C            6.80397537880252        0.78609367611080        1.59659429258081
C            4.60117288087572       -0.66747477623500       -0.89827916930550
C            5.69465115456760       -1.28927645753206       -1.47846056131820
C            5.52418394008729       -2.21623034275141       -2.49370905527952
C            4.24935746137448       -2.52885098683742       -2.94405727346457
C            3.14715539613552       -1.92680228732177       -2.37098216404444
C            3.31470800381323       -1.00863419801751       -1.33621912374446
N           -0.00125624286159       -0.30296890462550        0.00325733893758
C           -2.43653963232164        1.04151851160728        0.49005397602753
C           -1.47104213527517        2.00013831328414        0.77359185737473
C           -1.74936092549686        3.33626449303993        0.55979567279586
C           -2.98535972612855        3.72099898136898        0.06376956290889
C           -3.95289475915876        2.76669711789937       -0.20575476020511
C           -3.69725819692095        1.42338157551722        0.01606816166493
C           -3.40568321863591        0.10385784984453       -2.45222985674673
C           -2.97383558547564       -0.62848734770265       -3.54490085849715
H           -3.02077068900641       -2.52025129765864       -4.54946525463737
H           -4.51065173033582       -3.55471302459617       -2.87179917977035
H           -5.26890275311814       -2.26113995313861       -0.93160829693665
H           -6.36536294697240        0.21739193533108       -2.46469283476866
H           -8.62316247296450        1.14577617778823       -2.66416929606749
H           -9.65816183353108        2.32956966289448       -0.75973142917823
H           -8.39731314818612        2.58173171538634        1.35142414803516
H           -6.13209730743303        1.65060391827601        1.55092369083389
H           -6.69019354428357       -1.01093030412005        1.17720951487234
H           -6.38299446176779       -2.58144854310062        3.03996950940238
H           -4.10942949328707       -3.10012225314163        3.86345774599422
H           -2.14738320423699       -2.05416248928031        2.79340456152113
H           -2.03912778290954       -2.93684668525465        0.37690253590620
H            2.03705913822693       -2.94875280237694       -0.27028619475094
H            0.51226671701449        1.64396032455139       -1.21829427790212
H            0.99836185397528        4.04613088848267       -0.93746785032387
H            3.19497037430541        4.76390173537628       -0.05281559851467
H            4.90671253497003        3.08941466915892        0.49351567817603
H            5.25364982238308       -2.23018892205218        1.01680857726043
H            4.49388557620603       -3.44676744832199        3.00511337944395
H            3.01480444655715       -2.34218559893536        4.64780105358037
H            2.33613739430397        0.00671954363820        4.29050652892399
H            3.10532427252474        1.22737004471744        2.31225834523801
H            6.12557332068876        1.59617672471672       -1.60543173256470
H            8.39034906332562        2.53509983742730       -1.44168920996786
H            9.65447482347225        2.35688426600404        0.67533333268581
H            8.62354211487799        1.23778812439584        2.62050964183285
H            6.36592488921673        0.30213573944356        2.45679116243264
H            6.68912015416968       -1.05678898523376       -1.12817989772035
H            6.38609529065547       -2.69495933643977       -2.93256286457737
H            4.11472594070120       -3.24075354864393       -3.74420203504466
H            2.15037528726575       -2.15566944415673       -2.71868164318544
H           -0.51282597028959        1.68743874099687        1.15418221306389
H           -0.99994396291665        4.07822728806675        0.78899411273374
H           -3.19875347120568        4.76401734952355       -0.11498745451374
H           -4.91145716649133        3.07116474288743       -0.59795584296857
H           -3.09893800727090        1.13436333505829       -2.34886008857300
H           -2.33101626314556       -0.16280016402814       -4.27827805835944

          :  Hamiltonian                  GFN2-xTB          :
         :: gradient norm              0.000066768602 Eh/a0 ::
         :: HOMO-LUMO gap              0.424036898212 eV    ::
         :: SCC energy              -149.418429133469 Eh    ::
         :: -> dispersion             -0.157916106488 Eh    ::
         :: -> Gsolv                  -0.056702662875 Eh    ::
         :: repulsion energy           2.712249329047 Eh    ::

    * Orbital Energies and Occupations

         #    Occupation            Energy/Eh            Energy/eV
      -------------------------------------------------------------
         1        2.0000           -0.6800246             -18.5044
       ...           ...                  ...                  ...
       126        2.0000           -0.4063667             -11.0578
       127        2.0000           -0.4056770             -11.0390
       128        2.0000           -0.4053961             -11.0314
       129        2.0000           -0.4048614             -11.0168
       130        2.0000           -0.4045958             -11.0096
       131        2.0000           -0.3979491             -10.8287
       132        2.0000           -0.3976107             -10.8195
       133        2.0000           -0.3958205             -10.7708
       134        2.0000           -0.3955322             -10.7630
       135        2.0000           -0.3711519             -10.0996
       136        2.0000           -0.3687674             -10.0347
       137        1.0000           -0.3478677              -9.4660
       138        0.9997           -0.2561410              -6.9700 (HOMO)
       139        0.0003           -0.2405579              -6.5459 (LUMO)
       140        0.0000           -0.2366893              -6.4406
       141        0.0000           -0.2361733              -6.4266
       142                         -0.2318861              -6.3099
       143                         -0.2312451              -6.2925
       144                         -0.2296250              -6.2484
       145                         -0.2294073              -6.2425
       146                         -0.2264757              -6.1627
       147                         -0.2262620              -6.1569
       148                         -0.2258095              -6.1446
       149                         -0.2257007              -6.1416
       ...                                ...                  ...
       270                          0.6692903              18.2123
      -------------------------------------------------------------
                  HL-Gap            0.0155831 Eh            0.4240 eV

     #   Z          covCN         q      C6AA      α(0)
     1   6 C        2.919    -0.033    28.825     8.804
     2   6 C        2.919    -0.032    28.786     8.798
     3   6 C        2.924    -0.037    28.927     8.820
     4   6 C        2.980     0.012    27.738     8.639
     5   6 C        3.924     0.010    20.338     6.409
     6   6 C        2.975     0.012    27.732     8.638
     7   6 C        2.922    -0.036    28.888     8.814
     8   6 C        2.920    -0.030    28.760     8.794
     9   6 C        2.919    -0.032    28.800     8.800
    10   6 C        2.919    -0.031    28.768     8.795
    11   6 C        2.925    -0.033    28.812     8.803
    12   6 C        2.992    -0.003    28.089     8.694
    13   6 C        2.920    -0.035    28.870     8.811
    14   6 C        2.919    -0.037    28.924     8.819
    15   6 C        2.919    -0.033    28.827     8.804
    16   6 C        2.919    -0.045    29.126     8.850
    17   6 C        2.948     0.053    26.806     8.492
    18   7 N        2.758    -0.060    22.398     7.029
    19   6 C        2.875     0.144    24.865     8.174
    20   6 C        2.892     0.018    27.597     8.613
    21   7 N        1.837    -0.277    28.034     7.846
    22   6 C        2.892     0.018    27.598     8.613
    23   6 C        2.875     0.144    24.864     8.174
    24   7 N        2.758    -0.060    22.398     7.029
    25   6 C        2.945     0.063    26.586     8.457
    26   6 C        2.919    -0.041    29.022     8.834
    27   6 C        2.920    -0.032    28.809     8.802
    28   6 C        2.918    -0.037    28.921     8.819
    29   6 C        2.921    -0.037    28.911     8.817
    30   6 C        2.991    -0.004    28.120     8.699
    31   6 C        3.924     0.010    20.338     6.409
    32   6 C        2.980     0.012    27.739     8.639
    33   6 C        2.924    -0.037    28.927     8.820
    34   6 C        2.919    -0.031    28.785     8.798
    35   6 C        2.919    -0.033    28.825     8.804
    36   6 C        2.920    -0.031    28.782     8.798
    37   6 C        2.923    -0.036    28.896     8.815
    38   6 C        2.975     0.012    27.731     8.638
    39   6 C        2.925    -0.033    28.812     8.803
    40   6 C        2.919    -0.031    28.767     8.795
    41   6 C        2.919    -0.032    28.800     8.800
    42   6 C        2.920    -0.030    28.760     8.794
    43   6 C        2.922    -0.036    28.888     8.814
    44   6 C        2.992    -0.003    28.089     8.694
    45   6 C        2.920    -0.035    28.870     8.811
    46   6 C        2.919    -0.037    28.923     8.819
    47   6 C        2.919    -0.033    28.826     8.804
    48   6 C        2.919    -0.045    29.126     8.850
    49   6 C        2.948     0.053    26.805     8.492
    50   7 N        1.846    -0.329    29.385     8.034
    51   6 C        2.945     0.063    26.586     8.457
    52   6 C        2.919    -0.041    29.023     8.834
    53   6 C        2.920    -0.032    28.810     8.802
    54   6 C        2.918    -0.037    28.922     8.819
    55   6 C        2.921    -0.037    28.912     8.818
    56   6 C        2.991    -0.004    28.121     8.699
    57   6 C        2.923    -0.036    28.895     8.815
    58   6 C        2.920    -0.031    28.782     8.798
    59   1 H        0.926     0.033     2.548     2.496
    60   1 H        0.926     0.033     2.543     2.494
    61   1 H        0.926     0.031     2.574     2.509
    62   1 H        0.926     0.030     2.583     2.513
    63   1 H        0.926     0.033     2.544     2.494
    64   1 H        0.926     0.034     2.531     2.488
    65   1 H        0.926     0.034     2.525     2.485
    66   1 H        0.926     0.031     2.570     2.507
    67   1 H        0.926     0.044     2.397     2.421
    68   1 H        0.926     0.043     2.404     2.425
    69   1 H        0.926     0.042     2.419     2.432
    70   1 H        0.926     0.032     2.560     2.502
    71   1 H        0.926     0.024     2.668     2.554
    72   1 H        0.926     0.024     2.668     2.554
    73   1 H        0.926     0.052     2.291     2.367
    74   1 H        0.926     0.043     2.407     2.426
    75   1 H        0.926     0.041     2.433     2.439
    76   1 H        0.926     0.040     2.447     2.446
    77   1 H        0.926     0.031     2.575     2.509
    78   1 H        0.926     0.033     2.543     2.494
    79   1 H        0.926     0.033     2.547     2.496
    80   1 H        0.926     0.032     2.558     2.501
    81   1 H        0.926     0.031     2.571     2.507
    82   1 H        0.926     0.031     2.571     2.507
    83   1 H        0.926     0.034     2.525     2.485
    84   1 H        0.926     0.034     2.531     2.488
    85   1 H        0.926     0.033     2.543     2.494
    86   1 H        0.926     0.030     2.583     2.513
    87   1 H        0.926     0.044     2.398     2.421
    88   1 H        0.926     0.043     2.404     2.424
    89   1 H        0.926     0.042     2.419     2.432
    90   1 H        0.926     0.032     2.559     2.502
    91   1 H        0.926     0.052     2.291     2.367
    92   1 H        0.926     0.043     2.407     2.426
    93   1 H        0.926     0.041     2.433     2.439
    94   1 H        0.926     0.040     2.448     2.446
    95   1 H        0.926     0.031     2.572     2.508
    96   1 H        0.926     0.032     2.559     2.501

molecular dipole:
                 x           y           z       tot (Debye)
 q only:        0.003       1.322      -0.022
   full:        0.003       1.007      -0.017       2.561

 projected vibrational frequencies (cm⁻¹)
eigval :       -0.00    -0.00    -0.00     0.00     0.00     0.00
eigval :       -2.78     6.45    16.86    26.08    30.19    37.22
eigval :       41.17    53.04    53.92    54.99    58.24    59.83
eigval :       65.19    70.70    81.47    83.62    86.76    88.21
eigval :       94.34    97.77   122.77   136.15   145.53   147.03
eigval :      168.57   170.90   205.79   218.52   230.47   232.68
eigval :      236.27   240.22   248.19   254.72   262.19   263.01
eigval :      271.99   288.38   289.21   298.65   316.30   322.81
eigval :      324.52   356.15   364.60   365.10   374.87   375.21
eigval :      377.68   378.44   385.73   400.38   408.61   434.02
eigval :      437.95   449.27   454.32   457.58   459.97   472.56
eigval :      475.23   500.01   500.13   507.46   509.68   510.13
eigval :      517.37   537.14   551.44   571.86   587.95   588.11
eigval :      588.19   588.36   593.47   596.65   602.83   605.66
eigval :      609.47   609.66   615.05   618.03   624.95   653.69
eigval :      672.56   673.35   674.64   675.17   682.28   689.45
eigval :      690.54   695.31   708.18   711.89   719.18   754.42
eigval :      755.55   756.30   757.45   760.22   762.56   773.50
eigval :      782.26   783.38   783.95   870.69   876.37   880.96
eigval :      882.04   882.95   883.30   884.24   884.94   885.44
eigval :      890.17   891.89   900.85   901.32   902.55   905.14
eigval :      906.55   908.03   911.74   915.91   917.30   918.13
eigval :      918.89   919.67   920.50   925.94   928.16   930.87
eigval :      931.95   933.14   934.03   934.39   935.30   935.82
eigval :      936.00   936.33   936.88   938.70   969.46   969.72
eigval :      986.64   988.13  1001.47  1001.70  1056.68  1086.17
eigval :     1086.41  1089.30  1089.61  1089.66  1090.03  1090.90
eigval :     1092.38  1103.94  1109.72  1113.79  1116.68  1125.09
eigval :     1126.02  1129.24  1129.36  1137.14  1168.95  1171.56
eigval :     1173.69  1174.61  1178.39  1179.87  1180.40  1181.31
eigval :     1181.66  1181.76  1188.54  1200.11  1200.57  1202.97
eigval :     1203.40  1203.87  1208.78  1210.95  1214.15  1224.65
eigval :     1240.12  1246.41  1252.97  1253.45  1255.63  1256.40
eigval :     1271.52  1273.04  1286.58  1286.59  1289.58  1290.29
eigval :     1295.00  1312.61  1316.11  1316.18  1317.50  1317.68
eigval :     1324.47  1326.84  1330.01  1330.54  1374.34  1386.24
eigval :     1414.52  1428.32  1429.19  1430.03  1430.82  1431.97
eigval :     1432.13  1434.82  1435.42  1442.60  1445.27  1463.51
eigval :     1468.60  1472.56  1472.67  1474.71  1475.42  1489.55
eigval :     1548.73  1551.85  1557.36  1557.84  1562.68  1565.39
eigval :     1575.84  1579.45  1586.26  1586.40  1587.07  1587.15
eigval :     1598.17  1598.23  1600.64  1600.81  3068.98  3069.30
eigval :     3069.58  3069.78  3071.36  3071.72  3071.99  3072.26
eigval :     3072.70  3073.07  3078.34  3078.75  3078.93  3079.37
eigval :     3080.86  3081.27  3082.17  3082.85  3084.53  3085.15
eigval :     3085.68  3086.02  3086.84  3086.89  3090.86  3091.09
eigval :     3091.15  3091.44  3091.86  3092.03  3093.58  3093.66
eigval :     3098.80  3099.01  3099.77  3100.66  3118.81  3120.89

   temp. (K)  partition function   enthalpy   heat capacity  entropy
                                   cal/mol     cal/K/mol   cal/K/mol   J/K/mol
 298.15  VIB  0.307E+22            27204.795    174.268    171.095
         ROT  0.481E+08              888.752      2.981     38.134
         INT  0.148E+30            28093.548    177.249    209.230
         TR   0.196E+29             1481.254      4.968     45.675
         TOT                       29574.8015   182.2170   254.9048  1066.5217

       T/K    H(0)-H(T)+PV         H(T)/Eh          T*S/Eh         G(T)/Eh
   ------------------------------------------------------------------------
    298.15    0.471304E-01    0.788436E+00    0.121113E+00    0.667322E+00
   ------------------------------------------------------------------------

         :::::::::::::::::::::::::::::::::::::::::::::::::::::
         ::                  THERMODYNAMIC                  ::
         :::::::::::::::::::::::::::::::::::::::::::::::::::::
         :: total free energy        -146.038857655823 Eh   ::
         ::.................................................::
         :: total energy             -146.706179800951 Eh   ::
         :: zero point energy           0.741305193587 Eh   ::
         :: G(RRHO) w/o ZPVE           -0.073983048459 Eh   ::
         :: G(RRHO) contrib.            0.667322145128 Eh   ::
         :::::::::::::::::::::::::::::::::::::::::::::::::::::

           -------------------------------------------------
          | TOTAL ENERGY             -146.706179800951 Eh   |
          | TOTAL ENTHALPY           -145.917744161156 Eh   |
          | TOTAL FREE ENERGY        -146.038857655823 Eh   |
          | GRADIENT NORM               0.000066974064 Eh/α |
          | HOMO-LUMO GAP               0.424038819769 eV   |
           -------------------------------------------------

 * finished run on 2025/09/07 at 23:05:54.387
