   * xtb version 6.7.1 (edcfbbe) compiled by 'albert@albert-system' on 2024-07-22

   ID    Z sym.   atoms
    1    6 C      1-17, 19, 20, 22, 23, 25-49, 51-58
    2    7 N      18, 21, 24, 50
    3    1 H      59-96

          program call               : xtb data2507/toluene/PrDPhAc/PrDPhAc.xyz --gfn 2 --gbsa toluene --ohess vtight --parallel 40 --molden --ceasefiles --namespace data2507/toluene/PrDPhAc/PrDPhAc_toluene_S0_preOpt
      * Solvation model:               GBSA
        Solvent                        toluene
        Solvent mass                       9.2140E+01 g/mol
          :  Hamiltonian                  GFN2-xTB          :
 * total energy  :  -146.7333085 Eh     change       -0.2480022E-08 Eh
 * total energy  :  -146.7607506 Eh     change       -0.2744208E-01 Eh
 * total energy  :  -146.7735118 Eh     change       -0.1276124E-01 Eh
 * total energy  :  -146.7774925 Eh     change       -0.3980620E-02 Eh
 * total energy  :  -146.7792312 Eh     change       -0.1738739E-02 Eh
 * total energy  :  -146.7801910 Eh     change       -0.9597576E-03 Eh
 * total energy  :  -146.7807554 Eh     change       -0.5644080E-03 Eh
 * total energy  :  -146.7811529 Eh     change       -0.3975418E-03 Eh
 * total energy  :  -146.7814747 Eh     change       -0.3218216E-03 Eh
 * total energy  :  -146.7817674 Eh     change       -0.2926507E-03 Eh
 * total energy  :  -146.7927103 Eh     change       -0.1833174E-06 Eh
 * total energy  :  -146.7927106 Eh     change       -0.2210685E-06 Eh
 * total energy  :  -146.7927108 Eh     change       -0.2574277E-06 Eh
 * total energy  :  -146.7927111 Eh     change       -0.2401232E-06 Eh
 * total energy  :  -146.7927112 Eh     change       -0.1733883E-06 Eh
 * total energy  :  -146.7927114 Eh     change       -0.1181229E-06 Eh
 * total energy  :  -146.7927115 Eh     change       -0.1291004E-06 Eh
 * total energy  :  -146.7927116 Eh     change       -0.1297213E-06 Eh
 * total energy  :  -146.7927116 Eh     change       -0.1186123E-08 Eh
   *** GEOMETRY OPTIMIZATION CONVERGED AFTER 260 ITERATIONS ***

 final structure:
================
96
 xtb: 6.7.1 (edcfbbe)
C           -5.08221485343733       -3.17993091828450       -2.44815200833813
C           -5.39117057865112       -3.35672156533050       -1.10996342014598
C           -5.37741565023178       -2.27836384591986       -0.24362784692131
C           -5.05506909299787       -1.00337493942544       -0.69776356696927
C           -5.04125478579833        0.17515158511577        0.27916812477195
C           -6.43852162291160        0.71520136465988        0.53166997199948
C           -7.56174666907032        0.23363081707323       -0.12457903348363
C           -8.81264649532128        0.76966096053861        0.13878871423514
C           -8.95608756056178        1.79365188804268        1.05756363879842
C           -7.83825545024329        2.28436027963085        1.71406013095628
C           -6.59123754218130        1.75010653658774        1.45192701308553
C           -4.41292490514384       -0.31730980470222        1.56866567448365
C           -5.15306452248607       -0.71430352718246        2.67298455496780
C           -4.53185648854735       -1.23833415827292        3.79300895017338
C           -3.15264808115113       -1.36424036284769        3.82153582703237
C           -2.40035686930325       -0.96198984379455        2.73568184915332
C           -3.02476340509923       -0.45160543918095        1.59932344604938
N           -2.25396029754628        0.01208090076555        0.52435740326093
C           -1.07250309996376       -0.64420439471114        0.22226352372175
C           -1.03919543556863       -2.04612301463719        0.21897631449873
N            0.03697302427106       -2.70416074645143       -0.17268074188945
C            1.10272185902273       -2.00799250908704       -0.52003295870807
C            1.11952567077678       -0.60664043805795       -0.43150681912038
N            2.28998844667145        0.08390953678076       -0.67792265218306
C            2.74371304460374        1.17788327544947        0.08172646938606
C            1.87515084406868        2.10583087513607        0.64448947552108
C            2.36790333193168        3.17703195803328        1.36694591708971
C            3.73201208039220        3.33865024305424        1.52889091442507
C            4.59977313672599        2.40573475585319        0.98770137850460
C            4.12456923036250        1.32035715172956        0.26708652043033
C            5.04688220106425        0.22582033894311       -0.24187118578466
C            4.96186122839241       -0.98176373631302        0.69441922063496
C            5.35132780472018       -2.23707102297352        0.23761536257753
C            5.27165902102856       -3.34629168095360        1.05986582162374
C            4.79821261139537       -3.22087787297167        2.35527963016254
C            4.41981791763990       -1.97470943795744        2.82236751370498
C            4.50365309968354       -0.86324698742187        2.00029837106808
C            6.46780461151968        0.74712802972729       -0.36748276091097
C            6.71595018481393        1.78694832622331       -1.26106074727803
C            7.98861918781847        2.30528030979360       -1.40626942848682
C            9.03668164858081        1.79396358496620       -0.65704932375033
C            8.79770293783746        0.76641862271345        0.23756934367451
C            7.52122938682908        0.24613762850065        0.38328515450939
C            4.51130851242810       -0.22363478503677       -1.58839350745110
C            5.32246110588933       -0.59140963659167       -2.65205000300131
C            4.77435632691961       -1.07271355219825       -3.82812406043182
C            3.39942314790109       -1.18486726716284       -3.95488216295017
C            2.57764346908824       -0.81386796007295       -2.90881177806472
C            3.12816413206557       -0.34793845970624       -1.71718742365532
N            0.01818349633945        0.05569669826673       -0.08189190224459
C           -2.75517288610398        1.11087854052618       -0.19356011354769
C           -1.92262758458211        2.03082642156553       -0.82159178955851
C           -2.45556636815769        3.11185328916658       -1.49857972825702
C           -3.82597535305650        3.29305864857733       -1.54993806696419
C           -4.65977722676926        2.36564674865236       -0.94964288336214
C           -4.14434565055304        1.26828544371283       -0.27580627148194
C           -4.75928327695798       -0.83408954965077       -2.04461618834175
C           -4.77016347645358       -1.91397713098609       -2.91143782703485
H           -5.08753955848422       -4.02192730901236       -3.12456396135791
H           -5.64321719059615       -4.33870779241638       -0.73644254498949
H           -5.62248719166601       -2.43043432731869        0.79721319877107
H           -7.46620095255066       -0.56252546905740       -0.84773779810063
H           -9.67741003500181        0.38254409282725       -0.38061263180875
H           -9.93190205522628        2.20988084466101        1.26072670746847
H           -7.93847844385965        3.08635488393470        2.43095407496464
H           -5.72008377865579        2.13695771583860        1.96190330935013
H           -6.22884040709553       -0.62333822197903        2.65093349161772
H           -5.12395429438138       -1.54984604218215        4.63983651449011
H           -2.65915853118577       -1.76599040590017        4.69368162646191
H           -1.32247851998920       -1.03784365223934        2.76054908369124
H           -1.89507015734792       -2.63844083379593        0.50815741014773
H            1.96654915839276       -2.57020159262152       -0.84353422434705
H            0.81406412011645        1.97460247722170        0.52938727463718
H            1.67810139791727        3.88699543872985        1.79833468518866
H            4.12232609975037        4.17583518477815        2.08743224897572
H            5.66252224075659        2.51081404980477        1.14567812032080
H            5.72235873373924       -2.34820936343372       -0.77063580605345
H            5.57820516619661       -4.31219731090841        0.68533709235745
H            4.72887391583644       -4.08738660376794        2.99629492633400
H            4.05631590708869       -1.86163558427431        3.83368815051910
H            4.20919529990986        0.10193406605057        2.38521977467343
H            5.89952196374260        2.19029736728868       -1.84363612850275
H            8.16328758717553        3.11086583486593       -2.10463371940934
H           10.03231589258828        2.19749814226633       -0.76921960432361
H            9.60684672816052        0.36427267529928        0.83001929906551
H            7.35039271301938       -0.55294057300526        1.08914306007328
H            6.39479037130078       -0.50998766111220       -2.55516881810981
H            5.42018505678924       -1.36168010292012       -4.64305826252557
H            2.96410770658842       -1.55252085952428       -4.87178673883828
H            1.50336853901801       -0.88108040885213       -3.00697548454809
H           -0.85722294105760        1.88477951645842       -0.79068945011080
H           -1.79241507895881        3.81451440400374       -1.98081555592456
H           -4.24823068299105        4.13926968695158       -2.07032634737958
H           -5.73031494104254        2.48367829578416       -1.02469297938083
H           -4.51968757055913        0.14734536707418       -2.42625080101904
H           -4.53409873950047       -1.76097810157782       -3.95474922253885

          :  Hamiltonian                  GFN2-xTB          :
         :: gradient norm              0.000026666728 Eh/a0 ::
         :: HOMO-LUMO gap              2.256855831676 eV    ::
         :: SCC energy              -149.516745201211 Eh    ::
         :: -> dispersion             -0.154056194716 Eh    ::
         :: -> Gsolv                  -0.056807692744 Eh    ::
         :: repulsion energy           2.724033584847 Eh    ::

    * Orbital Energies and Occupations

         #    Occupation            Energy/Eh            Energy/eV
      -------------------------------------------------------------
         1        2.0000           -0.6919629             -18.8293
       ...           ...                  ...                  ...
       125        2.0000           -0.4074367             -11.0869
       126        2.0000           -0.4070375             -11.0761
       127        2.0000           -0.4061145             -11.0509
       128        2.0000           -0.4057191             -11.0402
       129        2.0000           -0.4049340             -11.0188
       130        2.0000           -0.4046086             -11.0100
       131        2.0000           -0.3986764             -10.8485
       132        2.0000           -0.3983328             -10.8392
       133        2.0000           -0.3950905             -10.7510
       134        2.0000           -0.3945789             -10.7370
       135        2.0000           -0.3746420             -10.1945
       136        2.0000           -0.3705344             -10.0828
       137        2.0000           -0.3577207              -9.7341 (HOMO)
       138                         -0.2747828              -7.4772 (LUMO)
       139                         -0.2544704              -6.9245
       140                         -0.2365072              -6.4357
       141                         -0.2355966              -6.4109
       142                         -0.2331867              -6.3453
       143                         -0.2326412              -6.3305
       144                         -0.2299926              -6.2584
       145                         -0.2297480              -6.2518
       146                         -0.2261951              -6.1551
       147                         -0.2257008              -6.1416
       148                         -0.2253477              -6.1320
       ...                                ...                  ...
       270                          0.6727021              18.3052
      -------------------------------------------------------------
                  HL-Gap            0.0829379 Eh            2.2569 eV

     #   Z          covCN         q      C6AA      α(0)
     1   6 C        2.919    -0.033    28.824     8.804
     2   6 C        2.919    -0.032    28.788     8.799
     3   6 C        2.924    -0.038    28.941     8.822
     4   6 C        2.979     0.011    27.771     8.644
     5   6 C        3.922     0.010    20.354     6.412
     6   6 C        2.976     0.013    27.720     8.636
     7   6 C        2.922    -0.036    28.900     8.816
     8   6 C        2.920    -0.031    28.766     8.795
     9   6 C        2.919    -0.032    28.806     8.801
    10   6 C        2.919    -0.031    28.764     8.795
    11   6 C        2.925    -0.032    28.806     8.802
    12   6 C        2.990    -0.004    28.112     8.697
    13   6 C        2.922    -0.035    28.871     8.811
    14   6 C        2.919    -0.038    28.955     8.824
    15   6 C        2.919    -0.032    28.801     8.801
    16   6 C        2.922    -0.050    29.248     8.869
    17   6 C        2.942     0.056    26.737     8.481
    18   7 N        2.755    -0.085    22.891     7.106
    19   6 C        2.895     0.159    24.571     8.127
    20   6 C        2.908     0.027    27.411     8.585
    21   7 N        1.839    -0.237    27.046     7.707
    22   6 C        2.908     0.027    27.399     8.583
    23   6 C        2.895     0.158    24.586     8.130
    24   7 N        2.755    -0.084    22.865     7.102
    25   6 C        2.929     0.062    26.611     8.460
    26   6 C        2.921    -0.056    29.385     8.889
    27   6 C        2.920    -0.033    28.823     8.804
    28   6 C        2.918    -0.039    28.968     8.826
    29   6 C        2.923    -0.037    28.909     8.817
    30   6 C        2.988    -0.006    28.171     8.706
    31   6 C        3.923     0.010    20.352     6.412
    32   6 C        2.980     0.011    27.767     8.644
    33   6 C        2.924    -0.038    28.936     8.821
    34   6 C        2.919    -0.032    28.786     8.798
    35   6 C        2.919    -0.033    28.822     8.804
    36   6 C        2.920    -0.032    28.801     8.801
    37   6 C        2.923    -0.038    28.950     8.824
    38   6 C        2.976     0.013    27.723     8.637
    39   6 C        2.925    -0.032    28.808     8.802
    40   6 C        2.919    -0.031    28.764     8.795
    41   6 C        2.919    -0.032    28.803     8.801
    42   6 C        2.920    -0.031    28.764     8.795
    43   6 C        2.922    -0.036    28.898     8.815
    44   6 C        2.991    -0.003    28.099     8.695
    45   6 C        2.922    -0.035    28.868     8.811
    46   6 C        2.919    -0.038    28.938     8.821
    47   6 C        2.919    -0.032    28.798     8.800
    48   6 C        2.922    -0.050    29.233     8.866
    49   6 C        2.943     0.055    26.755     8.483
    50   7 N        1.849    -0.282    28.169     7.866
    51   6 C        2.928     0.062    26.608     8.459
    52   6 C        2.921    -0.057    29.410     8.893
    53   6 C        2.920    -0.033    28.828     8.805
    54   6 C        2.918    -0.040    28.988     8.829
    55   6 C        2.923    -0.037    28.909     8.817
    56   6 C        2.988    -0.007    28.185     8.709
    57   6 C        2.923    -0.038    28.948     8.823
    58   6 C        2.920    -0.032    28.798     8.800
    59   1 H        0.926     0.034     2.526     2.485
    60   1 H        0.926     0.034     2.526     2.485
    61   1 H        0.926     0.033     2.545     2.495
    62   1 H        0.926     0.031     2.575     2.509
    63   1 H        0.926     0.033     2.545     2.495
    64   1 H        0.926     0.034     2.535     2.490
    65   1 H        0.926     0.034     2.533     2.489
    66   1 H        0.926     0.029     2.600     2.522
    67   1 H        0.926     0.042     2.423     2.434
    68   1 H        0.926     0.042     2.426     2.435
    69   1 H        0.926     0.040     2.448     2.447
    70   1 H        0.926     0.021     2.720     2.579
    71   1 H        0.926     0.031     2.576     2.510
    72   1 H        0.926     0.031     2.572     2.508
    73   1 H        0.926     0.059     2.214     2.327
    74   1 H        0.926     0.039     2.463     2.454
    75   1 H        0.926     0.038     2.478     2.462
    76   1 H        0.926     0.038     2.478     2.462
    77   1 H        0.926     0.034     2.535     2.490
    78   1 H        0.926     0.035     2.519     2.482
    79   1 H        0.926     0.034     2.525     2.485
    80   1 H        0.926     0.032     2.564     2.504
    81   1 H        0.926     0.029     2.604     2.523
    82   1 H        0.926     0.029     2.594     2.519
    83   1 H        0.926     0.034     2.531     2.488
    84   1 H        0.926     0.034     2.534     2.489
    85   1 H        0.926     0.033     2.544     2.494
    86   1 H        0.926     0.031     2.575     2.509
    87   1 H        0.926     0.043     2.411     2.428
    88   1 H        0.926     0.043     2.413     2.429
    89   1 H        0.926     0.041     2.435     2.440
    90   1 H        0.926     0.022     2.697     2.568
    91   1 H        0.926     0.056     2.244     2.342
    92   1 H        0.926     0.038     2.473     2.459
    93   1 H        0.926     0.037     2.488     2.467
    94   1 H        0.926     0.037     2.484     2.465
    95   1 H        0.926     0.030     2.592     2.518
    96   1 H        0.926     0.032     2.557     2.501

molecular dipole:
                 x           y           z       tot (Debye)
 q only:        0.099       0.587       0.000
   full:        0.097       0.417      -0.004       1.089

 projected vibrational frequencies (cm⁻¹)
eigval :       -0.00    -0.00    -0.00     0.00     0.00     0.00
eigval :       -3.48     7.72    13.63    21.67    24.92    29.59
eigval :       36.10    45.46    48.63    52.76    56.86    58.87
eigval :       60.26    68.28    71.10    78.42    82.83    85.31
eigval :       87.03    98.88   104.22   131.29   133.87   167.06
eigval :      168.17   190.14   205.20   218.54   221.47   233.66
eigval :      234.27   238.19   243.24   256.54   259.63   262.07
eigval :      280.28   286.72   286.90   303.19   308.46   311.82
eigval :      326.68   365.17   369.27   370.63   371.57   373.32
eigval :      373.77   394.90   403.79   418.42   422.38   434.87
eigval :      437.90   449.63   453.34   455.36   457.38   473.94
eigval :      478.02   497.85   498.97   513.16   515.26   515.57
eigval :      519.52   554.07   587.41   587.58   588.24   588.38
eigval :      595.29   596.39   602.06   604.39   608.09   609.85
eigval :      610.21   624.63   628.96   640.69   662.48   671.16
eigval :      672.53   673.59   674.40   682.98   689.95   692.47
eigval :      700.02   704.39   708.42   715.48   753.36   754.94
eigval :      755.99   756.97   764.43   776.65   779.29   781.35
eigval :      783.62   813.94   865.46   870.94   876.76   878.33
eigval :      879.11   880.13   880.62   882.15   882.83   892.48
eigval :      892.60   899.31   901.23   902.09   903.28   903.91
eigval :      904.43   905.60   912.24   914.31   917.35   918.07
eigval :      919.29   920.01   922.35   925.56   926.25   927.04
eigval :      927.54   930.48   931.24   931.70   932.96   934.85
eigval :      935.25   936.53   940.55   941.10   985.14   986.21
eigval :     1000.16  1000.44  1019.82  1046.63  1086.45  1086.74
eigval :     1089.48  1090.14  1094.29  1099.24  1099.44  1103.61
eigval :     1114.15  1114.79  1122.70  1125.24  1127.01  1128.98
eigval :     1130.25  1140.79  1168.96  1172.66  1177.34  1178.03
eigval :     1178.60  1178.82  1180.25  1180.68  1181.36  1181.50
eigval :     1182.30  1194.32  1201.98  1203.10  1203.76  1208.65
eigval :     1209.41  1210.34  1211.62  1215.06  1226.27  1236.17
eigval :     1247.05  1252.75  1255.28  1258.06  1259.27  1263.44
eigval :     1277.53  1286.95  1287.18  1288.37  1289.42  1297.94
eigval :     1303.61  1315.43  1315.50  1317.31  1317.57  1320.31
eigval :     1322.33  1328.50  1328.70  1364.54  1386.68  1421.06
eigval :     1429.12  1429.76  1431.04  1431.90  1435.74  1436.80
eigval :     1437.46  1440.83  1456.27  1459.14  1471.94  1472.34
eigval :     1472.61  1473.87  1476.36  1484.53  1501.92  1536.69
eigval :     1573.14  1574.05  1583.12  1583.35  1584.37  1584.56
eigval :     1586.41  1586.79  1587.69  1587.91  1594.98  1595.54
eigval :     1598.67  1598.80  1601.33  1601.40  3068.36  3069.07
eigval :     3069.83  3069.98  3070.31  3070.58  3071.48  3071.51
eigval :     3071.69  3072.84  3072.97  3074.25  3077.90  3078.32
eigval :     3079.52  3079.96  3083.35  3083.59  3084.10  3084.60
eigval :     3086.54  3087.07  3087.35  3087.97  3088.45  3089.15
eigval :     3089.23  3089.90  3093.16  3093.21  3094.19  3094.65
eigval :     3097.52  3098.04  3099.44  3100.03  3141.21  3150.03

   temp. (K)  partition function   enthalpy   heat capacity  entropy
                                   cal/mol     cal/K/mol   cal/K/mol   J/K/mol
 298.15  VIB  0.928E+22            27115.948    171.812    171.115
         ROT  0.107E+09              888.752      2.981     39.723
         INT  0.993E+30            28004.700    174.793    210.838
         TR   0.196E+29             1481.254      4.968     45.675
         TOT                       29485.9539   179.7610   256.5125  1073.2483

       T/K    H(0)-H(T)+PV         H(T)/Eh          T*S/Eh         G(T)/Eh
   ------------------------------------------------------------------------
    298.15    0.469889E-01    0.791625E+00    0.121877E+00    0.669747E+00
   ------------------------------------------------------------------------

         :::::::::::::::::::::::::::::::::::::::::::::::::::::
         ::                  THERMODYNAMIC                  ::
         :::::::::::::::::::::::::::::::::::::::::::::::::::::
         :: total free energy        -146.122964294152 Eh   ::
         ::.................................................::
         :: total energy             -146.792711621764 Eh   ::
         :: zero point energy           0.744635833098 Eh   ::
         :: G(RRHO) w/o ZPVE           -0.074888505486 Eh   ::
         :: G(RRHO) contrib.            0.669747327612 Eh   ::
         :::::::::::::::::::::::::::::::::::::::::::::::::::::

           -------------------------------------------------
          | TOTAL ENERGY             -146.792711621764 Eh   |
          | TOTAL ENTHALPY           -146.001086930103 Eh   |
          | TOTAL FREE ENERGY        -146.122964294152 Eh   |
          | GRADIENT NORM               0.000026661915 Eh/α |
          | HOMO-LUMO GAP               2.256855850528 eV   |
           -------------------------------------------------

 * finished run on 2025/09/07 at 22:59:55.499
