   * xtb version 6.7.1 (edcfbbe) compiled by 'albert@albert-system' on 2024-07-22

   ID    Z sym.   atoms
    1    6 C      1-17, 19, 20, 22, 23, 25-49, 51-58
    2    7 N      18, 21, 24, 50
    3    1 H      59-96

          program call               : xtb data2507/toluene/PrDPhAc/PrDPhAc_toluene_T1_crest.xyz --gfn 2 --uhf 2 --gbsa toluene --ohess vtight --parallel 40 --molden --ceasefiles --namespace data2507/toluene/PrDPhAc/PrDPhAc_toluene_T1_finalOpt
      * Solvation model:               GBSA
        Solvent                        toluene
        Solvent mass                       9.2140E+01 g/mol
          :  Hamiltonian                  GFN2-xTB          :
 * total energy  :  -146.7094162 Eh     change       -0.2808918E-08 Eh
 * total energy  :  -146.7095226 Eh     change       -0.1063641E-03 Eh
 * total energy  :  -146.7095641 Eh     change       -0.4147846E-04 Eh
 * total energy  :  -146.7095825 Eh     change       -0.1844149E-04 Eh
 * total energy  :  -146.7096083 Eh     change       -0.2578319E-04 Eh
 * total energy  :  -146.7096261 Eh     change       -0.1783839E-04 Eh
 * total energy  :  -146.7096525 Eh     change       -0.2637016E-04 Eh
 * total energy  :  -146.7096672 Eh     change       -0.1469488E-04 Eh
 * total energy  :  -146.7096917 Eh     change       -0.2450403E-04 Eh
 * total energy  :  -146.7097128 Eh     change       -0.2109517E-04 Eh
 * total energy  :  -146.7100592 Eh     change       -0.3910615E-06 Eh
 * total energy  :  -146.7100596 Eh     change       -0.3478861E-06 Eh
 * total energy  :  -146.7100599 Eh     change       -0.3383176E-06 Eh
 * total energy  :  -146.7100603 Eh     change       -0.3617235E-06 Eh
 * total energy  :  -146.7100607 Eh     change       -0.4380057E-06 Eh
 * total energy  :  -146.7100613 Eh     change       -0.5679816E-06 Eh
 * total energy  :  -146.7100615 Eh     change       -0.1805461E-06 Eh
 * total energy  :  -146.7100617 Eh     change       -0.2602796E-06 Eh
 * total energy  :  -146.7100618 Eh     change       -0.4650033E-07 Eh
   *** GEOMETRY OPTIMIZATION CONVERGED AFTER 96 ITERATIONS ***

 final structure:
================
96
 xtb: 6.7.1 (edcfbbe)
C           -5.31897889977146       -3.12835859138528       -2.82139877584443
C           -5.64038215452709       -3.30594380372801       -1.48632921843314
C           -5.58317117343507       -2.23894155552359       -0.60758476583234
C           -5.20387842850575       -0.97423135484654       -1.04594155473266
C           -5.14491809721279        0.19571260161589       -0.05667966629404
C           -6.52025672091723        0.79441135853429        0.18878458259220
C           -7.65823735376541        0.36923780482007       -0.48078764111748
C           -8.88577814667469        0.95879059922372       -0.22200793875049
C           -8.99013954267155        1.98030424291973        0.70485157345917
C           -7.85682717240702        2.41460103642716        1.37437571336064
C           -6.63307495543529        1.82677879422505        1.11725607828682
C           -4.55451466863544       -0.33740304661060        1.23398191332286
C           -5.33800146987996       -0.75920885264629        2.29778127259528
C           -4.76727845294543       -1.33727782086021        3.41858873779101
C           -3.39129853785130       -1.50089547907631        3.48600701951090
C           -2.59439707129496       -1.07865219776023        2.44299002241249
C           -3.16590966016903       -0.49838226759624        1.30778734689425
N           -2.35293582508183       -0.00970825153235        0.29033246123146
C           -1.12422132592210       -0.62977128326742        0.06125854077418
C           -1.11534208030111       -1.98921161855151       -0.15219539233039
N            0.02494199746533       -2.66722636607414       -0.38207805168938
C            1.15805115168709       -1.94063406884540       -0.43441151816861
C            1.15141428897780       -0.56947167178847       -0.31250283307796
N            2.37313921420460        0.10023367339239       -0.37240600851729
C            2.81009082895631        0.98000983593260        0.61875561408908
C            1.90440974286644        1.72506240733995        1.37279483880840
C            2.35693456358732        2.64112242950873        2.30081037125410
C            3.71724567595491        2.82154959942198        2.49334861384578
C            4.62031361575249        2.06468676356002        1.76603321482096
C            4.18702841354501        1.13786845422543        0.82986334565121
C            5.14958151996631        0.21688252687055        0.10462808467466
C            5.17259551975990       -1.14248732622207        0.81304163745089
C            5.61474620817744       -2.27179553132599        0.13109529248202
C            5.64057612298756       -3.50864460803045        0.74997606308048
C            5.22216222756502       -3.64024219875577        2.06340749123710
C            4.79016447406038       -2.52126627754803        2.75304273769782
C            4.76783909149266       -1.28224478565717        2.13473441987446
C            6.53234441563479        0.84478782903974        0.04562641544065
C            6.68316731134997        2.04388222562760       -0.64712205595828
C            7.91556707401495        2.66393492693542       -0.72522973005479
C            9.01919939555742        2.09624657634993       -0.10801032871531
C            8.87663624935808        0.90873986916646        0.58692778285583
C            7.64055448691430        0.28645724253194        0.66557991919733
C            4.60658249641892       -0.02032866636957       -1.29123618162044
C            5.42681788348368       -0.20361986628273       -2.39444612278934
C            4.89576592761147       -0.51927198676707       -3.63319886894654
C            3.52304507485633       -0.65538946194276       -3.78157671468381
C            2.69041153601108       -0.46801840954920       -2.69870356231662
C            3.22182256083344       -0.15516416381719       -1.44520056126797
N            0.00897422182755        0.11511418061057       -0.04145424275327
C           -2.82032772427943        1.05714937729717       -0.47662662269057
C           -1.93753863599759        1.94618871322589       -1.08900103626103
C           -2.41738068681765        3.03695361562281       -1.78542491400942
C           -3.78266842498561        3.25140187817380       -1.88629195328796
C           -4.66359842556726        2.35575121074917       -1.30395536802521
C           -4.20289725139506        1.25255427340944       -0.60124451337095
C           -4.89578741074011       -0.80338838271962       -2.39000715466632
C           -4.95109680536956       -1.87190399629804       -3.26915053292627
H           -5.35791138189293       -3.96185991503233       -3.50714007169387
H           -5.93613577499885       -4.27992028427385       -1.12405211547570
H           -5.83826010529518       -2.39394366104746        0.43014121504672
H           -7.59246910169579       -0.42442956875921       -1.20995037572592
H           -9.76300061013200        0.61562907166168       -0.75125670628126
H           -9.94793835121955        2.43811379496488        0.90432618391652
H           -7.92689932202360        3.21403800604888        2.09763327538401
H           -5.74945451371816        2.16811535046966        1.63813544807344
H           -6.41024230183848       -0.64181383974722        2.24413914754580
H           -5.39435618353379       -1.66385885369373        4.23386552385442
H           -2.93812525908364       -1.94932404699613        4.35718037522824
H           -1.52058105043998       -1.18421633533051        2.49639805802522
H           -2.03587459337654       -2.55225579696611       -0.17821699416408
H            2.08506642384105       -2.48322410151008       -0.54007340175453
H            0.84842386415084        1.57434369569253        1.21307954497751
H            1.64414224444332        3.21393241395186        2.87492588595347
H            4.07595301059953        3.53395304539859        3.22060828214702
H            5.67909543061097        2.18180914206405        1.94186588451226
H            5.94326505710592       -2.18564651207631       -0.89393792995395
H            5.98663235716501       -4.37268610434823        0.20132461189373
H            5.23549531249803       -4.60648705328802        2.54576677029176
H            4.46796431870676       -2.60844973373378        3.78065779293179
H            4.43314842160488       -0.42088826411191        2.69327513741673
H            5.82290873114195        2.48930666950406       -1.12698641328918
H            8.01550388043767        3.59276081363769       -1.26780111590058
H            9.98342029597195        2.57928885248217       -0.16813788985882
H            9.73006053319567        0.46010901881245        1.07455398995971
H            7.54445131016024       -0.63785100025634        1.21540858340347
H            6.49631100500434       -0.10533019852400       -2.28101698944724
H            5.55098399030158       -0.66379826088546       -4.47840468971279
H            3.10060468509845       -0.89868731185992       -4.74478212143804
H            1.61932533458871       -0.55375520448708       -2.80979843804840
H           -0.87720806166638        1.76938932297275       -1.00009104945172
H           -1.72231158271848        3.71963857758959       -2.25084589653656
H           -4.16316466924075        4.10090440005742       -2.43280808705390
H           -5.72732199539520        2.50529176978429       -1.41304064626124
H           -4.61169849653118        0.16990961503689       -2.76113581466288
H           -4.70448103238011       -1.71736774483687       -4.30968233632284

          :  Hamiltonian                  GFN2-xTB          :
         :: gradient norm              0.000102640242 Eh/a0 ::
         :: HOMO-LUMO gap              0.695605001201 eV    ::
         :: SCC energy              -149.421257544818 Eh    ::
         :: -> dispersion             -0.153097743104 Eh    ::
         :: -> Gsolv                  -0.058597385751 Eh    ::
         :: repulsion energy           2.711195737735 Eh    ::

    * Orbital Energies and Occupations

         #    Occupation            Energy/Eh            Energy/eV
      -------------------------------------------------------------
         1        2.0000           -0.6809222             -18.5288
       ...           ...                  ...                  ...
       126        2.0000           -0.4077548             -11.0956
       127        2.0000           -0.4066558             -11.0657
       128        2.0000           -0.4065039             -11.0615
       129        2.0000           -0.4057829             -11.0419
       130        2.0000           -0.4057613             -11.0413
       131        2.0000           -0.3992450             -10.8640
       132        2.0000           -0.3990549             -10.8588
       133        2.0000           -0.3957410             -10.7687
       134        2.0000           -0.3956481             -10.7661
       135        2.0000           -0.3744134             -10.1883
       136        1.9998           -0.3668331              -9.9820
       137        1.0002           -0.3504681              -9.5367
       138        1.0000           -0.2654424              -7.2231 (HOMO)
       139        0.0000           -0.2398792              -6.5274 (LUMO)
       140                         -0.2362849              -6.4296
       141                         -0.2360367              -6.4229
       142                         -0.2357565              -6.4153
       143                         -0.2345114              -6.3814
       144                         -0.2308801              -6.2826
       145                         -0.2306755              -6.2770
       146                         -0.2263110              -6.1582
       147                         -0.2261804              -6.1547
       148                         -0.2259791              -6.1492
       149                         -0.2259070              -6.1472
       ...                                ...                  ...
       270                          0.6647795              18.0896
      -------------------------------------------------------------
                  HL-Gap            0.0255632 Eh            0.6956 eV

     #   Z          covCN         q      C6AA      α(0)
     1   6 C        2.919    -0.033    28.810     8.802
     2   6 C        2.919    -0.031    28.781     8.797
     3   6 C        2.924    -0.038    28.940     8.822
     4   6 C        2.979     0.011    27.765     8.643
     5   6 C        3.922     0.010    20.346     6.411
     6   6 C        2.977     0.013    27.722     8.637
     7   6 C        2.922    -0.036    28.896     8.815
     8   6 C        2.920    -0.030    28.760     8.794
     9   6 C        2.919    -0.032    28.799     8.800
    10   6 C        2.919    -0.030    28.754     8.793
    11   6 C        2.925    -0.032    28.808     8.802
    12   6 C        2.988    -0.004    28.107     8.697
    13   6 C        2.921    -0.034    28.853     8.809
    14   6 C        2.918    -0.037    28.919     8.819
    15   6 C        2.918    -0.031    28.784     8.798
    16   6 C        2.921    -0.047    29.176     8.858
    17   6 C        2.941     0.058    26.706     8.476
    18   7 N        2.758    -0.062    22.441     7.036
    19   6 C        2.884     0.137    25.004     8.198
    20   6 C        2.892     0.026    27.419     8.585
    21   7 N        1.836    -0.281    28.147     7.862
    22   6 C        2.892     0.025    27.438     8.588
    23   6 C        2.884     0.138    24.987     8.195
    24   7 N        2.758    -0.063    22.451     7.037
    25   6 C        2.931     0.064    26.577     8.455
    26   6 C        2.921    -0.052    29.292     8.875
    27   6 C        2.919    -0.031    28.786     8.798
    28   6 C        2.918    -0.036    28.905     8.816
    29   6 C        2.922    -0.035    28.882     8.813
    30   6 C        2.986    -0.004    28.126     8.700
    31   6 C        3.922     0.010    20.345     6.411
    32   6 C        2.979     0.011    27.764     8.643
    33   6 C        2.924    -0.038    28.935     8.821
    34   6 C        2.919    -0.031    28.780     8.797
    35   6 C        2.919    -0.033    28.810     8.802
    36   6 C        2.920    -0.031    28.778     8.797
    37   6 C        2.923    -0.038    28.939     8.822
    38   6 C        2.977     0.013    27.723     8.637
    39   6 C        2.925    -0.032    28.809     8.802
    40   6 C        2.919    -0.030    28.755     8.794
    41   6 C        2.919    -0.032    28.799     8.800
    42   6 C        2.920    -0.030    28.760     8.794
    43   6 C        2.922    -0.036    28.896     8.815
    44   6 C        2.988    -0.004    28.108     8.697
    45   6 C        2.921    -0.034    28.853     8.809
    46   6 C        2.918    -0.037    28.919     8.819
    47   6 C        2.918    -0.032    28.787     8.798
    48   6 C        2.921    -0.047    29.174     8.858
    49   6 C        2.941     0.057    26.713     8.477
    50   7 N        1.840    -0.323    29.212     8.010
    51   6 C        2.931     0.063    26.578     8.455
    52   6 C        2.921    -0.052    29.290     8.875
    53   6 C        2.919    -0.031    28.784     8.798
    54   6 C        2.918    -0.036    28.906     8.816
    55   6 C        2.922    -0.035    28.879     8.813
    56   6 C        2.986    -0.004    28.125     8.699
    57   6 C        2.923    -0.038    28.939     8.822
    58   6 C        2.920    -0.031    28.778     8.797
    59   1 H        0.926     0.035     2.523     2.484
    60   1 H        0.926     0.034     2.526     2.486
    61   1 H        0.926     0.034     2.529     2.487
    62   1 H        0.926     0.032     2.564     2.504
    63   1 H        0.926     0.034     2.537     2.491
    64   1 H        0.926     0.034     2.528     2.486
    65   1 H        0.926     0.034     2.525     2.485
    66   1 H        0.926     0.029     2.603     2.523
    67   1 H        0.926     0.043     2.407     2.426
    68   1 H        0.926     0.043     2.407     2.426
    69   1 H        0.926     0.041     2.430     2.438
    70   1 H        0.926     0.027     2.628     2.535
    71   1 H        0.926     0.024     2.679     2.560
    72   1 H        0.926     0.023     2.682     2.561
    73   1 H        0.926     0.062     2.178     2.308
    74   1 H        0.926     0.041     2.437     2.441
    75   1 H        0.926     0.041     2.437     2.441
    76   1 H        0.926     0.040     2.444     2.445
    77   1 H        0.926     0.034     2.524     2.484
    78   1 H        0.926     0.034     2.524     2.484
    79   1 H        0.926     0.035     2.523     2.484
    80   1 H        0.926     0.033     2.544     2.494
    81   1 H        0.926     0.030     2.585     2.514
    82   1 H        0.926     0.029     2.602     2.523
    83   1 H        0.926     0.034     2.525     2.485
    84   1 H        0.926     0.034     2.528     2.487
    85   1 H        0.926     0.033     2.537     2.491
    86   1 H        0.926     0.032     2.564     2.504
    87   1 H        0.926     0.043     2.407     2.426
    88   1 H        0.926     0.043     2.407     2.426
    89   1 H        0.926     0.041     2.429     2.437
    90   1 H        0.926     0.027     2.626     2.534
    91   1 H        0.926     0.061     2.192     2.315
    92   1 H        0.926     0.041     2.437     2.441
    93   1 H        0.926     0.041     2.436     2.441
    94   1 H        0.926     0.041     2.442     2.444
    95   1 H        0.926     0.031     2.575     2.509
    96   1 H        0.926     0.033     2.540     2.492

molecular dipole:
                 x           y           z       tot (Debye)
 q only:       -0.013       1.069       0.142
   full:       -0.011       0.829       0.114       2.128

 projected vibrational frequencies (cm⁻¹)
eigval :       -0.00    -0.00    -0.00    -0.00     0.00     0.00
eigval :        6.76     8.49    12.47    15.99    21.43    25.80
eigval :       32.84    46.42    49.06    51.09    58.50    58.95
eigval :       61.02    69.11    70.72    75.18    82.06    83.78
eigval :       86.64    89.94   104.20   131.82   134.88   165.40
eigval :      167.47   199.32   208.25   218.84   224.46   225.80
eigval :      233.52   237.42   241.29   248.15   259.62   261.46
eigval :      280.20   284.10   287.83   298.66   303.75   304.61
eigval :      333.59   367.97   369.55   369.98   370.57   373.34
eigval :      375.34   391.98   402.12   407.34   418.17   420.65
eigval :      438.65   447.91   449.69   450.33   455.41   471.09
eigval :      475.47   495.53   497.75   505.92   510.66   511.80
eigval :      524.55   525.69   559.87   582.56   587.69   587.99
eigval :      588.10   588.30   593.71   599.70   602.15   607.16
eigval :      608.02   614.81   617.81   624.91   630.91   655.51
eigval :      669.80   671.48   674.09   675.09   679.81   689.39
eigval :      689.94   697.40   702.04   706.12   745.28   754.30
eigval :      754.56   755.74   756.44   764.41   776.47   778.25
eigval :      778.83   780.88   785.44   872.79   875.07   875.56
eigval :      877.87   878.54   879.97   880.35   881.21   884.83
eigval :      891.26   892.58   897.83   898.88   902.07   902.30
eigval :      903.70   905.48   915.08   915.60   916.11   917.00
eigval :      918.53   919.71   923.22   924.18   925.47   927.81
eigval :      928.62   930.12   930.87   932.27   933.39   933.49
eigval :      933.59   937.49   938.08   939.47   941.95   977.33
eigval :      984.77   985.78   999.07   999.42  1052.29  1086.30
eigval :     1086.65  1090.29  1090.49  1093.35  1094.38  1095.63
eigval :     1096.15  1098.56  1115.49  1116.29  1121.79  1125.20
eigval :     1126.49  1130.24  1130.59  1142.55  1173.32  1175.40
eigval :     1176.19  1177.08  1179.24  1179.67  1179.97  1180.34
eigval :     1180.98  1181.56  1190.66  1198.26  1201.49  1203.19
eigval :     1205.98  1210.36  1211.22  1211.86  1212.88  1221.27
eigval :     1234.77  1243.38  1251.59  1255.75  1257.95  1258.95
eigval :     1273.97  1283.59  1287.07  1287.32  1289.57  1290.81
eigval :     1304.93  1314.46  1315.28  1315.47  1317.38  1317.63
eigval :     1321.85  1322.87  1330.42  1331.03  1346.47  1355.83
eigval :     1399.07  1425.57  1425.93  1428.63  1428.90  1430.87
eigval :     1431.11  1433.66  1434.01  1448.77  1450.11  1467.59
eigval :     1469.06  1471.34  1471.84  1474.21  1474.47  1537.36
eigval :     1556.83  1559.24  1568.30  1568.74  1572.04  1572.24
eigval :     1584.75  1585.05  1585.89  1586.55  1587.42  1587.70
eigval :     1597.22  1597.45  1600.35  1600.50  3068.44  3068.46
eigval :     3070.68  3070.94  3071.19  3071.53  3071.64  3071.96
eigval :     3073.90  3074.28  3076.70  3077.82  3078.25  3078.46
eigval :     3080.74  3080.78  3084.09  3084.36  3085.39  3086.05
eigval :     3086.73  3087.39  3087.49  3087.86  3089.27  3089.98
eigval :     3091.34  3091.53  3093.95  3094.14  3095.60  3096.04
eigval :     3096.73  3097.44  3099.19  3099.94  3100.35  3101.08

   temp. (K)  partition function   enthalpy   heat capacity  entropy
                                   cal/mol     cal/K/mol   cal/K/mol   J/K/mol
 298.15  VIB  0.117E+23            27344.605    173.189    172.096
         ROT  0.111E+09              888.752      2.981     39.794
         INT  0.130E+31            28233.358    176.170    211.890
         TR   0.196E+29             1481.254      4.968     45.675
         TOT                       29714.6115   181.1380   257.5653  1077.6534

       T/K    H(0)-H(T)+PV         H(T)/Eh          T*S/Eh         G(T)/Eh
   ------------------------------------------------------------------------
    298.15    0.473532E-01    0.788506E+00    0.122378E+00    0.666128E+00
   ------------------------------------------------------------------------

         :::::::::::::::::::::::::::::::::::::::::::::::::::::
         ::                  THERMODYNAMIC                  ::
         :::::::::::::::::::::::::::::::::::::::::::::::::::::
         :: total free energy        -146.043933461494 Eh   ::
         ::.................................................::
         :: total energy             -146.710061810651 Eh   ::
         :: zero point energy           0.741152708718 Eh   ::
         :: G(RRHO) w/o ZPVE           -0.075024359561 Eh   ::
         :: G(RRHO) contrib.            0.666128349157 Eh   ::
         :::::::::::::::::::::::::::::::::::::::::::::::::::::

           -------------------------------------------------
          | TOTAL ENERGY             -146.710061810651 Eh   |
          | TOTAL ENTHALPY           -145.921555854397 Eh   |
          | TOTAL FREE ENERGY        -146.043933461494 Eh   |
          | GRADIENT NORM               0.000103210224 Eh/α |
          | HOMO-LUMO GAP               0.695610373490 eV   |
           -------------------------------------------------

 * finished run on 2025/09/07 at 23:17:45.111
