   * xtb version 6.7.1 (edcfbbe) compiled by 'albert@albert-system' on 2024-07-22

   ID    Z sym.   atoms
    1    6 C      1-8, 10-26, 28-43
    2    7 N      9, 27
    3    1 H      44-75

          program call               : xtb data2507/toluene/PtB/PtB.xyz --gfn 2 --gbsa toluene --ohess vtight --parallel 40 --molden --ceasefiles --namespace data2507/toluene/PtB/PtB_toluene_S0_preOpt
      * Solvation model:               GBSA
        Solvent                        toluene
        Solvent mass                       9.2140E+01 g/mol
          :  Hamiltonian                  GFN2-xTB          :
 * total energy  :  -110.0559230 Eh     change       -0.2450335E-08 Eh
 * total energy  :  -110.0664512 Eh     change       -0.1052815E-01 Eh
 * total energy  :  -110.0691974 Eh     change       -0.2746225E-02 Eh
 * total energy  :  -110.0699982 Eh     change       -0.8008073E-03 Eh
 * total energy  :  -110.0706043 Eh     change       -0.6060484E-03 Eh
 * total energy  :  -110.0709203 Eh     change       -0.3160016E-03 Eh
 * total energy  :  -110.0712575 Eh     change       -0.3372518E-03 Eh
 * total energy  :  -110.0716066 Eh     change       -0.3490832E-03 Eh
 * total energy  :  -110.0718895 Eh     change       -0.2829332E-03 Eh
 * total energy  :  -110.0721064 Eh     change       -0.2168929E-03 Eh
 * total energy  :  -110.0740803 Eh     change       -0.1019516E-05 Eh
 * total energy  :  -110.0740814 Eh     change       -0.1091231E-05 Eh
 * total energy  :  -110.0740825 Eh     change       -0.1171878E-05 Eh
 * total energy  :  -110.0740837 Eh     change       -0.1125452E-05 Eh
 * total energy  :  -110.0740847 Eh     change       -0.1060621E-05 Eh
 * total energy  :  -110.0740858 Eh     change       -0.1034451E-05 Eh
 * total energy  :  -110.0740868 Eh     change       -0.1012668E-05 Eh
 * total energy  :  -110.0740877 Eh     change       -0.9221530E-06 Eh
 * total energy  :  -110.0740877 Eh     change       -0.6434547E-08 Eh
   *** GEOMETRY OPTIMIZATION CONVERGED AFTER 68 ITERATIONS ***

 final structure:
================
75
 xtb: 6.7.1 (edcfbbe)
C           -1.04782155603060        6.15184826929915        0.73097815336333
C           -0.15001446469977        5.30171194909408       -0.17297573035766
C            1.31220422324922        5.56803722569617        0.21538709267841
C           -0.38995251202419        5.73167585604627       -1.62786767238740
C           -0.42929907522285        3.81249898207095       -0.04336155774719
C            0.30953594261786        2.90741363672590       -0.80388082045256
C            0.09887859245270        1.54642082514927       -0.71855521522285
C           -0.86571386548190        1.04848086224926        0.14946432225082
N           -1.07307205644770       -0.34109310317333        0.24983350103539
C           -0.11941250900233       -1.30112547376280        0.47281133421310
C            1.27740561189120       -0.99493330220765        0.74686077650427
C            1.58233371991549        0.06451247900758        1.60198378535108
C            2.88639591167410        0.40078045234411        1.89145121508015
C            3.94873266364954       -0.31512293967379        1.33588317297564
C            5.30762246238167        0.01266224757332        1.61330785877850
C            6.32536105427211       -0.69893656157166        1.07558791304973
C            6.07493139065182       -1.80424518215009        0.20990121968432
C            7.10985884707680       -2.55218222026497       -0.35509214969410
C            6.83626714509110       -3.61867281913319       -1.19232023891971
C            5.52971431582786       -3.96408662713208       -1.48589724565903
C            4.46313150967160       -3.24452033453935       -0.94315744581492
C            3.10414693503620       -3.56802977283942       -1.22489967345312
C            2.08306100986642       -2.85870034902797       -0.68931343634888
C            2.32069823583937       -1.75792014466224        0.18542603534969
C            3.66383411969195       -1.40727965325184        0.47861035802211
C            4.73177764229613       -2.15092257143193       -0.08360732908135
N           -0.65237745531797       -2.49872906994279        0.47211855505999
C           -1.98748672010512       -2.34400763978057        0.24392773997927
C           -2.85720455376149       -3.50691539986089        0.14318759696067
C           -2.49634947624819       -4.68136398261993        0.80376595588881
C           -3.29643958809636       -5.80486534942718        0.72546498439834
C           -4.46632479780234       -5.77630674250736       -0.01698994921791
C           -4.82283722461817       -4.61968907754217       -0.69161644491919
C           -4.02449465288112       -3.49338113732284       -0.61879518407951
C           -2.27615781748206       -0.99589065692810        0.10775536290854
C           -3.53510553054336       -0.30011460557383       -0.12902840701908
C           -4.64885461907222       -0.59078741193670        0.65863297525093
C           -5.84610483391306        0.06504416527860        0.44437309777578
C           -5.94889842314597        1.02027883168236       -0.55478535326439
C           -4.84805043019011        1.31322245843197       -1.34256132158543
C           -3.64759019444635        0.65926842658568       -1.13385093398808
C           -1.61432185166981        1.93236186087203        0.91318041965467
C           -1.39595730912285        3.29482082272610        0.81110618629778
H           -2.09755078725581        6.01590894381486        0.48096855893000
H           -0.89449688982260        5.90584100444809        1.77923959712335
H           -0.80417974402759        7.20351057269716        0.59481902406473
H            1.49439638479219        5.24481461121762        1.23847718966448
H            2.00020088217871        5.03718564755198       -0.43671314973292
H            1.52861517967533        6.63187211338658        0.14578273715316
H           -1.41850448376514        5.52455773214794       -1.91700500010848
H           -0.20982710619867        6.79912185804107       -1.73522406001613
H            0.26951780641604        5.20543195283340       -2.31229757557825
H            1.06792862922882        3.26211733315486       -1.48427995253167
H            0.68070014152962        0.86315233091564       -1.32053747215384
H            0.77935520062712        0.62218104118076        2.06216099275516
H            3.09381413616984        1.22286681154472        2.56123132626115
H            5.50354744569875        0.84889029779333        2.26963722546554
H            7.35334535422406       -0.44371504690566        1.29165512672296
H            8.13354746524764       -2.28794337807165       -0.13065991356390
H            7.64993450504303       -4.18647959906708       -1.62059253798709
H            5.32207681604816       -4.79757237324317       -2.14178267707779
H            2.90430058542446       -4.40122498733328       -1.88401559182983
H            1.05906078636893       -3.12640771329605       -0.89849293429915
H           -1.57999289473129       -4.69106430676147        1.37476381034165
H           -3.00805268453998       -6.70708292867304        1.24594025226901
H           -5.09438256842128       -6.65345681495731       -0.07535718207821
H           -5.72673949282732       -4.59606899278680       -1.28376390343135
H           -4.30062218660451       -2.60214432755555       -1.16289100559381
H           -4.56404353836621       -1.33458264952482        1.43811075175183
H           -6.70165840851630       -0.16821523783412        1.06135557511337
H           -6.88517537253021        1.53268803039406       -0.71960500845462
H           -4.92409542321021        2.05227451647588       -2.12689881493642
H           -2.79561420060883        0.88267601549492       -1.76019058892614
H           -2.36391715630019        1.55247225329922        1.59204607274826
H           -1.99753819677605        3.94717906696836        1.42167762463922

          :  Hamiltonian                  GFN2-xTB          :
         :: gradient norm              0.000060050165 Eh/a0 ::
         :: HOMO-LUMO gap              2.099474729881 eV    ::
         :: SCC energy              -112.120343634452 Eh    ::
         :: -> dispersion             -0.104609886674 Eh    ::
         :: -> Gsolv                  -0.044945612938 Eh    ::
         :: repulsion energy           2.046255937814 Eh    ::

    * Orbital Energies and Occupations

         #    Occupation            Energy/Eh            Energy/eV
      -------------------------------------------------------------
         1        2.0000           -0.6866312             -18.6842
       ...           ...                  ...                  ...
        91        2.0000           -0.4150449             -11.2939
        92        2.0000           -0.4121241             -11.2145
        93        2.0000           -0.4107636             -11.1774
        94        2.0000           -0.4095038             -11.1432
        95        2.0000           -0.4064775             -11.0608
        96        2.0000           -0.4058199             -11.0429
        97        2.0000           -0.4037004             -10.9852
        98        2.0000           -0.4002456             -10.8912
        99        2.0000           -0.3933510             -10.7036
       100        2.0000           -0.3921295             -10.6704
       101        2.0000           -0.3777158             -10.2782
       102        2.0000           -0.3722981             -10.1307
       103        2.0000           -0.3578720              -9.7382 (HOMO)
       104                         -0.2807178              -7.6387 (LUMO)
       105                         -0.2498023              -6.7975
       106                         -0.2443198              -6.6483
       107                         -0.2352966              -6.4027
       108                         -0.2328190              -6.3353
       109                         -0.2272146              -6.1828
       110                         -0.2236937              -6.0870
       111                         -0.2211808              -6.0186
       112                         -0.2179891              -5.9318
       113                         -0.2096536              -5.7050
       114                         -0.1910577              -5.1989
       ...                                ...                  ...
       204                          0.7291282              19.8406
      -------------------------------------------------------------
                  HL-Gap            0.0771543 Eh            2.0995 eV

     #   Z          covCN         q      C6AA      α(0)
     1   6 C        3.761    -0.110    22.647     6.784
     2   6 C        3.902     0.027    20.073     6.368
     3   6 C        3.761    -0.107    22.590     6.775
     4   6 C        3.761    -0.107    22.591     6.776
     5   6 C        2.973     0.012    27.732     8.638
     6   6 C        2.928    -0.033    28.813     8.803
     7   6 C        2.920    -0.042    29.040     8.837
     8   6 C        2.913     0.060    26.652     8.465
     9   7 N        2.852    -0.047    22.136     6.988
    10   6 C        3.154     0.134    24.805     8.145
    11   6 C        2.971    -0.010    28.252     8.719
    12   6 C        2.920    -0.037    28.916     8.818
    13   6 C        2.918    -0.039    28.973     8.827
    14   6 C        2.982     0.010    27.784     8.646
    15   6 C        2.913    -0.037    28.917     8.818
    16   6 C        2.913    -0.036    28.895     8.815
    17   6 C        2.982     0.011    27.768     8.644
    18   6 C        2.920    -0.037    28.933     8.821
    19   6 C        2.913    -0.031    28.765     8.795
    20   6 C        2.920    -0.037    28.920     8.819
    21   6 C        2.981     0.011    27.761     8.643
    22   6 C        2.913    -0.036    28.902     8.816
    23   6 C        2.912    -0.037    28.916     8.818
    24   6 C        2.982     0.010    27.796     8.648
    25   6 C        2.994     0.002    27.973     8.676
    26   6 C        2.997     0.002    27.969     8.675
    27   7 N        1.912    -0.320    29.143     8.004
    28   6 C        3.163     0.053    26.482     8.411
    29   6 C        2.973     0.005    27.896     8.664
    30   6 C        2.927    -0.032    28.790     8.799
    31   6 C        2.918    -0.031    28.781     8.797
    32   6 C        2.919    -0.034    28.840     8.807
    33   6 C        2.919    -0.032    28.788     8.799
    34   6 C        2.923    -0.039    28.977     8.828
    35   6 C        3.067     0.017    27.568     8.610
    36   6 C        2.971     0.006    27.879     8.661
    37   6 C        2.925    -0.033    28.825     8.805
    38   6 C        2.918    -0.029    28.716     8.787
    39   6 C        2.920    -0.031    28.775     8.797
    40   6 C        2.918    -0.029    28.737     8.791
    41   6 C        2.924    -0.034    28.837     8.806
    42   6 C        2.920    -0.042    29.033     8.836
    43   6 C        2.926    -0.037    28.931     8.821
    44   1 H        0.925     0.038     2.474     2.460
    45   1 H        0.925     0.038     2.476     2.461
    46   1 H        0.925     0.042     2.428     2.437
    47   1 H        0.925     0.035     2.520     2.483
    48   1 H        0.925     0.039     2.467     2.456
    49   1 H        0.925     0.043     2.409     2.427
    50   1 H        0.925     0.035     2.519     2.482
    51   1 H        0.925     0.043     2.411     2.428
    52   1 H        0.925     0.039     2.469     2.457
    53   1 H        0.926     0.044     2.398     2.422
    54   1 H        0.926     0.031     2.569     2.506
    55   1 H        0.926     0.025     2.658     2.550
    56   1 H        0.926     0.037     2.493     2.469
    57   1 H        0.926     0.036     2.504     2.474
    58   1 H        0.926     0.036     2.498     2.472
    59   1 H        0.926     0.035     2.517     2.481
    60   1 H        0.926     0.034     2.533     2.489
    61   1 H        0.926     0.034     2.526     2.485
    62   1 H        0.926     0.034     2.524     2.484
    63   1 H        0.926     0.045     2.379     2.412
    64   1 H        0.926     0.042     2.427     2.436
    65   1 H        0.926     0.031     2.569     2.507
    66   1 H        0.926     0.031     2.575     2.509
    67   1 H        0.926     0.029     2.594     2.519
    68   1 H        0.926     0.024     2.679     2.560
    69   1 H        0.926     0.029     2.605     2.524
    70   1 H        0.926     0.035     2.512     2.478
    71   1 H        0.926     0.036     2.505     2.475
    72   1 H        0.926     0.034     2.524     2.485
    73   1 H        0.926     0.025     2.653     2.547
    74   1 H        0.926     0.034     2.530     2.487
    75   1 H        0.926     0.051     2.309     2.376

molecular dipole:
                 x           y           z       tot (Debye)
 q only:        0.323       1.800      -0.163
   full:        0.110       2.049      -0.196       5.239

 projected vibrational frequencies (cm⁻¹)
eigval :       -0.00    -0.00    -0.00     0.00     0.00     0.00
eigval :       13.79    19.01    22.64    25.10    29.31    31.36
eigval :       34.02    54.54    62.98    69.09    76.68    94.54
eigval :      104.63   111.89   116.18   152.76   171.02   173.51
eigval :      180.22   196.34   202.45   204.23   223.76   227.82
eigval :      238.33   246.13   257.59   270.71   294.63   312.12
eigval :      315.82   333.90   346.80   359.08   370.80   372.51
eigval :      376.53   384.99   389.23   399.77   410.82   437.91
eigval :      443.19   454.78   456.78   470.03   476.43   478.45
eigval :      482.37   496.99   502.05   514.03   523.89   543.45
eigval :      569.70   575.65   587.24   587.76   606.22   608.82
eigval :      628.83   645.34   652.79   655.41   666.99   671.34
eigval :      674.94   680.09   683.85   696.28   700.80   718.31
eigval :      741.12   754.72   756.86   762.96   768.92   770.33
eigval :      801.07   816.65   818.80   832.24   835.75   850.45
eigval :      868.84   875.80   877.13   881.54   883.27   900.69
eigval :      901.58   913.14   914.58   918.48   919.59   923.67
eigval :      926.94   927.24   928.63   929.98   930.98   942.90
eigval :      960.04   961.85   965.40   966.65   977.35   995.76
eigval :     1006.68  1025.03  1035.08  1035.28  1075.54  1081.55
eigval :     1082.84  1110.77  1118.19  1119.25  1119.92  1132.51
eigval :     1140.41  1147.97  1160.51  1172.50  1179.14  1179.89
eigval :     1184.68  1194.85  1196.61  1199.96  1202.23  1212.73
eigval :     1218.80  1225.66  1226.62  1232.10  1237.53  1261.21
eigval :     1272.55  1275.54  1280.89  1283.18  1288.61  1308.17
eigval :     1313.87  1314.70  1317.26  1319.93  1330.87  1357.08
eigval :     1366.93  1385.96  1389.72  1397.95  1402.72  1403.15
eigval :     1410.15  1410.48  1415.70  1427.05  1428.35  1433.10
eigval :     1448.22  1453.19  1482.43  1486.95  1487.39  1489.69
eigval :     1491.00  1493.02  1499.57  1503.60  1510.07  1515.85
eigval :     1527.46  1544.35  1557.55  1560.91  1572.12  1576.56
eigval :     1577.28  1579.72  1596.03  1598.13  1600.47  1601.25
eigval :     1605.39  3023.31  3023.57  3026.84  3027.62  3031.04
eigval :     3033.08  3038.30  3046.16  3049.69  3063.39  3065.57
eigval :     3066.06  3068.18  3068.59  3070.38  3070.86  3071.56
eigval :     3072.45  3076.41  3077.11  3078.62  3080.42  3081.80
eigval :     3082.49  3083.05  3084.67  3087.74  3092.37  3094.72
eigval :     3096.54  3102.88  3120.73

   temp. (K)  partition function   enthalpy   heat capacity  entropy
                                   cal/mol     cal/K/mol   cal/K/mol   J/K/mol
 298.15  VIB  0.374E+16            20524.718    130.664    125.861
         ROT  0.585E+08              888.752      2.981     38.521
         INT  0.219E+24            21413.471    133.645    164.382
         TR   0.126E+29             1481.254      4.968     44.794
         TOT                       22894.7246   138.6133   209.1759   875.1920

       T/K    H(0)-H(T)+PV         H(T)/Eh          T*S/Eh         G(T)/Eh
   ------------------------------------------------------------------------
    298.15    0.364851E-01    0.632077E+00    0.993862E-01    0.532691E+00
   ------------------------------------------------------------------------

         :::::::::::::::::::::::::::::::::::::::::::::::::::::
         ::                  THERMODYNAMIC                  ::
         :::::::::::::::::::::::::::::::::::::::::::::::::::::
         :: total free energy        -109.541396861110 Eh   ::
         ::.................................................::
         :: total energy             -110.074087695593 Eh   ::
         :: zero point energy           0.595591996781 Eh   ::
         :: G(RRHO) w/o ZPVE           -0.062901162297 Eh   ::
         :: G(RRHO) contrib.            0.532690834484 Eh   ::
         :::::::::::::::::::::::::::::::::::::::::::::::::::::

           -------------------------------------------------
          | TOTAL ENERGY             -110.074087695593 Eh   |
          | TOTAL ENTHALPY           -109.442010632807 Eh   |
          | TOTAL FREE ENERGY        -109.541396861110 Eh   |
          | GRADIENT NORM               0.000060042845 Eh/α |
          | HOMO-LUMO GAP               2.099474715476 eV   |
           -------------------------------------------------

 * finished run on 2025/08/24 at 03:50:08.944
