   * xtb version 6.7.1 (edcfbbe) compiled by 'albert@albert-system' on 2024-07-22

   ID    Z sym.   atoms
    1    6 C      1-8, 10-26, 28-43
    2    7 N      9, 27
    3    1 H      44-75

          program call               : xtb data2507/toluene/PtB/PtB_toluene_S0_crest.xyz --gfn 2 --gbsa toluene --ohess vtight --parallel 40 --molden --ceasefiles --namespace data2507/toluene/PtB/PtB_toluene_S0_finalOpt
      * Solvation model:               GBSA
        Solvent                        toluene
        Solvent mass                       9.2140E+01 g/mol
          :  Hamiltonian                  GFN2-xTB          :
 * total energy  :  -110.0723522 Eh     change       -0.3272248E-08 Eh
 * total energy  :  -110.0724225 Eh     change       -0.7029843E-04 Eh
 * total energy  :  -110.0725033 Eh     change       -0.8078079E-04 Eh
 * total energy  :  -110.0725433 Eh     change       -0.4000159E-04 Eh
 * total energy  :  -110.0726019 Eh     change       -0.5864770E-04 Eh
 * total energy  :  -110.0726576 Eh     change       -0.5566517E-04 Eh
 * total energy  :  -110.0727118 Eh     change       -0.5422999E-04 Eh
 * total energy  :  -110.0727482 Eh     change       -0.3638278E-04 Eh
 * total energy  :  -110.0728007 Eh     change       -0.5244488E-04 Eh
 * total energy  :  -110.0728435 Eh     change       -0.4280142E-04 Eh
 * total energy  :  -110.0733941 Eh     change       -0.1559031E-05 Eh
 * total energy  :  -110.0733954 Eh     change       -0.1302919E-05 Eh
 * total energy  :  -110.0733965 Eh     change       -0.1167289E-05 Eh
 * total energy  :  -110.0733978 Eh     change       -0.1256453E-05 Eh
 * total energy  :  -110.0733992 Eh     change       -0.1371430E-05 Eh
 * total energy  :  -110.0734004 Eh     change       -0.1209649E-05 Eh
 * total energy  :  -110.0734013 Eh     change       -0.8731531E-06 Eh
 * total energy  :  -110.0734020 Eh     change       -0.7611869E-06 Eh
 * total energy  :  -110.0734020 Eh     change       -0.6485365E-08 Eh
   *** GEOMETRY OPTIMIZATION CONVERGED AFTER 44 ITERATIONS ***

 final structure:
================
75
 xtb: 6.7.1 (edcfbbe)
C            2.87693888914773        4.99240491483358       -0.32899184597084
C            2.91180353012663        3.90159042077933        0.74556739480392
C            2.78694821895218        4.57831765739095        2.11894220699072
C            4.25910721030882        3.17090912229265        0.64387461372121
C            1.78980435653979        2.88748658081977        0.58788849978388
C            0.84595391731667        2.95378093405976       -0.43048514851949
C           -0.15232306797190        2.00457625833264       -0.55259617382485
C           -0.23773164282689        0.96094801530467        0.35794701866175
N           -1.23892100861859       -0.02191253666147        0.23429147837865
C           -1.05410838544629       -1.38003724748934        0.25894457919956
C            0.24160067456117       -2.02303107236547        0.44811317550272
C            0.36062321762676       -2.96121789657824        1.47116255637306
C            1.57747409901996       -3.53392077137575        1.77439992963258
C            2.72887793652967       -3.17606037054982        1.06871009373942
C            4.01201919666719       -3.70508738379293        1.39450928200523
C            5.11618364772914       -3.35027057619889        0.69698823383613
C            5.03563500044166       -2.44428915786814       -0.40180505246479
C            6.16020785754171       -2.06973067024592       -1.13996605503675
C            6.04696676114080       -1.19825711519478       -2.20807074965526
C            4.81451962255809       -0.68471663175634       -2.56909363562475
C            3.66374363698236       -1.02815885792750       -1.85699085249818
C            2.37213661199052       -0.54661024190196       -2.21839589109284
C            1.27259354858225       -0.87305622773618       -1.50049806849402
C            1.35794835065410       -1.70556197438571       -0.34563466873334
C            2.61715414891050       -2.26407410468395       -0.01057710975181
C            3.77020028251924       -1.91162996787575       -0.75467944371422
N           -2.19080319709137       -2.01633409509704        0.13599331389082
C           -3.16551053111077       -1.06740213544889        0.01720288928928
C           -4.56369435407871       -1.45602963618592       -0.09816005985971
C           -4.88038822736822       -2.69419034016726       -0.65687828557991
C           -6.19720295378830       -3.09629578869382       -0.77152889405475
C           -7.21855533640383       -2.27153353431682       -0.32758034319029
C           -6.91224514233309       -1.04735037773867        0.24469147329378
C           -5.59620949225375       -0.64125796123560        0.36386994072524
C           -2.59073207121767        0.19146871486568        0.07070282840978
C           -3.17955530479214        1.52241060648878       -0.01195929312317
C           -2.86575103895853        2.50408245347643        0.92671931630742
C           -3.42947374906859        3.76331198307982        0.83429736621388
C           -4.31142338179721        4.05987258973856       -0.19172045995073
C           -4.63140387078249        3.08819876910756       -1.12702381336968
C           -4.06958651818563        1.82856192238557       -1.04118809929752
C            0.68778293105386        0.88512433660351        1.39121490819455
C            1.68510498999628        1.83339309966158        1.49330920890947
H            2.98877837310497        4.56611020899483       -1.32321203275075
H            1.94919013195500        5.55825035718489       -0.28358730125947
H            3.70047330496236        5.68478558432500       -0.16672207881642
H            1.82146791619502        5.07252455641668        2.20863247247818
H            2.87818540293504        3.85801818591908        2.92705785332946
H            3.56914378659871        5.32476017137625        2.23889598708832
H            4.34792340928690        2.67746118098523       -0.32180711727505
H            5.07673325394805        3.88127038431943        0.74551370112568
H            4.36367426424482        2.41734108671642        1.41947900569437
H            0.87603220404850        3.74742650584578       -1.15809890316067
H           -0.86509535181022        2.07176622604271       -1.36154930128670
H           -0.52288713195293       -3.21792186865557        2.03751914247279
H            1.65094703012718       -4.25157581308624        2.57881361060073
H            4.07918087608592       -4.39902772881479        2.22048789989044
H            6.08553177164344       -3.75272671170131        0.95545527829761
H            7.12591790310047       -2.47152034014734       -0.86819036853834
H            6.92816967192624       -0.92035943597375       -2.76844017632750
H            4.73194686130814       -0.01131385801752       -3.41036897318503
H            2.28770113425591        0.08225627184693       -3.09347596932323
H            0.29919127714747       -0.52845488221323       -1.81677086300832
H           -4.07461847588262       -3.32905580734148       -0.99376674369410
H           -6.42952405808704       -4.05661000509472       -1.20967346361243
H           -8.24855212090019       -2.58439617378857       -0.41970304448750
H           -7.70385988994231       -0.40624262849321        0.60599391545717
H           -5.36553106966083        0.30640818232171        0.82796078854761
H           -2.18765240354590        2.27445036653160        1.73642668689827
H           -3.18067052121573        4.51482081338877        1.56948807928041
H           -4.75016722855698        5.04426800232569       -0.26179022369575
H           -5.31928932943165        3.31347325598018       -1.92898233456616
H           -4.31460425638663        1.06915028025857       -1.77002464501388
H            0.62293098941588        0.08260368073352        2.11152047131984
H            2.39125357917536        1.74174730743024        2.30393285916163

          :  Hamiltonian                  GFN2-xTB          :
         :: gradient norm              0.000058676093 Eh/a0 ::
         :: HOMO-LUMO gap              2.111916771389 eV    ::
         :: SCC energy              -112.120801033207 Eh    ::
         :: -> dispersion             -0.106960947270 Eh    ::
         :: -> Gsolv                  -0.044707907803 Eh    ::
         :: repulsion energy           2.047399008142 Eh    ::

    * Orbital Energies and Occupations

         #    Occupation            Energy/Eh            Energy/eV
      -------------------------------------------------------------
         1        2.0000           -0.6864614             -18.6796
       ...           ...                  ...                  ...
        91        2.0000           -0.4142449             -11.2722
        92        2.0000           -0.4131978             -11.2437
        93        2.0000           -0.4110140             -11.1843
        94        2.0000           -0.4100640             -11.1584
        95        2.0000           -0.4092603             -11.1365
        96        2.0000           -0.4073815             -11.0854
        97        2.0000           -0.4041681             -10.9980
        98        2.0000           -0.4000412             -10.8857
        99        2.0000           -0.3953068             -10.7568
       100        2.0000           -0.3911955             -10.6450
       101        2.0000           -0.3779822             -10.2854
       102        2.0000           -0.3723296             -10.1316
       103        2.0000           -0.3598435              -9.7918 (HOMO)
       104                         -0.2822320              -7.6799 (LUMO)
       105                         -0.2500871              -6.8052
       106                         -0.2457308              -6.6867
       107                         -0.2349814              -6.3942
       108                         -0.2321252              -6.3164
       109                         -0.2268271              -6.1723
       110                         -0.2239035              -6.0927
       111                         -0.2229328              -6.0663
       112                         -0.2178118              -5.9270
       113                         -0.2099394              -5.7127
       114                         -0.1912084              -5.2030
       ...                                ...                  ...
       204                          0.7265001              19.7691
      -------------------------------------------------------------
                  HL-Gap            0.0776115 Eh            2.1119 eV

     #   Z          covCN         q      C6AA      α(0)
     1   6 C        3.761    -0.110    22.649     6.784
     2   6 C        3.902     0.027    20.072     6.368
     3   6 C        3.761    -0.107    22.591     6.776
     4   6 C        3.761    -0.106    22.572     6.773
     5   6 C        2.973     0.012    27.741     8.639
     6   6 C        2.926    -0.038    28.935     8.821
     7   6 C        2.921    -0.040    29.004     8.832
     8   6 C        2.913     0.060    26.646     8.465
     9   7 N        2.850    -0.047    22.137     6.988
    10   6 C        3.163     0.136    24.732     8.128
    11   6 C        2.973    -0.008    28.214     8.713
    12   6 C        2.922    -0.032    28.800     8.801
    13   6 C        2.918    -0.038    28.937     8.821
    14   6 C        2.982     0.011    27.771     8.644
    15   6 C        2.913    -0.036    28.900     8.815
    16   6 C        2.913    -0.036    28.893     8.814
    17   6 C        2.981     0.012    27.748     8.641
    18   6 C        2.920    -0.037    28.909     8.817
    19   6 C        2.913    -0.030    28.753     8.793
    20   6 C        2.920    -0.037    28.912     8.818
    21   6 C        2.982     0.011    27.764     8.643
    22   6 C        2.913    -0.036    28.906     8.816
    23   6 C        2.912    -0.036    28.889     8.814
    24   6 C        2.982     0.005    27.910     8.666
    25   6 C        2.996     0.002    27.964     8.674
    26   6 C        2.997     0.003    27.953     8.673
    27   7 N        1.909    -0.323    29.213     8.014
    28   6 C        3.168     0.053    26.461     8.405
    29   6 C        2.973     0.006    27.893     8.663
    30   6 C        2.927    -0.032    28.791     8.799
    31   6 C        2.918    -0.031    28.783     8.798
    32   6 C        2.919    -0.034    28.844     8.807
    33   6 C        2.919    -0.032    28.790     8.799
    34   6 C        2.923    -0.039    28.977     8.828
    35   6 C        3.068     0.016    27.590     8.613
    36   6 C        2.971     0.006    27.879     8.661
    37   6 C        2.924    -0.033    28.834     8.806
    38   6 C        2.918    -0.029    28.736     8.791
    39   6 C        2.919    -0.031    28.778     8.797
    40   6 C        2.918    -0.029    28.717     8.788
    41   6 C        2.925    -0.033    28.832     8.806
    42   6 C        2.920    -0.043    29.073     8.842
    43   6 C        2.928    -0.033    28.826     8.805
    44   1 H        0.925     0.038     2.473     2.459
    45   1 H        0.925     0.038     2.469     2.457
    46   1 H        0.925     0.042     2.425     2.435
    47   1 H        0.925     0.035     2.515     2.480
    48   1 H        0.925     0.038     2.471     2.458
    49   1 H        0.925     0.043     2.408     2.427
    50   1 H        0.925     0.034     2.531     2.488
    51   1 H        0.925     0.043     2.403     2.424
    52   1 H        0.925     0.037     2.487     2.466
    53   1 H        0.926     0.051     2.303     2.373
    54   1 H        0.926     0.034     2.524     2.485
    55   1 H        0.926     0.037     2.494     2.470
    56   1 H        0.926     0.040     2.455     2.450
    57   1 H        0.926     0.037     2.490     2.467
    58   1 H        0.926     0.037     2.483     2.464
    59   1 H        0.926     0.036     2.496     2.471
    60   1 H        0.926     0.035     2.513     2.479
    61   1 H        0.926     0.035     2.520     2.483
    62   1 H        0.926     0.034     2.524     2.484
    63   1 H        0.926     0.022     2.696     2.568
    64   1 H        0.926     0.041     2.434     2.440
    65   1 H        0.926     0.031     2.570     2.507
    66   1 H        0.926     0.031     2.575     2.509
    67   1 H        0.926     0.029     2.593     2.518
    68   1 H        0.926     0.023     2.681     2.561
    69   1 H        0.926     0.025     2.660     2.550
    70   1 H        0.926     0.034     2.526     2.485
    71   1 H        0.926     0.036     2.506     2.476
    72   1 H        0.926     0.035     2.513     2.479
    73   1 H        0.926     0.028     2.610     2.526
    74   1 H        0.926     0.031     2.574     2.509
    75   1 H        0.926     0.043     2.413     2.429

molecular dipole:
                 x           y           z       tot (Debye)
 q only:        1.588       1.371       0.080
   full:        1.540       1.643       0.105       5.731

 projected vibrational frequencies (cm⁻¹)
eigval :       -0.00    -0.00    -0.00    -0.00    -0.00     0.00
eigval :      -24.80    17.63    19.61    22.98    27.17    33.03
eigval :       40.25    55.31    66.38    77.62    84.61    91.64
eigval :      103.92   105.40   119.81   152.14   166.81   176.36
eigval :      183.71   194.65   202.58   215.92   224.15   227.05
eigval :      238.76   246.60   257.31   271.03   293.04   311.44
eigval :      320.43   335.19   346.77   362.72   365.14   373.64
eigval :      378.04   386.05   388.35   395.88   405.47   433.64
eigval :      445.94   452.86   460.94   469.30   473.00   479.05
eigval :      485.67   495.53   503.93   516.46   524.00   545.84
eigval :      566.88   575.59   586.47   589.81   600.15   607.25
eigval :      633.89   642.88   654.20   655.95   666.48   672.69
eigval :      675.78   679.16   686.66   695.98   696.57   722.73
eigval :      738.89   754.62   757.28   761.16   769.37   774.25
eigval :      801.19   819.14   824.19   836.58   840.40   854.51
eigval :      870.54   873.79   878.58   883.02   883.71   897.98
eigval :      902.62   917.01   918.04   923.99   925.10   927.86
eigval :      928.33   928.95   929.60   931.93   933.99   942.66
eigval :      960.66   962.07   964.75   966.99   977.04   994.55
eigval :     1007.77  1024.71  1034.38  1037.29  1076.34  1081.39
eigval :     1082.95  1108.17  1117.28  1119.32  1120.89  1131.37
eigval :     1141.89  1151.10  1161.19  1169.54  1179.63  1180.25
eigval :     1181.85  1193.21  1197.23  1200.20  1202.26  1210.47
eigval :     1218.58  1223.01  1225.80  1231.84  1239.12  1259.62
eigval :     1270.22  1278.22  1281.40  1282.84  1289.13  1308.51
eigval :     1313.79  1314.47  1319.01  1319.98  1338.82  1357.58
eigval :     1363.35  1386.49  1391.68  1398.23  1401.87  1404.93
eigval :     1410.91  1411.83  1415.06  1427.51  1428.17  1432.63
eigval :     1448.80  1453.80  1482.33  1487.28  1487.47  1490.14
eigval :     1491.53  1492.94  1499.56  1504.59  1510.96  1516.29
eigval :     1537.80  1543.91  1558.66  1560.62  1573.49  1576.97
eigval :     1577.39  1579.93  1595.87  1597.88  1602.30  1603.30
eigval :     1604.93  3022.99  3024.42  3027.02  3030.33  3031.99
eigval :     3034.87  3038.86  3046.22  3049.80  3065.04  3065.69
eigval :     3067.13  3068.23  3069.20  3070.27  3071.61  3072.98
eigval :     3073.37  3077.78  3078.68  3079.58  3080.39  3082.15
eigval :     3082.97  3084.08  3086.48  3087.16  3089.27  3091.72
eigval :     3093.88  3096.34  3120.34

   temp. (K)  partition function   enthalpy   heat capacity  entropy
                                   cal/mol     cal/K/mol   cal/K/mol   J/K/mol
 298.15  VIB  0.228E+15            19916.730    129.788    120.899
         ROT  0.490E+08              888.752      2.981     38.171
         INT  0.112E+23            20805.482    132.769    159.070
         TR   0.126E+29             1481.254      4.968     44.794
         TOT                       22286.7363   137.7373   203.8641   852.9672

       T/K    H(0)-H(T)+PV         H(T)/Eh          T*S/Eh         G(T)/Eh
   ------------------------------------------------------------------------
    298.15    0.355162E-01    0.631325E+00    0.968624E-01    0.534463E+00
   ------------------------------------------------------------------------

         :::::::::::::::::::::::::::::::::::::::::::::::::::::
         ::                  THERMODYNAMIC                  ::
         :::::::::::::::::::::::::::::::::::::::::::::::::::::
         :: total free energy        -109.538938935297 Eh   ::
         ::.................................................::
         :: total energy             -110.073402023847 Eh   ::
         :: zero point energy           0.595809306860 Eh   ::
         :: G(RRHO) w/o ZPVE           -0.061346218310 Eh   ::
         :: G(RRHO) contrib.            0.534463088549 Eh   ::
         :::::::::::::::::::::::::::::::::::::::::::::::::::::

           -------------------------------------------------
          | TOTAL ENERGY             -110.073402023847 Eh   |
          | TOTAL ENTHALPY           -109.442076542002 Eh   |
          | TOTAL FREE ENERGY        -109.538938935297 Eh   |
          | GRADIENT NORM               0.000058672896 Eh/α |
          | HOMO-LUMO GAP               2.111917156441 eV   |
           -------------------------------------------------

 * finished run on 2025/08/24 at 03:53:43.978
