   * xtb version 6.7.1 (edcfbbe) compiled by 'albert@albert-system' on 2024-07-22

   ID    Z sym.   atoms
    1    6 C      1-8, 10-26, 28-43
    2    7 N      9, 27
    3    1 H      44-75

          program call               : xtb data2507/toluene/PtB/PtB_toluene_S0_finalOpt.xtbopt.xyz --gfn 2 --uhf 2 --gbsa toluene --ohess vtight --parallel 40 --molden --ceasefiles --namespace data2507/toluene/PtB/PtB_toluene_T1_preOpt
      * Solvation model:               GBSA
        Solvent                        toluene
        Solvent mass                       9.2140E+01 g/mol
          :  Hamiltonian                  GFN2-xTB          :
 * total energy  :  -109.9918933 Eh     change       -0.1132095E-07 Eh
 * total energy  :  -109.9983234 Eh     change       -0.6430105E-02 Eh
 * total energy  :  -110.0000368 Eh     change       -0.1713404E-02 Eh
 * total energy  :  -110.0002631 Eh     change       -0.2263616E-03 Eh
 * total energy  :  -110.0005502 Eh     change       -0.2870923E-03 Eh
 * total energy  :  -110.0007243 Eh     change       -0.1740921E-03 Eh
 * total energy  :  -110.0008612 Eh     change       -0.1369331E-03 Eh
 * total energy  :  -110.0009561 Eh     change       -0.9488538E-04 Eh
 * total energy  :  -110.0010295 Eh     change       -0.7335875E-04 Eh
 * total energy  :  -110.0010963 Eh     change       -0.6685205E-04 Eh
 * total energy  :  -110.0021741 Eh     change       -0.2715854E-06 Eh
 * total energy  :  -110.0021744 Eh     change       -0.2985708E-06 Eh
 * total energy  :  -110.0021748 Eh     change       -0.3552600E-06 Eh
 * total energy  :  -110.0021751 Eh     change       -0.3584514E-06 Eh
 * total energy  :  -110.0021754 Eh     change       -0.2795414E-06 Eh
 * total energy  :  -110.0021756 Eh     change       -0.1779094E-06 Eh
 * total energy  :  -110.0021757 Eh     change       -0.1246031E-06 Eh
 * total energy  :  -110.0021758 Eh     change       -0.1118757E-06 Eh
 * total energy  :  -110.0021759 Eh     change       -0.9932555E-07 Eh
   *** GEOMETRY OPTIMIZATION CONVERGED AFTER 88 ITERATIONS ***

 final structure:
================
75
 xtb: 6.7.1 (edcfbbe)
C            2.71680240956602        5.14060399511858       -0.29646211487898
C            2.84748307644382        3.95655506640517        0.66652329394664
C            2.73132250155554        4.49340460383353        2.10145848853300
C            4.22931246167751        3.31991889624702        0.45894159783473
C            1.77497944917578        2.90120722029398        0.44648809474408
C            0.80582986384225        3.00249993991870       -0.54539079516985
C           -0.16422946874564        2.03110988306046       -0.70913205534942
C           -0.19466922627028        0.92601065299345        0.13085792424128
N           -1.19968242380873       -0.05047651137391       -0.00370262829619
C           -1.04441611254249       -1.43124922074389        0.02911931797329
C            0.17001156285856       -2.15816771703752        0.08271507722965
C            0.15113368434088       -3.38364470302438        0.79265457578090
C            1.29966838238065       -4.01967728549369        1.14080196929686
C            2.57955312656537       -3.49770127159233        0.75511343222131
C            3.77301074786292       -4.09266327978359        1.15824851107400
C            4.99684955143367       -3.60369254314179        0.72999242498293
C            5.06695432511638       -2.52886435778048       -0.16809498972763
C            6.30113171191492       -2.03924070605415       -0.66381488509179
C            6.33434216389976       -0.99943792426159       -1.57518685577477
C            5.16855416124384       -0.42250499893331       -2.03323743076468
C            3.90537870000301       -0.87078841420818       -1.56296531363771
C            2.69880294711439       -0.34518333032578       -2.03635911558406
C            1.48312081663225       -0.77364535284637       -1.52511576614453
C            1.41947391862319       -1.72508492974281       -0.50859189416253
C            2.61772079584075       -2.37058430896486       -0.10848621581357
C            3.86171967748988       -1.91980804489870       -0.60799409007412
N           -2.23635560742639       -2.02532254759976        0.05128052629513
C           -3.16960123941502       -1.05851309271113        0.00382584808034
C           -4.58740224918606       -1.38455596577522        0.02377805284049
C           -5.01149414527457       -2.59172444030113       -0.53316498988445
C           -6.34915707012151       -2.93605944479211       -0.52339065192666
C           -7.28254194432889       -2.08577732549867        0.04879980648683
C           -6.86719683333871       -0.89474866019820        0.62285986193619
C           -5.53034221552720       -0.54360245321743        0.61436837963931
C           -2.54930817554867        0.19834406929221       -0.02537885252194
C           -3.13819847592886        1.52622759051960       -0.05730474311156
C           -2.73952708478394        2.51772967944479        0.84119647706427
C           -3.31945026971081        3.77135828684774        0.79718394478924
C           -4.29934761181509        4.05692108619339       -0.14020602924537
C           -4.70674118384675        3.07578360176568       -1.03120188264571
C           -4.13478151533076        1.81916154787008       -0.99136950366393
C            0.76893581137879        0.80375935407876        1.12495457046936
C            1.73696551878145        1.77655018780406        1.26868940804964
H            2.82338808294255        4.81937740117772       -1.32995668202058
H            1.75926396361210        5.64164091123544       -0.17396762419201
H            3.50358256462773        5.86282630272285       -0.08841049316902
H            1.73887545589914        4.90710117298638        2.26965705925894
H            2.90462281864249        3.71069403195797        2.83452119631748
H            3.46484152145065        5.27989159222796        2.26508487632627
H            4.33312645541925        2.97376362593219       -0.56678460433243
H            5.00997550138275        4.05168418507334        0.65585444925108
H            4.38177576644186        2.47058399930994        1.11922669214457
H            0.79085064687371        3.84512360255455       -1.21621251549499
H           -0.89827183916735        2.12910160668830       -1.49562975361649
H           -0.81098244169181       -3.75037140863588        1.11823479607806
H            1.27224710563599       -4.92067107294823        1.73550677516425
H            3.73667225307814       -4.95156293637219        1.81359474538438
H            5.91251863217651       -4.06605362577372        1.06978657895279
H            7.21738158698339       -2.49872408712354       -0.32346926664901
H            7.28708510202102       -0.64272979554358       -1.94127635074322
H            5.19827761344310        0.37539622727956       -2.76049562548914
H            2.71707246447335        0.41078028519358       -2.80799165902602
H            0.57007513056657       -0.37252161935883       -1.93837974916554
H           -4.27230997198377       -3.24509690608555       -0.97148354871833
H           -6.66672808638648       -3.87030015411135       -0.96355147872904
H           -8.32890440015963       -2.35376782811777        0.05467295274326
H           -7.58892515136045       -0.23645161509920        1.08458831330694
H           -5.21265705479837        0.37662419573353        1.08155425948310
H           -1.98857616741942        2.29606469016132        1.58555075550958
H           -3.00575070516714        4.52845726910383        1.50080814104081
H           -4.74740548506843        5.03877686967216       -0.17384082260458
H           -5.47222258706257        3.29135593586554       -1.76204551050809
H           -4.44810103669846        1.05403514291579       -1.68690617237055
H            0.75066500021665       -0.05040170660248        1.78640161917856
H            2.47171413751937        1.64897934133594        2.04848380399860

          :  Hamiltonian                  GFN2-xTB          :
         :: gradient norm              0.000054243115 Eh/a0 ::
         :: HOMO-LUMO gap              0.900113215127 eV    ::
         :: SCC energy              -112.032515008980 Eh    ::
         :: -> dispersion             -0.108061441424 Eh    ::
         :: -> Gsolv                  -0.043657118658 Eh    ::
         :: repulsion energy           2.030339074368 Eh    ::

    * Orbital Energies and Occupations

         #    Occupation            Energy/Eh            Energy/eV
      -------------------------------------------------------------
         1        2.0000           -0.6910770             -18.8052
       ...           ...                  ...                  ...
        92        2.0000           -0.4132007             -11.2438
        93        2.0000           -0.4118065             -11.2058
        94        2.0000           -0.4080947             -11.1048
        95        2.0000           -0.4057469             -11.0409
        96        2.0000           -0.4051656             -11.0251
        97        2.0000           -0.4038140             -10.9883
        98        2.0000           -0.4001123             -10.8876
        99        2.0000           -0.3947777             -10.7424
       100        2.0000           -0.3905983             -10.6287
       101        2.0000           -0.3817674             -10.3884
       102        2.0000           -0.3750554             -10.2058
       103        1.0000           -0.3498656              -9.5203
       104        1.0000           -0.2878132              -7.8318 (HOMO)
       105                         -0.2547346              -6.9317 (LUMO)
       106                         -0.2398968              -6.5279
       107                         -0.2351665              -6.3992
       108                         -0.2341301              -6.3710
       109                         -0.2292477              -6.2381
       110                         -0.2270818              -6.1792
       111                         -0.2234156              -6.0794
       112                         -0.2229367              -6.0664
       113                         -0.2116153              -5.7583
       114                         -0.1876860              -5.1072
       115                         -0.1675745              -4.5599
       ...                                ...                  ...
       204                          0.7282582              19.8169
      -------------------------------------------------------------
                  HL-Gap            0.0330786 Eh            0.9001 eV

     #   Z          covCN         q      C6AA      α(0)
     1   6 C        3.761    -0.110    22.649     6.784
     2   6 C        3.902     0.027    20.069     6.368
     3   6 C        3.761    -0.107    22.592     6.776
     4   6 C        3.761    -0.106    22.562     6.771
     5   6 C        2.972     0.013    27.724     8.637
     6   6 C        2.926    -0.037    28.921     8.819
     7   6 C        2.920    -0.041    29.007     8.832
     8   6 C        2.913     0.061    26.627     8.461
     9   7 N        2.834    -0.047    22.150     6.990
    10   6 C        3.137     0.135    24.838     8.157
    11   6 C        2.969    -0.020    28.498     8.756
    12   6 C        2.918    -0.032    28.793     8.799
    13   6 C        2.912    -0.045    29.105     8.846
    14   6 C        2.978     0.008    27.841     8.655
    15   6 C        2.915    -0.041    29.008     8.832
    16   6 C        2.916    -0.042    29.031     8.835
    17   6 C        2.977     0.009    27.810     8.650
    18   6 C        2.918    -0.043    29.058     8.840
    19   6 C        2.907    -0.030    28.750     8.792
    20   6 C        2.917    -0.042    29.052     8.839
    21   6 C        2.978     0.009    27.805     8.650
    22   6 C        2.916    -0.043    29.060     8.840
    23   6 C        2.916    -0.041    29.019     8.834
    24   6 C        2.975     0.003    27.951     8.672
    25   6 C        2.994     0.001    28.000     8.680
    26   6 C        2.997     0.000    28.009     8.681
    27   7 N        1.904    -0.319    29.108     7.999
    28   6 C        3.147     0.068    26.216     8.376
    29   6 C        2.973     0.006    27.876     8.661
    30   6 C        2.927    -0.029    28.715     8.788
    31   6 C        2.918    -0.029    28.730     8.790
    32   6 C        2.919    -0.030    28.745     8.792
    33   6 C        2.918    -0.030    28.743     8.792
    34   6 C        2.923    -0.036    28.887     8.814
    35   6 C        3.055     0.028    27.326     8.573
    36   6 C        2.971     0.006    27.889     8.662
    37   6 C        2.923    -0.032    28.789     8.799
    38   6 C        2.918    -0.028    28.699     8.785
    39   6 C        2.919    -0.029    28.725     8.789
    40   6 C        2.918    -0.027    28.686     8.783
    41   6 C        2.925    -0.032    28.787     8.799
    42   6 C        2.920    -0.041    29.024     8.835
    43   6 C        2.928    -0.032    28.805     8.802
    44   1 H        0.925     0.038     2.475     2.460
    45   1 H        0.925     0.039     2.463     2.454
    46   1 H        0.925     0.042     2.424     2.435
    47   1 H        0.925     0.035     2.513     2.479
    48   1 H        0.925     0.038     2.471     2.458
    49   1 H        0.925     0.043     2.409     2.427
    50   1 H        0.925     0.035     2.520     2.482
    51   1 H        0.925     0.043     2.407     2.426
    52   1 H        0.925     0.036     2.500     2.472
    53   1 H        0.926     0.052     2.291     2.367
    54   1 H        0.926     0.035     2.513     2.479
    55   1 H        0.926     0.043     2.409     2.427
    56   1 H        0.926     0.033     2.540     2.492
    57   1 H        0.926     0.031     2.571     2.508
    58   1 H        0.926     0.031     2.572     2.508
    59   1 H        0.926     0.030     2.586     2.515
    60   1 H        0.926     0.030     2.588     2.516
    61   1 H        0.926     0.029     2.602     2.522
    62   1 H        0.926     0.029     2.606     2.524
    63   1 H        0.926     0.019     2.747     2.592
    64   1 H        0.926     0.044     2.391     2.418
    65   1 H        0.926     0.036     2.497     2.471
    66   1 H        0.926     0.036     2.496     2.470
    67   1 H        0.926     0.035     2.516     2.480
    68   1 H        0.926     0.028     2.611     2.527
    69   1 H        0.926     0.028     2.616     2.529
    70   1 H        0.926     0.038     2.476     2.461
    71   1 H        0.926     0.039     2.456     2.451
    72   1 H        0.926     0.039     2.462     2.454
    73   1 H        0.926     0.031     2.570     2.507
    74   1 H        0.926     0.031     2.568     2.506
    75   1 H        0.926     0.042     2.416     2.430

molecular dipole:
                 x           y           z       tot (Debye)
 q only:        0.005       1.770       0.158
   full:        0.018       2.019       0.153       5.147

 projected vibrational frequencies (cm⁻¹)
eigval :       -0.00    -0.00     0.00     0.00     0.00     0.00
eigval :       14.31    16.64    21.14    22.88    29.26    30.96
eigval :       39.79    54.74    66.65    77.68    84.16    90.41
eigval :      107.20   111.16   130.20   144.12   163.60   173.06
eigval :      179.13   191.40   199.58   207.83   214.22   219.22
eigval :      238.93   250.48   258.34   269.15   276.94   312.10
eigval :      318.16   332.13   342.89   363.43   372.62   372.94
eigval :      377.74   381.87   385.41   389.64   400.47   426.93
eigval :      432.57   439.63   449.23   457.61   464.75   468.99
eigval :      479.26   492.75   503.55   507.93   516.59   543.90
eigval :      552.02   571.32   585.43   588.23   594.95   603.07
eigval :      619.22   634.34   642.06   651.71   659.21   665.99
eigval :      668.62   673.98   678.76   683.15   693.77   720.94
eigval :      729.12   736.56   747.16   752.03   762.54   765.64
eigval :      773.69   799.08   803.95   812.75   817.69   831.92
eigval :      833.00   868.77   874.35   876.40   878.82   882.52
eigval :      893.28   901.76   904.45   912.93   913.41   915.03
eigval :      926.41   928.38   929.22   929.48   931.18   935.52
eigval :      949.17   959.92   960.85   962.83   974.33   983.01
eigval :     1003.59  1016.24  1033.78  1034.84  1067.46  1080.01
eigval :     1081.50  1112.64  1117.28  1117.38  1120.66  1130.54
eigval :     1140.72  1143.26  1147.87  1157.22  1162.89  1178.80
eigval :     1179.11  1188.97  1191.19  1196.69  1199.30  1202.15
eigval :     1208.46  1216.55  1225.34  1226.97  1231.44  1238.30
eigval :     1268.16  1275.17  1276.93  1280.23  1283.76  1288.12
eigval :     1304.15  1313.79  1317.28  1319.45  1320.54  1330.68
eigval :     1351.96  1360.92  1368.89  1376.88  1388.63  1395.02
eigval :     1399.89  1402.38  1409.24  1411.20  1425.29  1426.41
eigval :     1430.07  1441.16  1449.89  1462.42  1483.73  1486.99
eigval :     1487.83  1488.42  1489.19  1498.39  1501.13  1502.11
eigval :     1510.17  1515.26  1515.81  1516.18  1520.26  1539.27
eigval :     1567.79  1568.61  1570.73  1575.70  1587.51  1593.39
eigval :     1598.65  3023.13  3023.54  3026.24  3029.73  3032.02
eigval :     3035.85  3039.08  3046.54  3049.33  3062.83  3064.80
eigval :     3070.38  3071.14  3073.53  3074.37  3074.97  3075.68
eigval :     3077.03  3077.52  3078.04  3081.71  3081.87  3084.12
eigval :     3084.38  3086.26  3088.89  3091.08  3092.18  3094.47
eigval :     3094.74  3096.94  3120.66

   temp. (K)  partition function   enthalpy   heat capacity  entropy
                                   cal/mol     cal/K/mol   cal/K/mol   J/K/mol
 298.15  VIB  0.423E+16            20712.849    132.304    126.873
         ROT  0.493E+08              888.752      2.981     38.182
         INT  0.208E+24            21601.602    135.284    165.055
         TR   0.126E+29             1481.254      4.968     44.794
         TOT                       23082.8556   140.2526   209.8490   878.0082

       T/K    H(0)-H(T)+PV         H(T)/Eh          T*S/Eh         G(T)/Eh
   ------------------------------------------------------------------------
    298.15    0.367849E-01    0.629131E+00    0.997060E-01    0.529425E+00
   ------------------------------------------------------------------------

         :::::::::::::::::::::::::::::::::::::::::::::::::::::
         ::                  THERMODYNAMIC                  ::
         :::::::::::::::::::::::::::::::::::::::::::::::::::::
         :: total free energy        -109.472750702931 Eh   ::
         ::.................................................::
         :: total energy             -110.002175927970 Eh   ::
         :: zero point energy           0.592346378544 Eh   ::
         :: G(RRHO) w/o ZPVE           -0.062921153505 Eh   ::
         :: G(RRHO) contrib.            0.529425225039 Eh   ::
         :::::::::::::::::::::::::::::::::::::::::::::::::::::

           -------------------------------------------------
          | TOTAL ENERGY             -110.002175927970 Eh   |
          | TOTAL ENTHALPY           -109.373044677574 Eh   |
          | TOTAL FREE ENERGY        -109.472750702931 Eh   |
          | GRADIENT NORM               0.000054256879 Eh/α |
          | HOMO-LUMO GAP               0.900114221956 eV   |
           -------------------------------------------------

 * finished run on 2025/08/24 at 03:53:52.643
