   * xtb version 6.7.1 (edcfbbe) compiled by 'albert@albert-system' on 2024-07-22

   ID    Z sym.   atoms
    1    6 C      1-8, 10-26, 28-43
    2    7 N      9, 27
    3    1 H      44-75

          program call               : xtb data2507/toluene/PtB/PtB_toluene_T1_crest.xyz --gfn 2 --uhf 2 --gbsa toluene --ohess vtight --parallel 40 --molden --ceasefiles --namespace data2507/toluene/PtB/PtB_toluene_T1_finalOpt
      * Solvation model:               GBSA
        Solvent                        toluene
        Solvent mass                       9.2140E+01 g/mol
          :  Hamiltonian                  GFN2-xTB          :
 * total energy  :  -110.0018978 Eh     change       -0.9699434E-08 Eh
 * total energy  :  -110.0019621 Eh     change       -0.6431974E-04 Eh
 * total energy  :  -110.0020306 Eh     change       -0.6846507E-04 Eh
 * total energy  :  -110.0020741 Eh     change       -0.4348256E-04 Eh
 * total energy  :  -110.0021078 Eh     change       -0.3371901E-04 Eh
 * total energy  :  -110.0021609 Eh     change       -0.5306036E-04 Eh
 * total energy  :  -110.0021845 Eh     change       -0.2363449E-04 Eh
 * total energy  :  -110.0022182 Eh     change       -0.3371759E-04 Eh
 * total energy  :  -110.0022490 Eh     change       -0.3077007E-04 Eh
 * total energy  :  -110.0022658 Eh     change       -0.1684005E-04 Eh
 * total energy  :  -110.0023552 Eh     change       -0.2340602E-06 Eh
 * total energy  :  -110.0023555 Eh     change       -0.2054244E-06 Eh
 * total energy  :  -110.0023556 Eh     change       -0.1865756E-06 Eh
 * total energy  :  -110.0023558 Eh     change       -0.1847288E-06 Eh
 * total energy  :  -110.0023560 Eh     change       -0.1973278E-06 Eh
 * total energy  :  -110.0023563 Eh     change       -0.2338467E-06 Eh
 * total energy  :  -110.0023566 Eh     change       -0.3151949E-06 Eh
 * total energy  :  -110.0023568 Eh     change       -0.2399440E-06 Eh
 * total energy  :  -110.0023568 Eh     change       -0.4521809E-08 Eh
   *** GEOMETRY OPTIMIZATION CONVERGED AFTER 44 ITERATIONS ***

 final structure:
================
75
 xtb: 6.7.1 (edcfbbe)
C            3.91450616702972        3.48763014116298        1.71274738030990
C            2.91754599897119        3.81119230561888        0.59621181115201
C            3.68445933210865        3.83540662614065       -0.73417290031653
C            2.30940381278285        5.19348058595888        0.87637430714170
C            1.79985898217722        2.78594710216289        0.49509292705583
C            0.81813770294348        2.93395184256394       -0.48340782182561
C           -0.19705978535208        2.01339763189408       -0.63945927107979
C           -0.26075362563816        0.90555338485585        0.19792739024191
N           -1.26351217458078       -0.06773357154486        0.03142355544024
C           -1.08481423162186       -1.44640459760907        0.01485515778309
C            0.14778750605704       -2.14176282232504        0.05836164478991
C            0.16618357065261       -3.39020682114893        0.72721365842684
C            1.33450609596752       -3.97659759302869        1.09716473330444
C            2.59810860775070       -3.37134610076479        0.78473826029112
C            3.80677435297890       -3.90631623873407        1.22542188757061
C            5.01600490967272       -3.32839060254274        0.87315667253805
C            5.06140066510182       -2.21963867871718        0.01509660935853
C            6.28318209448766       -1.63118565443628       -0.39628188940682
C            6.29231811944020       -0.55655266690301       -1.26700614238976
C            5.11523297535966       -0.04158319547481       -1.76885849300304
C            3.86345181195876       -0.59175673179329       -1.38558230294999
C            2.64992980603443       -0.13530476195961       -1.91125314065844
C            1.44247085386442       -0.66117709013923       -1.47883151149313
C            1.39263411645521       -1.63457684439844       -0.48239591025169
C            2.60807784738119       -2.21806862113922       -0.04398653468623
C            3.84261472235463       -1.67423368047260       -0.46791060985353
N           -2.26649548270419       -2.06029936020034       -0.00152894432744
C           -3.21475350249437       -1.10715142840100       -0.03024180944752
C           -4.62659924840237       -1.45783386586906       -0.04154498901092
C           -5.02097689905284       -2.65650639204408       -0.63759278438368
C           -6.35220715881017       -3.02442386751964       -0.65725015364645
C           -7.30896757855867       -2.20658910910485       -0.07635485999941
C           -6.92343741269262       -1.02458166236635        0.53599655914433
C           -5.59312618430607       -0.65003871156217        0.55738587201716
C           -2.61516991139981        0.16103219270640       -0.00709078791890
C           -3.21718910399304        1.48258326623002       -0.01828321321279
C           -2.82257964783729        2.46684455160130        0.89016788751817
C           -3.40883292298524        3.71791457906196        0.86033878724544
C           -4.39185634124991        4.00825932128995       -0.07232475613004
C           -4.79510292674491        3.03458262753431       -0.97350957912026
C           -4.21621074598090        1.78087332905893       -0.94851546834312
C            0.68958640583105        0.75658544813843        1.19845587057543
C            1.70561250973514        1.68406211131435        1.33675606088080
H            4.69282459139129        4.24778309061313        1.73331631676210
H            3.42745368739463        3.48111572499040        2.68524982621974
H            4.39062048975663        2.52411087900982        1.54351121086308
H            4.08753086751634        2.84759831061616       -0.94703463725877
H            3.04163668443683        4.12983221156274       -1.55905814063507
H            4.50981538287768        4.54172160327549       -0.67635574105268
H            1.74689773866681        5.17548025586089        1.80780861674020
H            3.09884293856060        5.93671822134096        0.96440765233755
H            1.63908315290099        5.50166785275563        0.07890180253523
H            0.84540112571063        3.77786117043340       -1.15503879895095
H           -0.93149651050792        2.14043965360746       -1.42138093356615
H           -0.78612999025401       -3.81486856511983        1.00834211945791
H            1.33421842432477       -4.89788016562348        1.66062700268337
H            3.79437100271545       -4.78704639118822        1.85208439371672
H            5.94187004669837       -3.74405678069434        1.24415678540534
H            7.20999571505155       -2.04138584131668       -0.02315965216911
H            7.23615359298552       -0.12276952487090       -1.56718595152795
H            5.12858822616980        0.78239428313850       -2.46715270606428
H            2.65682118279356        0.64213938862099       -2.66110137543120
H            0.52528318100501       -0.31510574217294       -1.93134618541223
H           -4.26390209243671       -3.28463579324656       -1.08219063630104
H           -6.64648739718060       -3.95176206994138       -1.12723368885304
H           -8.35033999489810       -2.49292602864114       -0.09350270956073
H           -7.66360739095912       -0.39179072232996        1.00417398957087
H           -5.29887894037844        0.26252095811310        1.05404746149078
H           -2.06910779963017        2.24173623760511        1.63087399930020
H           -3.09723604636930        4.46926992179103        1.57097208949039
H           -4.84505749643273        4.98806403220025       -0.09489573156286
H           -5.56235570146611        3.25414785504443       -1.70132670002693
H           -4.52490715143247        1.02255418400700       -1.65344978014741
H            0.63582549433302       -0.09192620362053        1.86532904833346
H            2.42985607295983        1.52263273517659        2.11752971587761

          :  Hamiltonian                  GFN2-xTB          :
         :: gradient norm              0.000044652674 Eh/a0 ::
         :: HOMO-LUMO gap              0.894760796149 eV    ::
         :: SCC energy              -112.032963819877 Eh    ::
         :: -> dispersion             -0.109635593497 Eh    ::
         :: -> Gsolv                  -0.042615999734 Eh    ::
         :: repulsion energy           2.030607006330 Eh    ::

    * Orbital Energies and Occupations

         #    Occupation            Energy/Eh            Energy/eV
      -------------------------------------------------------------
         1        2.0000           -0.6911704             -18.8077
       ...           ...                  ...                  ...
        92        2.0000           -0.4136484             -11.2559
        93        2.0000           -0.4119303             -11.2092
        94        2.0000           -0.4081641             -11.1067
        95        2.0000           -0.4057991             -11.0424
        96        2.0000           -0.4052224             -11.0267
        97        2.0000           -0.4034775             -10.9792
        98        2.0000           -0.4002274             -10.8907
        99        2.0000           -0.3951521             -10.7526
       100        2.0000           -0.3902470             -10.6192
       101        2.0000           -0.3820067             -10.3949
       102        2.0000           -0.3749388             -10.2026
       103        1.0000           -0.3497036              -9.5159
       104        1.0000           -0.2881190              -7.8401 (HOMO)
       105                         -0.2552373              -6.9454 (LUMO)
       106                         -0.2397802              -6.5248
       107                         -0.2362827              -6.4296
       108                         -0.2334324              -6.3520
       109                         -0.2290923              -6.2339
       110                         -0.2269814              -6.1765
       111                         -0.2233302              -6.0771
       112                         -0.2229884              -6.0678
       113                         -0.2117083              -5.7609
       114                         -0.1878848              -5.1126
       115                         -0.1675285              -4.5587
       ...                                ...                  ...
       204                          0.7278247              19.8051
      -------------------------------------------------------------
                  HL-Gap            0.0328817 Eh            0.8948 eV

     #   Z          covCN         q      C6AA      α(0)
     1   6 C        3.761    -0.109    22.630     6.782
     2   6 C        3.903     0.026    20.073     6.369
     3   6 C        3.762    -0.106    22.575     6.773
     4   6 C        3.761    -0.107    22.596     6.776
     5   6 C        2.973     0.013    27.718     8.636
     6   6 C        2.928    -0.033    28.812     8.803
     7   6 C        2.919    -0.040    28.999     8.831
     8   6 C        2.913     0.061    26.631     8.462
     9   7 N        2.835    -0.047    22.145     6.989
    10   6 C        3.137     0.135    24.837     8.157
    11   6 C        2.969    -0.020    28.505     8.757
    12   6 C        2.917    -0.032    28.790     8.799
    13   6 C        2.912    -0.045    29.108     8.847
    14   6 C        2.978     0.008    27.842     8.655
    15   6 C        2.915    -0.041    29.008     8.832
    16   6 C        2.916    -0.042    29.034     8.836
    17   6 C        2.977     0.009    27.813     8.651
    18   6 C        2.917    -0.043    29.067     8.841
    19   6 C        2.907    -0.030    28.758     8.793
    20   6 C        2.917    -0.043    29.074     8.842
    21   6 C        2.978     0.009    27.822     8.652
    22   6 C        2.917    -0.043    29.066     8.841
    23   6 C        2.916    -0.041    29.011     8.832
    24   6 C        2.976     0.003    27.953     8.672
    25   6 C        2.995     0.001    28.002     8.680
    26   6 C        2.998     0.000    28.016     8.683
    27   7 N        1.903    -0.318    29.102     7.998
    28   6 C        3.148     0.069    26.209     8.375
    29   6 C        2.973     0.006    27.875     8.660
    30   6 C        2.927    -0.029    28.715     8.788
    31   6 C        2.918    -0.029    28.729     8.790
    32   6 C        2.919    -0.030    28.744     8.792
    33   6 C        2.918    -0.030    28.743     8.792
    34   6 C        2.923    -0.036    28.886     8.814
    35   6 C        3.053     0.028    27.326     8.573
    36   6 C        2.971     0.006    27.893     8.663
    37   6 C        2.923    -0.032    28.792     8.799
    38   6 C        2.918    -0.028    28.699     8.785
    39   6 C        2.919    -0.029    28.725     8.789
    40   6 C        2.918    -0.027    28.687     8.783
    41   6 C        2.925    -0.032    28.789     8.799
    42   6 C        2.921    -0.041    29.020     8.834
    43   6 C        2.926    -0.036    28.908     8.817
    44   1 H        0.925     0.042     2.426     2.436
    45   1 H        0.925     0.038     2.482     2.464
    46   1 H        0.925     0.036     2.496     2.471
    47   1 H        0.925     0.036     2.509     2.477
    48   1 H        0.925     0.038     2.469     2.457
    49   1 H        0.925     0.043     2.413     2.429
    50   1 H        0.925     0.035     2.515     2.480
    51   1 H        0.925     0.043     2.406     2.426
    52   1 H        0.925     0.040     2.454     2.450
    53   1 H        0.926     0.046     2.375     2.410
    54   1 H        0.926     0.035     2.514     2.479
    55   1 H        0.926     0.043     2.411     2.428
    56   1 H        0.926     0.033     2.539     2.492
    57   1 H        0.926     0.031     2.573     2.508
    58   1 H        0.926     0.031     2.574     2.509
    59   1 H        0.926     0.030     2.592     2.518
    60   1 H        0.925     0.030     2.591     2.517
    61   1 H        0.926     0.029     2.599     2.521
    62   1 H        0.926     0.030     2.588     2.516
    63   1 H        0.926     0.019     2.751     2.594
    64   1 H        0.926     0.045     2.389     2.417
    65   1 H        0.926     0.036     2.496     2.471
    66   1 H        0.926     0.037     2.496     2.470
    67   1 H        0.926     0.035     2.515     2.480
    68   1 H        0.926     0.028     2.608     2.526
    69   1 H        0.926     0.028     2.612     2.527
    70   1 H        0.926     0.038     2.471     2.458
    71   1 H        0.926     0.039     2.457     2.451
    72   1 H        0.926     0.039     2.464     2.454
    73   1 H        0.926     0.031     2.567     2.505
    74   1 H        0.926     0.031     2.570     2.507
    75   1 H        0.926     0.049     2.331     2.387

molecular dipole:
                 x           y           z       tot (Debye)
 q only:       -0.017       1.734       0.157
   full:       -0.018       1.986       0.157       5.063

 projected vibrational frequencies (cm⁻¹)
eigval :       -0.00    -0.00     0.00     0.00     0.00     0.00
eigval :       12.62    21.13    22.53    29.92    33.12    36.44
eigval :       43.20    55.20    66.54    78.12    83.99    99.04
eigval :      105.69   109.97   129.60   144.71   161.98   182.48
eigval :      189.63   194.50   202.32   209.31   218.13   235.87
eigval :      240.16   251.60   262.08   266.52   279.56   313.63
eigval :      318.23   335.59   341.98   362.75   372.29   373.70
eigval :      377.57   381.76   385.51   391.22   400.30   428.07
eigval :      432.49   440.16   448.50   458.43   467.52   468.77
eigval :      478.77   492.60   504.03   508.80   516.79   543.95
eigval :      550.54   571.42   585.37   588.28   594.94   603.15
eigval :      619.54   634.47   641.63   651.88   659.31   665.69
eigval :      668.21   673.50   678.13   683.06   693.62   720.67
eigval :      732.51   736.24   747.58   752.01   762.75   765.73
eigval :      773.92   799.21   802.07   813.68   817.99   832.55
eigval :      836.63   868.94   874.44   877.29   881.63   883.51
eigval :      895.41   901.17   903.54   906.90   911.33   915.44
eigval :      927.32   928.81   929.35   930.11   932.39   935.55
eigval :      949.34   961.23   963.67   967.93   974.20   982.55
eigval :     1003.55  1016.22  1036.98  1037.36  1066.87  1080.14
eigval :     1081.79  1112.40  1116.64  1117.40  1121.13  1130.27
eigval :     1141.65  1142.72  1148.53  1157.56  1162.29  1178.66
eigval :     1179.58  1188.79  1191.09  1196.34  1200.00  1201.74
eigval :     1209.43  1217.07  1226.30  1226.79  1233.62  1238.19
eigval :     1267.82  1275.33  1277.17  1280.84  1284.44  1289.16
eigval :     1302.72  1314.17  1318.59  1319.89  1320.99  1330.42
eigval :     1351.55  1360.42  1368.95  1377.62  1388.87  1396.13
eigval :     1400.90  1403.79  1410.04  1411.44  1425.50  1428.35
eigval :     1430.16  1440.68  1449.94  1463.00  1484.63  1488.16
eigval :     1488.88  1489.48  1491.50  1499.94  1501.08  1504.51
eigval :     1510.66  1515.36  1515.72  1517.28  1519.90  1538.51
eigval :     1567.26  1568.69  1570.54  1575.58  1587.02  1593.19
eigval :     1599.29  3022.07  3024.65  3026.63  3029.71  3030.91
eigval :     3033.58  3037.46  3046.23  3049.25  3062.13  3065.17
eigval :     3070.84  3072.89  3074.31  3074.63  3075.46  3075.77
eigval :     3076.59  3078.03  3078.77  3080.68  3082.09  3083.63
eigval :     3083.86  3086.56  3086.91  3090.86  3091.33  3094.70
eigval :     3096.20  3097.18  3121.02

   temp. (K)  partition function   enthalpy   heat capacity  entropy
                                   cal/mol     cal/K/mol   cal/K/mol   J/K/mol
 298.15  VIB  0.159E+16            20613.126    132.512    125.889
         ROT  0.477E+08              888.752      2.981     38.118
         INT  0.761E+23            21501.878    135.493    164.006
         TR   0.126E+29             1481.254      4.968     44.794
         TOT                       22983.1320   140.4607   208.8001   873.6197

       T/K    H(0)-H(T)+PV         H(T)/Eh          T*S/Eh         G(T)/Eh
   ------------------------------------------------------------------------
    298.15    0.366260E-01    0.629280E+00    0.992077E-01    0.530072E+00
   ------------------------------------------------------------------------

         :::::::::::::::::::::::::::::::::::::::::::::::::::::
         ::                  THERMODYNAMIC                  ::
         :::::::::::::::::::::::::::::::::::::::::::::::::::::
         :: total free energy        -109.472284450127 Eh   ::
         ::.................................................::
         :: total energy             -110.002356813867 Eh   ::
         :: zero point energy           0.592654085135 Eh   ::
         :: G(RRHO) w/o ZPVE           -0.062581721394 Eh   ::
         :: G(RRHO) contrib.            0.530072363740 Eh   ::
         :::::::::::::::::::::::::::::::::::::::::::::::::::::

           -------------------------------------------------
          | TOTAL ENERGY             -110.002356813867 Eh   |
          | TOTAL ENTHALPY           -109.373076776567 Eh   |
          | TOTAL FREE ENERGY        -109.472284450127 Eh   |
          | GRADIENT NORM               0.000044676529 Eh/α |
          | HOMO-LUMO GAP               0.894756099879 eV   |
           -------------------------------------------------

 * finished run on 2025/08/24 at 03:57:32.967
