   * xtb version 6.7.1 (edcfbbe) compiled by 'albert@albert-system' on 2024-07-22

   ID    Z sym.   atoms
    1    7 N      1, 11, 17, 39, 51
    2    6 C      2-10, 12-16, 18-38, 40-50, 52-58
    3    1 H      59-91

          program call               : xtb data2507/toluene/2PyCNBCz/2PyCNBCz_toluene_S0_finalOpt.xtbopt.xyz --gfn 2 --uhf 2 --gbsa toluene --ohess vtight --parallel 40 --molden --ceasefiles --namespace data2507/toluene/2PyCNBCz/2PyCNBCz_toluene_T1_preOpt
      * Solvation model:               GBSA
        Solvent                        toluene
        Solvent mass                       9.2140E+01 g/mol
          :  Hamiltonian                  GFN2-xTB          :
 * total energy  :  -144.9650050 Eh     change       -0.2921493E-07 Eh
 * total energy  :  -144.9683228 Eh     change       -0.3317803E-02 Eh
 * total energy  :  -144.9697026 Eh     change       -0.1379752E-02 Eh
 * total energy  :  -144.9697944 Eh     change       -0.9177979E-04 Eh
 * total energy  :  -144.9698553 Eh     change       -0.6091146E-04 Eh
 * total energy  :  -144.9698737 Eh     change       -0.1838313E-04 Eh
 * total energy  :  -144.9698904 Eh     change       -0.1675578E-04 Eh
 * total energy  :  -144.9699055 Eh     change       -0.1507892E-04 Eh
 * total energy  :  -144.9699148 Eh     change       -0.9305091E-05 Eh
 * total energy  :  -144.9699279 Eh     change       -0.1304935E-04 Eh
 * total energy  :  -144.9699941 Eh     change       -0.2586017E-06 Eh
 * total energy  :  -144.9699943 Eh     change       -0.1610209E-06 Eh
 * total energy  :  -144.9699944 Eh     change       -0.1682474E-06 Eh
 * total energy  :  -144.9699946 Eh     change       -0.1543226E-06 Eh
 * total energy  :  -144.9699947 Eh     change       -0.1105362E-06 Eh
 * total energy  :  -144.9699948 Eh     change       -0.1311677E-06 Eh
 * total energy  :  -144.9699950 Eh     change       -0.1636763E-06 Eh
 * total energy  :  -144.9699951 Eh     change       -0.1095182E-06 Eh
 * total energy  :  -144.9699952 Eh     change       -0.7713797E-07 Eh
   *** GEOMETRY OPTIMIZATION CONVERGED AFTER 41 ITERATIONS ***

 final structure:
================
91
 xtb: 6.7.1 (edcfbbe)
N           -9.98362856373250        2.58678199097813        0.85664248715165
C           -9.04262376763769        1.98058589139661        0.54721975426415
C           -7.90165525580296        1.27990784015364        0.22028851769208
C           -6.86997698332877        1.81539760080393       -0.62753504618187
C           -7.07394887242175        3.03691314102972       -1.41125953046733
C           -5.99316680727600        3.89458938787444       -1.62519285880321
C           -6.15319430249658        5.05142823200164       -2.36137697367926
C           -7.38939401819844        5.36561423065531       -2.90490596105319
C           -8.46240843268228        4.51011532445213       -2.71336279233842
C           -8.31007278007933        3.35320453093153       -1.97201251733310
N           -5.71276401195555        1.23005434343009       -0.73109672436992
C           -5.43606425475552        0.08331613181557       -0.07325892517746
C           -4.15308518200802       -0.51682430245316       -0.20098103554360
C           -3.15385644923609        0.07788654930512       -0.99897777418193
C           -1.91552368516529       -0.49765658229944       -1.12095818049700
C           -1.62135352964324       -1.69148510055172       -0.45049075711922
N           -0.35731503428819       -2.28140944596800       -0.58469704377047
C           -0.11713936549611       -3.59851471269464       -0.93158080672228
C           -1.01869217502740       -4.60728203545405       -1.24102150401650
C           -0.50635617182469       -5.84801442692947       -1.57778194950433
C            0.86570910281788       -6.08063177843898       -1.61711670887376
C            1.76973375911542       -5.07029894362623       -1.33537455570900
C            1.27911618892957       -3.81939632360590       -0.99471980468218
C            1.90287459893989       -2.56133235429256       -0.67378266043310
C            3.21791294618168       -2.15180134708277       -0.57772972152300
C            3.49903209590011       -0.83405829114622       -0.20611511764589
C            4.88205150929226       -0.37473664980719       -0.09310065138490
C            5.85490480975302       -0.83172236388051       -1.00052843976040
C            7.16595229973014       -0.41512682301858       -0.94278840157115
C            7.52504604144553        0.48180962026678        0.05929447791494
C            6.56793251149325        0.92970566067943        1.00497580423697
C            5.25340418014784        0.51251401375077        0.91939947101048
C            7.27385047815172        1.79039473650588        1.91833564200535
C            6.88813402341531        2.52783825086815        3.02802866482984
C            7.84311118234122        3.28562993963892        3.68226240961455
C            9.16030323391759        3.32371861187207        3.23269127016969
C            9.56724058644365        2.59826908715861        2.12702932324308
C            8.61860072497200        1.81794556124108        1.48197711704935
N            8.75036426040503        1.02203461287036        0.35826546219014
C            9.94027386750691        0.80905937001531       -0.35878857609707
C           11.09085812316191        0.39589060007195        0.30664778837201
C           12.25989694321651        0.19099731631271       -0.40348694143429
C           12.28861319986181        0.38942507555388       -1.77453929669864
C           11.14221688742006        0.79727857868783       -2.43741539873124
C            9.96991886069935        1.01161634495216       -1.73565051863155
C            2.43692190250595        0.04605871285427        0.07167561079574
C            1.11914161787235       -0.33712688204486       -0.03510170873918
C            0.84623965074150       -1.64615313482152       -0.42621390405732
C           -2.60346092069834       -2.29302350510301        0.34573374386890
C           -3.84310703730208       -1.71909008579131        0.46775879648608
N           -6.39096859147157       -0.51120207862205        0.67818966232558
C           -7.57221676152369        0.01462222376174        0.81709117097342
C           -8.55043895747762       -0.72928075295905        1.61756713312355
C           -9.90080050873858       -0.75888683124590        1.27537127289685
C          -10.79739125341378       -1.47790561070906        2.04378992713663
C          -10.36170989060385       -2.17174767780879        3.16123595012551
C           -9.01769681457790       -2.15710371560626        3.50066467725444
C           -8.11617423698462       -1.44663661697081        2.73295495370093
H           -5.03639322891161        3.64107456863060       -1.19348602776859
H           -5.31196671835829        5.71221846786735       -2.51173499810905
H           -7.51611496235136        6.27200829878010       -3.47800062924825
H           -9.42565697117526        4.74233246730456       -3.14349206165610
H           -9.14958300183384        2.68611445443906       -1.84072692973587
H           -3.39552769370641        0.98850148129742       -1.52535515751832
H           -1.16667691880343       -0.05083367993057       -1.75855894167519
H           -2.08277068598325       -4.42841692065352       -1.23094044274127
H           -1.18665284710064       -6.65120137091462       -1.81904059334473
H            1.22721010083438       -7.06316198151993       -1.88135660687234
H            2.83280075436962       -5.25054240473866       -1.38215778677832
H            4.01880267009745       -2.85364277772204       -0.75053523986896
H            5.55579563544783       -1.50845270369496       -1.78628577422975
H            7.89271115523562       -0.77953800231985       -1.65224016300091
H            4.53124101025256        0.83948679634430        1.65125818210658
H            5.86461749036351        2.51140169070968        3.37028914986750
H            7.56438167955003        3.86413931788813        4.55050538498244
H            9.87974784508909        3.93610446140071        3.75574292871733
H           10.58624231985634        2.64822274332128        1.77526043799581
H           11.05815744337304        0.22221362704725        1.37191154216231
H           13.15024583675786       -0.13098024500144        0.11576177981202
H           13.20255201790910        0.22631984037607       -2.32543694534039
H           11.16208518437013        0.95746907031213       -3.50514875286225
H            9.07978964100322        1.35013333803499       -2.24468760121982
H            2.66335333702914        1.06361068589945        0.35137594965428
H            0.32032605502156        0.35471447655920        0.18300104232679
H           -2.36647530123037       -3.19956477533489        0.88333677555931
H           -4.60519687752398       -2.17357149936176        1.08197003710014
H          -10.24702685846609       -0.23164789493779        0.39813835570291
H          -11.84139142676437       -1.49427892842965        1.76710793716365
H          -11.06738616050088       -2.72452173253352        3.76332348247314
H           -8.67226312736659       -2.70018213262494        4.36822338112188
H           -7.06746971095956       -1.42471859821701        2.98955451313782

          :  Hamiltonian                  GFN2-xTB          :
         :: gradient norm              0.000034705273 Eh/a0 ::
         :: HOMO-LUMO gap              0.405562133546 eV    ::
         :: SCC energy              -147.713350424272 Eh    ::
         :: -> dispersion             -0.126714975661 Eh    ::
         :: -> Gsolv                  -0.076381633177 Eh    ::
         :: repulsion energy           2.743355251098 Eh    ::

    * Orbital Energies and Occupations

         #    Occupation            Energy/Eh            Energy/eV
      -------------------------------------------------------------
         1        2.0000           -0.6901049             -18.7787
       ...           ...                  ...                  ...
       124        2.0000           -0.4094969             -11.1430
       125        2.0000           -0.4094337             -11.1413
       126        2.0000           -0.4089665             -11.1285
       127        2.0000           -0.4059924             -11.0476
       128        2.0000           -0.4049584             -11.0195
       129        2.0000           -0.3973168             -10.8115
       130        2.0000           -0.3923071             -10.6752
       131        2.0000           -0.3898772             -10.6091
       132        2.0000           -0.3864475             -10.5158
       133        2.0000           -0.3761738             -10.2362
       134        1.6836           -0.3656576              -9.9501
       135        1.3164           -0.3641942              -9.9102
       136        0.9996           -0.2871757              -7.8144 (HOMO)
       137        0.0004           -0.2722719              -7.4089 (LUMO)
       138                         -0.2566433              -6.9836
       139                         -0.2558792              -6.9628
       140                         -0.2529413              -6.8829
       141                         -0.2433231              -6.6212
       142                         -0.2402084              -6.5364
       143                         -0.2376266              -6.4661
       144                         -0.2276860              -6.1957
       145                         -0.2270625              -6.1787
       146                         -0.2269373              -6.1753
       147                         -0.2235540              -6.0832
       ...                                ...                  ...
       265                          1.1683733              31.7931
      -------------------------------------------------------------
                  HL-Gap            0.0149039 Eh            0.4056 eV

     #   Z          covCN         q      C6AA      α(0)
     1   7 N        0.911    -0.368    29.495     7.855
     2   6 C        1.903     0.098    28.681     8.649
     3   6 C        2.959    -0.060    29.502     8.909
     4   6 C        2.945     0.109    25.587     8.296
     5   6 C        2.982    -0.001    28.037     8.686
     6   6 C        2.925    -0.029    28.720     8.789
     7   6 C        2.918    -0.029    28.729     8.790
     8   6 C        2.920    -0.029    28.733     8.790
     9   6 C        2.919    -0.028    28.708     8.786
    10   6 C        2.922    -0.030    28.749     8.793
    11   7 N        1.851    -0.256    27.511     7.774
    12   6 C        2.906     0.145    24.842     8.173
    13   6 C        2.977    -0.009    28.236     8.716
    14   6 C        2.922    -0.039    28.974     8.827
    15   6 C        2.916    -0.042    29.039     8.837
    16   6 C        2.913     0.043    27.043     8.527
    17   7 N        2.801    -0.008    21.407     6.872
    18   6 C        3.079     0.046    26.888     8.501
    19   6 C        2.909    -0.042    29.035     8.836
    20   6 C        2.923    -0.031    28.763     8.795
    21   6 C        2.920    -0.034    28.853     8.809
    22   6 C        2.912    -0.029    28.726     8.789
    23   6 C        3.064    -0.012    28.261     8.717
    24   6 C        3.062    -0.011    28.219     8.711
    25   6 C        2.916    -0.033    28.820     8.803
    26   6 C        2.976     0.012    27.751     8.641
    27   6 C        2.976     0.010    27.795     8.648
    28   6 C        2.927    -0.035    28.880     8.813
    29   6 C        2.907    -0.045    29.126     8.849
    30   6 C        3.075     0.049    26.819     8.491
    31   6 C        3.063    -0.012    28.247     8.715
    32   6 C        2.916    -0.033    28.830     8.805
    33   6 C        3.065    -0.014    28.287     8.721
    34   6 C        2.912    -0.030    28.746     8.792
    35   6 C        2.920    -0.036    28.896     8.815
    36   6 C        2.923    -0.031    28.774     8.797
    37   6 C        2.909    -0.045    29.121     8.849
    38   6 C        3.077     0.047    26.876     8.500
    39   7 N        2.802    -0.021    21.649     6.911
    40   6 C        2.914     0.062    26.617     8.460
    41   6 C        2.921    -0.039    28.976     8.827
    42   6 C        2.920    -0.026    28.644     8.777
    43   6 C        2.919    -0.029    28.722     8.788
    44   6 C        2.920    -0.026    28.644     8.776
    45   6 C        2.922    -0.040    28.983     8.828
    46   6 C        2.926    -0.036    28.891     8.815
    47   6 C        2.907    -0.042    29.047     8.837
    48   6 C        3.077     0.048    26.843     8.494
    49   6 C        2.916    -0.042    29.032     8.836
    50   6 C        2.921    -0.039    28.973     8.827
    51   7 N        1.850    -0.257    27.534     7.777
    52   6 C        2.945     0.111    25.554     8.291
    53   6 C        2.982    -0.000    28.029     8.684
    54   6 C        2.922    -0.029    28.732     8.790
    55   6 C        2.919    -0.028    28.704     8.786
    56   6 C        2.920    -0.029    28.724     8.789
    57   6 C        2.918    -0.029    28.724     8.789
    58   6 C        2.925    -0.029    28.714     8.788
    59   1 H        0.926     0.041     2.439     2.442
    60   1 H        0.926     0.043     2.414     2.430
    61   1 H        0.926     0.042     2.422     2.434
    62   1 H        0.926     0.037     2.483     2.464
    63   1 H        0.926     0.024     2.672     2.556
    64   1 H        0.926     0.042     2.416     2.431
    65   1 H        0.926     0.042     2.416     2.431
    66   1 H        0.926     0.040     2.443     2.444
    67   1 H        0.926     0.040     2.453     2.449
    68   1 H        0.926     0.040     2.446     2.446
    69   1 H        0.926     0.044     2.395     2.420
    70   1 H        0.926     0.050     2.324     2.384
    71   1 H        0.926     0.046     2.369     2.407
    72   1 H        0.926     0.043     2.403     2.424
    73   1 H        0.926     0.046     2.372     2.408
    74   1 H        0.926     0.040     2.454     2.450
    75   1 H        0.926     0.036     2.499     2.472
    76   1 H        0.926     0.038     2.473     2.459
    77   1 H        0.926     0.040     2.453     2.449
    78   1 H        0.926     0.047     2.360     2.402
    79   1 H        0.926     0.045     2.386     2.416
    80   1 H        0.926     0.043     2.404     2.425
    81   1 H        0.926     0.045     2.384     2.414
    82   1 H        0.926     0.047     2.359     2.402
    83   1 H        0.926     0.046     2.365     2.405
    84   1 H        0.926     0.043     2.407     2.426
    85   1 H        0.926     0.042     2.419     2.432
    86   1 H        0.926     0.042     2.425     2.435
    87   1 H        0.926     0.024     2.671     2.556
    88   1 H        0.926     0.038     2.474     2.460
    89   1 H        0.926     0.043     2.416     2.430
    90   1 H        0.926     0.043     2.411     2.428
    91   1 H        0.926     0.040     2.444     2.445

molecular dipole:
                 x           y           z       tot (Debye)
 q only:       10.390      -1.825      -0.697
   full:       10.216      -1.816      -0.777      26.447

 projected vibrational frequencies (cm⁻¹)
eigval :       -0.00    -0.00     0.00     0.00     0.00     0.00
eigval :       -2.58     7.95     9.59    21.30    23.11    25.42
eigval :       27.87    31.14    38.99    44.83    48.58    61.93
eigval :       62.49    67.90    78.12    81.60    90.50    96.59
eigval :      107.50   113.59   120.01   130.21   135.31   142.56
eigval :      156.38   166.89   175.63   197.80   200.06   222.15
eigval :      226.24   231.08   239.39   242.77   259.78   265.58
eigval :      281.55   285.18   300.79   319.37   336.60   343.35
eigval :      356.55   364.11   367.42   371.95   378.61   379.04
eigval :      389.93   391.60   398.87   408.41   415.78   423.98
eigval :      427.10   428.78   439.99   443.17   467.15   470.10
eigval :      474.63   475.65   485.78   523.70   539.41   542.67
eigval :      552.50   565.43   571.08   573.79   574.05   582.24
eigval :      587.10   588.69   589.90   592.41   594.12   599.79
eigval :      609.65   614.72   618.26   623.35   634.66   652.79
eigval :      657.88   666.59   668.93   672.99   678.05   678.86
eigval :      691.00   700.10   709.01   709.96   720.58   732.96
eigval :      754.94   758.06   762.68   765.06   772.20   774.76
eigval :      806.82   813.48   825.01   828.65   832.81   846.32
eigval :      851.20   865.98   866.84   869.15   871.07   871.83
eigval :      872.13   879.53   892.64   894.83   898.76   901.19
eigval :      901.94   906.28   906.55   911.81   914.48   917.55
eigval :      920.15   921.20   923.46   923.77   924.87   925.00
eigval :      925.87   927.62   930.29   932.87   938.33   958.50
eigval :      977.75   996.66   998.29  1009.91  1022.37  1026.11
eigval :     1043.72  1060.23  1068.46  1070.51  1078.46  1079.81
eigval :     1081.41  1102.52  1115.68  1116.81  1118.56  1120.03
eigval :     1123.34  1125.71  1144.73  1149.86  1150.04  1169.38
eigval :     1175.45  1175.98  1176.12  1177.76  1179.32  1180.86
eigval :     1190.56  1195.03  1196.58  1196.72  1210.43  1227.67
eigval :     1233.36  1240.74  1249.72  1254.42  1262.94  1266.13
eigval :     1271.17  1275.59  1278.83  1281.44  1283.71  1292.18
eigval :     1302.83  1314.95  1320.82  1322.44  1328.31  1331.29
eigval :     1338.68  1346.61  1347.56  1352.83  1354.66  1366.03
eigval :     1391.16  1411.64  1417.33  1419.49  1420.61  1424.49
eigval :     1425.91  1430.94  1435.88  1446.45  1450.58  1458.34
eigval :     1467.68  1468.61  1471.92  1475.34  1480.06  1486.76
eigval :     1497.54  1521.34  1543.07  1550.83  1559.20  1564.85
eigval :     1571.61  1573.25  1575.63  1578.66  1580.16  1585.27
eigval :     1586.01  1588.45  1592.60  1597.89  1603.83  2244.27
eigval :     3072.86  3073.58  3074.78  3075.34  3078.22  3078.96
eigval :     3080.01  3080.57  3080.67  3082.16  3082.43  3083.09
eigval :     3084.95  3086.35  3087.26  3087.46  3088.47  3088.64
eigval :     3090.17  3092.70  3093.57  3093.82  3093.86  3094.23
eigval :     3095.24  3095.96  3096.65  3096.87  3098.38  3098.98
eigval :     3099.49  3099.87  3100.91

   temp. (K)  partition function   enthalpy   heat capacity  entropy
                                   cal/mol     cal/K/mol   cal/K/mol   J/K/mol
 298.15  VIB  0.467E+23            27152.116    169.229    171.698
         ROT  0.253E+09              888.752      2.981     41.433
         INT  0.118E+32            28040.868    172.210    213.130
         TR   0.195E+29             1481.254      4.968     45.663
         TOT                       29522.1220   177.1777   258.7931  1082.7903

       T/K    H(0)-H(T)+PV         H(T)/Eh          T*S/Eh         G(T)/Eh
   ------------------------------------------------------------------------
    298.15    0.470465E-01    0.731264E+00    0.122961E+00    0.608303E+00
   ------------------------------------------------------------------------

         :::::::::::::::::::::::::::::::::::::::::::::::::::::
         ::                  THERMODYNAMIC                  ::
         :::::::::::::::::::::::::::::::::::::::::::::::::::::
         :: total free energy        -144.361692039225 Eh   ::
         ::.................................................::
         :: total energy             -144.969995170757 Eh   ::
         :: zero point energy           0.684217580730 Eh   ::
         :: G(RRHO) w/o ZPVE           -0.075914449198 Eh   ::
         :: G(RRHO) contrib.            0.608303131532 Eh   ::
         :::::::::::::::::::::::::::::::::::::::::::::::::::::

           -------------------------------------------------
          | TOTAL ENERGY             -144.969995170757 Eh   |
          | TOTAL ENTHALPY           -144.238731094031 Eh   |
          | TOTAL FREE ENERGY        -144.361692039225 Eh   |
          | GRADIENT NORM               0.000040384660 Eh/α |
          | HOMO-LUMO GAP               0.405555260659 eV   |
           -------------------------------------------------

 * finished run on 2025/09/08 at 12:47:10.805
