   * xtb version 6.7.1 (edcfbbe) compiled by 'albert@albert-system' on 2024-07-22

   ID    Z sym.   atoms
    1    7 N      1, 11, 17, 39, 51
    2    6 C      2-10, 12-16, 18-38, 40-50, 52-58
    3    1 H      59-91

          program call               : xtb data2507/toluene/2PyCNBCz/2PyCNBCz_toluene_S0_crest.xyz --gfn 2 --gbsa toluene --ohess vtight --parallel 40 --molden --ceasefiles --namespace data2507/toluene/2PyCNBCz/2PyCNBCz_toluene_S0_finalOpt
      * Solvation model:               GBSA
        Solvent                        toluene
        Solvent mass                       9.2140E+01 g/mol
          :  Hamiltonian                  GFN2-xTB          :
 * total energy  :  -145.0391862 Eh     change       -0.1699846E-08 Eh
 * total energy  :  -145.0392271 Eh     change       -0.4083531E-04 Eh
 * total energy  :  -145.0392439 Eh     change       -0.1689190E-04 Eh
 * total energy  :  -145.0392537 Eh     change       -0.9734425E-05 Eh
 * total energy  :  -145.0392666 Eh     change       -0.1289356E-04 Eh
 * total energy  :  -145.0392784 Eh     change       -0.1182818E-04 Eh
 * total energy  :  -145.0392867 Eh     change       -0.8335334E-05 Eh
 * total energy  :  -145.0392939 Eh     change       -0.7147014E-05 Eh
 * total energy  :  -145.0393007 Eh     change       -0.6823697E-05 Eh
 * total energy  :  -145.0393062 Eh     change       -0.5540824E-05 Eh
 * total energy  :  -145.0393170 Eh     change       -0.2006848E-05 Eh
 * total energy  :  -145.0393186 Eh     change       -0.1634801E-05 Eh
 * total energy  :  -145.0393198 Eh     change       -0.1134756E-05 Eh
 * total energy  :  -145.0393205 Eh     change       -0.7081912E-06 Eh
 * total energy  :  -145.0393210 Eh     change       -0.4965983E-06 Eh
 * total energy  :  -145.0393215 Eh     change       -0.4816064E-06 Eh
 * total energy  :  -145.0393219 Eh     change       -0.4563017E-06 Eh
 * total energy  :  -145.0393223 Eh     change       -0.3829807E-06 Eh
 * total energy  :  -145.0393223 Eh     change       -0.1205180E-07 Eh
   *** GEOMETRY OPTIMIZATION CONVERGED AFTER 22 ITERATIONS ***

 final structure:
================
91
 xtb: 6.7.1 (edcfbbe)
N           -9.96950282395303        2.56233736377227        0.79537238218025
C           -9.04683175830356        1.95227760988520        0.47888720947408
C           -7.87895440104283        1.24367111520441        0.15969433386968
C           -6.87606228039838        1.79871339587116       -0.66645336187450
C           -7.06929726039941        3.04821754587441       -1.40890174247711
C           -5.99794515486802        3.93084137438354       -1.54145287269981
C           -6.15576277875302        5.11840551415585       -2.22929332281774
C           -7.37689869038655        5.42970174808937       -2.80677103717978
C           -8.43821369839059        4.54535784135290       -2.70034115205827
C           -8.28928262806109        3.35935500489276       -2.00507261458011
N           -5.69889340193807        1.20829028189885       -0.79012269573257
C           -5.48014974440655        0.06816008830101       -0.13730900554885
C           -4.16194327615450       -0.54048643004575       -0.25479015845605
C           -3.17518092775527        0.05821717822251       -1.04137934393021
C           -1.92785997678335       -0.51521561732863       -1.15281860012586
C           -1.63705856769040       -1.70285966061533       -0.47801065318923
N           -0.37578166825400       -2.28682970956579       -0.59445261416770
C           -0.12196492569657       -3.61934909690987       -0.87283661381302
C           -1.00862703191329       -4.64970047617228       -1.15117442167308
C           -0.48226431285162       -5.89575238159328       -1.43754045060473
C            0.89275565127416       -6.11752840591599       -1.45851033343693
C            1.78074521908759       -5.08872104623013       -1.21181895955432
C            1.27500766414237       -3.82830847718218       -0.92238547705739
C            1.88973612531149       -2.55630410657427       -0.65415418109604
C            3.20957852947569       -2.14466375036425       -0.55181472564431
C            3.48608238566087       -0.81851349318061       -0.24244057843910
C            4.87744920571514       -0.35324754634419       -0.12579961091891
C            5.83752860389693       -0.77433139242691       -1.05687574627321
C            7.15276222843128       -0.36240606148383       -0.99317159422396
C            7.51817854500814        0.49849546196984        0.03261117616164
C            6.57127634765398        0.91526932417528        0.99671398754994
C            5.25306206405716        0.49360069049616        0.90919962831754
C            7.28011145447340        1.74586029765301        1.93038373131681
C            6.89887789269130        2.44749591405629        3.06695394778035
C            7.85257971852240        3.18346826450156        3.74181952358205
C            9.16900530684919        3.23762782415615        3.28742068640009
C            9.57216622591307        2.54945275709492        2.15883947858725
C            8.62376723726776        1.78790103695352        1.49005208984298
N            8.75297868990418        1.03116454546289        0.34246670815879
C            9.93893907674910        0.83327866310197       -0.38333664482572
C           11.09298077172445        0.40445088263858        0.26601423884007
C           12.25964070545880        0.21576775858307       -0.45248699124102
C           12.28312438469437        0.44121986540642       -1.81919853926128
C           11.13369035494830        0.86254784714077       -2.46761972465375
C            9.96542041184373        1.06494515481192       -1.75560974847874
C            2.42724518117171        0.07387036432886       -0.02655865308385
C            1.10614397999367       -0.31360671536813       -0.12869829501036
C            0.83742697622634       -1.63309795502663       -0.46351991119814
C           -2.62145911460989       -2.30318142878360        0.30993278883156
C           -3.86896367049433       -1.72909457937134        0.41758811112368
N           -6.39220684897782       -0.55932447508025        0.60338944796279
C           -7.58223269842052       -0.00247440792546        0.75576558549217
C           -8.55338442415416       -0.73289706436501        1.57646431013456
C           -9.90456908584898       -0.77209301600024        1.24013710086688
C          -10.79537251041764       -1.47427151622485        2.03106809096382
C          -10.34982556783431       -2.13927464923904        3.16202359026775
C           -9.00424324882326       -2.11564007866549        3.49409807939160
C           -8.10781669418376       -1.42421807747242        2.70235477242959
H           -5.05408919238033        3.67529354584726       -1.08434218301062
H           -5.32509751358014        5.80262178927248       -2.31679806985638
H           -7.50035043282320        6.35782880829625       -3.34440175844684
H           -9.38663649314041        4.77676732130424       -3.16149611719098
H           -9.11498761906666        2.66511607102047       -1.94462923038436
H           -3.41322697482316        0.96742434582535       -1.57070933670800
H           -1.17548846578771       -0.06326544002145       -1.78103840006253
H           -2.07547978343492       -4.48637185674147       -1.15974836160394
H           -1.15329423813216       -6.71425210355685       -1.65373212159042
H            1.26532126186189       -7.10616864655598       -1.68300741858682
H            2.84688298077297       -5.25543830738972       -1.24738995424075
H            4.01229307177366       -2.85442491395620       -0.68339636058537
H            5.53107654628476       -1.42921230595977       -1.85949062258286
H            7.87387335666313       -0.70766900555234       -1.71863080086578
H            4.53396389439365        0.79918412704607        1.65455999553146
H            5.87548895046889        2.41751475807210        3.41059490397198
H            7.57748589620728        3.73356667815237        4.63000889698130
H            9.88985423992167        3.83399517020371        3.82786907495779
H           10.59062688760283        2.61170179851596        1.80591380398623
H           11.06520714020028        0.21006004862522        1.32804929479892
H           13.15246443835236       -0.11617026709414        0.05683368013303
H           13.19464490848184        0.28871898973528       -2.37746764735901
H           11.14810944146052        1.04339505574393       -3.53246003860822
H            9.07260552209547        1.41285007768349       -2.25388731943923
H            2.65470876489372        1.10216548615925        0.21351327764900
H            0.31130880595588        0.39286425868527        0.05635290418735
H           -2.39054088292005       -3.20876447108079        0.85012921037815
H           -4.63449383133698       -2.18449934373933        1.02576529874595
H          -10.25582747371494       -0.27326943327524        0.34833113492257
H          -11.84035652602920       -1.50163721770906        1.76100413772887
H          -11.05039518104816       -2.67998339723151        3.78049285349767
H           -8.65330484762354       -2.63793510073337        4.37154727182902
H           -7.05737055802944       -1.39549950537117        2.94892606342384

          :  Hamiltonian                  GFN2-xTB          :
         :: gradient norm              0.000091729420 Eh/a0 ::
         :: HOMO-LUMO gap              1.386892450438 eV    ::
         :: SCC energy              -147.792718106885 Eh    ::
         :: -> dispersion             -0.126949457990 Eh    ::
         :: -> Gsolv                  -0.065876915761 Eh    ::
         :: repulsion energy           2.753395792089 Eh    ::

    * Orbital Energies and Occupations

         #    Occupation            Energy/Eh            Energy/eV
      -------------------------------------------------------------
         1        2.0000           -0.6963311             -18.9481
       ...           ...                  ...                  ...
       123        2.0000           -0.4162562             -11.3269
       124        2.0000           -0.4150150             -11.2931
       125        2.0000           -0.4140705             -11.2674
       126        2.0000           -0.4118904             -11.2081
       127        2.0000           -0.4093279             -11.1384
       128        2.0000           -0.4083711             -11.1123
       129        2.0000           -0.4071287             -11.0785
       130        2.0000           -0.3986064             -10.8466
       131        2.0000           -0.3809825             -10.3671
       132        2.0000           -0.3807065             -10.3595
       133        2.0000           -0.3771983             -10.2641
       134        2.0000           -0.3679750             -10.0131
       135        2.0000           -0.3555879              -9.6760 (HOMO)
       136                         -0.3046205              -8.2891 (LUMO)
       137                         -0.2917020              -7.9376
       138                         -0.2563619              -6.9760
       139                         -0.2456697              -6.6850
       140                         -0.2448607              -6.6630
       141                         -0.2388290              -6.4989
       142                         -0.2382096              -6.4820
       143                         -0.2370967              -6.4517
       144                         -0.2369824              -6.4486
       145                         -0.2308758              -6.2824
       146                         -0.2303937              -6.2693
       ...                                ...                  ...
       265                          1.1497618              31.2866
      -------------------------------------------------------------
                  HL-Gap            0.0509674 Eh            1.3869 eV

     #   Z          covCN         q      C6AA      α(0)
     1   7 N        0.911    -0.284    27.335     7.562
     2   6 C        1.905     0.115    28.267     8.587
     3   6 C        2.963    -0.029    28.724     8.791
     4   6 C        2.967     0.121    25.333     8.256
     5   6 C        2.981    -0.002    28.060     8.689
     6   6 C        2.925    -0.023    28.589     8.768
     7   6 C        2.918    -0.025    28.639     8.776
     8   6 C        2.920    -0.022    28.566     8.765
     9   6 C        2.919    -0.025    28.636     8.775
    10   6 C        2.922    -0.027    28.676     8.782
    11   7 N        1.850    -0.283    28.186     7.869
    12   6 C        2.938     0.192    23.911     8.020
    13   6 C        2.984    -0.008    28.216     8.713
    14   6 C        2.922    -0.025    28.625     8.774
    15   6 C        2.920    -0.041    29.027     8.835
    16   6 C        2.912     0.072    26.386     8.423
    17   7 N        2.801    -0.037    21.950     6.958
    18   6 C        3.071     0.046    26.904     8.505
    19   6 C        2.910    -0.051    29.266     8.871
    20   6 C        2.924    -0.034    28.844     8.807
    21   6 C        2.920    -0.041    29.013     8.833
    22   6 C        2.912    -0.034    28.837     8.806
    23   6 C        3.066    -0.016    28.336     8.729
    24   6 C        3.063    -0.017    28.360     8.733
    25   6 C        2.918    -0.039    28.977     8.827
    26   6 C        2.976     0.001    28.008     8.681
    27   6 C        2.976    -0.002    28.076     8.692
    28   6 C        2.929    -0.040    28.988     8.830
    29   6 C        2.908    -0.053    29.306     8.877
    30   6 C        3.076     0.046    26.893     8.502
    31   6 C        3.064    -0.019    28.427     8.743
    32   6 C        2.918    -0.040    29.000     8.831
    33   6 C        3.068    -0.019    28.409     8.740
    34   6 C        2.912    -0.035    28.873     8.811
    35   6 C        2.919    -0.043    29.070     8.842
    36   6 C        2.924    -0.035    28.881     8.813
    37   6 C        2.909    -0.052    29.292     8.875
    38   6 C        3.076     0.048    26.855     8.496
    39   7 N        2.801    -0.047    22.143     6.989
    40   6 C        2.913     0.064    26.560     8.451
    41   6 C        2.922    -0.042    29.048     8.838
    42   6 C        2.920    -0.028    28.704     8.786
    43   6 C        2.919    -0.033    28.824     8.804
    44   6 C        2.920    -0.028    28.703     8.786
    45   6 C        2.922    -0.042    29.048     8.838
    46   6 C        2.929    -0.039    28.963     8.826
    47   6 C        2.908    -0.052    29.283     8.873
    48   6 C        3.071     0.043    26.956     8.513
    49   6 C        2.920    -0.041    29.029     8.835
    50   6 C        2.922    -0.025    28.624     8.774
    51   7 N        1.849    -0.283    28.191     7.869
    52   6 C        2.967     0.121    25.330     8.255
    53   6 C        2.981    -0.002    28.059     8.689
    54   6 C        2.922    -0.027    28.675     8.781
    55   6 C        2.919    -0.025    28.637     8.775
    56   6 C        2.920    -0.022    28.567     8.765
    57   6 C        2.918    -0.025    28.639     8.776
    58   6 C        2.925    -0.023    28.589     8.768
    59   1 H        0.926     0.049     2.336     2.390
    60   1 H        0.926     0.050     2.325     2.384
    61   1 H        0.926     0.050     2.322     2.383
    62   1 H        0.926     0.046     2.369     2.407
    63   1 H        0.926     0.029     2.595     2.519
    64   1 H        0.926     0.061     2.186     2.312
    65   1 H        0.926     0.055     2.255     2.348
    66   1 H        0.926     0.033     2.550     2.497
    67   1 H        0.926     0.033     2.549     2.497
    68   1 H        0.926     0.031     2.577     2.510
    69   1 H        0.926     0.033     2.538     2.491
    70   1 H        0.926     0.034     2.525     2.485
    71   1 H        0.926     0.032     2.554     2.499
    72   1 H        0.926     0.030     2.585     2.514
    73   1 H        0.926     0.031     2.568     2.506
    74   1 H        0.926     0.029     2.594     2.518
    75   1 H        0.926     0.027     2.632     2.537
    76   1 H        0.926     0.029     2.599     2.521
    77   1 H        0.926     0.029     2.596     2.520
    78   1 H        0.926     0.041     2.439     2.442
    79   1 H        0.926     0.040     2.454     2.450
    80   1 H        0.926     0.039     2.465     2.455
    81   1 H        0.926     0.040     2.451     2.448
    82   1 H        0.926     0.041     2.434     2.440
    83   1 H        0.926     0.034     2.526     2.485
    84   1 H        0.926     0.033     2.548     2.496
    85   1 H        0.926     0.055     2.256     2.349
    86   1 H        0.926     0.061     2.188     2.313
    87   1 H        0.926     0.029     2.598     2.521
    88   1 H        0.926     0.046     2.369     2.407
    89   1 H        0.926     0.050     2.322     2.383
    90   1 H        0.926     0.050     2.325     2.384
    91   1 H        0.926     0.048     2.341     2.393

molecular dipole:
                 x           y           z       tot (Debye)
 q only:        1.735      -0.658      -0.582
   full:        1.633      -0.662      -0.670       4.791

 projected vibrational frequencies (cm⁻¹)
eigval :       -0.00    -0.00    -0.00     0.00     0.00     0.00
eigval :        5.46     8.63    11.32    21.87    24.13    24.99
eigval :       29.37    38.37    42.13    47.67    49.74    62.53
eigval :       62.72    65.93    79.07    82.52    91.07    93.79
eigval :      110.27   113.72   121.49   129.82   133.45   141.62
eigval :      159.35   169.71   177.62   202.25   203.59   222.70
eigval :      227.27   231.32   234.39   244.19   254.06   268.07
eigval :      278.30   284.74   302.38   321.93   342.33   350.15
eigval :      355.93   366.08   373.22   373.29   377.47   378.64
eigval :      395.21   397.03   400.81   412.31   416.99   427.96
eigval :      431.43   434.12   443.89   452.47   471.67   478.31
eigval :      483.97   488.04   522.81   525.51   535.12   536.05
eigval :      554.51   570.89   576.27   580.33   582.65   586.55
eigval :      589.59   592.67   595.94   601.87   612.98   615.99
eigval :      619.13   624.63   632.36   633.56   643.81   664.03
eigval :      668.14   672.37   675.88   676.29   687.85   696.19
eigval :      703.47   707.79   709.22   724.42   737.92   755.31
eigval :      759.47   765.38   767.19   768.88   774.56   776.58
eigval :      812.28   829.52   832.01   836.56   847.25   868.21
eigval :      868.92   871.94   873.97   875.10   876.21   876.54
eigval :      879.06   881.84   893.91   900.80   904.24   904.79
eigval :      905.10   907.52   913.67   915.95   919.13   921.59
eigval :      923.26   926.22   928.06   928.48   929.09   929.93
eigval :      930.30   931.45   932.28   935.89   939.94   971.13
eigval :      985.12   997.23  1011.55  1012.19  1029.61  1065.06
eigval :     1070.21  1071.74  1073.00  1079.79  1080.11  1082.21
eigval :     1117.60  1118.09  1119.04  1119.70  1123.13  1125.01
eigval :     1144.50  1153.45  1156.13  1172.79  1174.99  1177.27
eigval :     1177.90  1179.11  1179.27  1180.92  1183.34  1194.70
eigval :     1196.25  1196.97  1199.62  1211.15  1230.76  1240.05
eigval :     1245.19  1246.12  1252.63  1255.78  1256.62  1273.34
eigval :     1274.63  1276.57  1278.24  1289.56  1301.07  1315.33
eigval :     1316.47  1320.40  1320.57  1326.34  1343.35  1349.66
eigval :     1353.98  1358.15  1360.79  1367.98  1374.94  1382.36
eigval :     1386.61  1410.14  1416.93  1420.26  1423.23  1426.76
eigval :     1427.68  1432.36  1436.44  1456.99  1471.21  1473.44
eigval :     1475.66  1479.52  1480.35  1481.84  1490.68  1498.80
eigval :     1500.14  1555.09  1563.52  1568.98  1578.91  1579.06
eigval :     1581.27  1582.34  1583.45  1586.98  1592.55  1592.87
eigval :     1593.24  1594.61  1597.90  1609.35  1614.90  2332.27
eigval :     3070.03  3073.64  3075.74  3075.91  3075.93  3076.29
eigval :     3076.75  3078.48  3078.80  3079.81  3080.58  3081.25
eigval :     3083.10  3084.37  3086.69  3086.83  3086.97  3087.13
eigval :     3088.07  3088.57  3090.65  3091.07  3091.85  3093.11
eigval :     3094.12  3094.15  3094.33  3095.29  3096.98  3099.26
eigval :     3099.68  3108.36  3109.30

   temp. (K)  partition function   enthalpy   heat capacity  entropy
                                   cal/mol     cal/K/mol   cal/K/mol   J/K/mol
 298.15  VIB  0.903E+22            26888.876    167.813    169.369
         ROT  0.253E+09              888.752      2.981     41.431
         INT  0.228E+31            27777.629    170.794    210.800
         TR   0.195E+29             1481.254      4.968     45.663
         TOT                       29258.8825   175.7619   256.4623  1073.0381

       T/K    H(0)-H(T)+PV         H(T)/Eh          T*S/Eh         G(T)/Eh
   ------------------------------------------------------------------------
    298.15    0.466270E-01    0.734657E+00    0.121853E+00    0.612803E+00
   ------------------------------------------------------------------------

         :::::::::::::::::::::::::::::::::::::::::::::::::::::
         ::                  THERMODYNAMIC                  ::
         :::::::::::::::::::::::::::::::::::::::::::::::::::::
         :: total free energy        -144.426519107872 Eh   ::
         ::.................................................::
         :: total energy             -145.039322315512 Eh   ::
         :: zero point energy           0.688029708380 Eh   ::
         :: G(RRHO) w/o ZPVE           -0.075226500741 Eh   ::
         :: G(RRHO) contrib.            0.612803207639 Eh   ::
         :::::::::::::::::::::::::::::::::::::::::::::::::::::

           -------------------------------------------------
          | TOTAL ENERGY             -145.039322315512 Eh   |
          | TOTAL ENTHALPY           -144.304665609931 Eh   |
          | TOTAL FREE ENERGY        -144.426519107872 Eh   |
          | GRADIENT NORM               0.000091641199 Eh/α |
          | HOMO-LUMO GAP               1.386892744102 eV   |
           -------------------------------------------------

 * finished run on 2025/09/08 at 12:46:59.534
