   * xtb version 6.7.1 (edcfbbe) compiled by 'albert@albert-system' on 2024-07-22

   ID    Z sym.   atoms
    1    7 N      1, 11, 17, 39, 51
    2    6 C      2-10, 12-16, 18-38, 40-50, 52-58
    3    1 H      59-91

          program call               : xtb data2507/toluene/2PyCNBCz/2PyCNBCz.xyz --gfn 2 --gbsa toluene --ohess vtight --parallel 40 --molden --ceasefiles --namespace data2507/toluene/2PyCNBCz/2PyCNBCz_toluene_S0_preOpt
      * Solvation model:               GBSA
        Solvent                        toluene
        Solvent mass                       9.2140E+01 g/mol
          :  Hamiltonian                  GFN2-xTB          :
 * total energy  :  -145.0116180 Eh     change       -0.1591786E-08 Eh
 * total energy  :  -145.0287640 Eh     change       -0.1714594E-01 Eh
 * total energy  :  -145.0333942 Eh     change       -0.4630268E-02 Eh
 * total energy  :  -145.0348584 Eh     change       -0.1464136E-02 Eh
 * total energy  :  -145.0360376 Eh     change       -0.1179255E-02 Eh
 * total energy  :  -145.0365639 Eh     change       -0.5262389E-03 Eh
 * total energy  :  -145.0369226 Eh     change       -0.3587485E-03 Eh
 * total energy  :  -145.0372588 Eh     change       -0.3361486E-03 Eh
 * total energy  :  -145.0375703 Eh     change       -0.3115420E-03 Eh
 * total energy  :  -145.0378023 Eh     change       -0.2320051E-03 Eh
 * total energy  :  -145.0392551 Eh     change       -0.7984765E-06 Eh
 * total energy  :  -145.0392559 Eh     change       -0.8550950E-06 Eh
 * total energy  :  -145.0392568 Eh     change       -0.8704482E-06 Eh
 * total energy  :  -145.0392576 Eh     change       -0.8522643E-06 Eh
 * total energy  :  -145.0392585 Eh     change       -0.8192857E-06 Eh
 * total energy  :  -145.0392593 Eh     change       -0.7903876E-06 Eh
 * total energy  :  -145.0392600 Eh     change       -0.7461925E-06 Eh
 * total energy  :  -145.0392607 Eh     change       -0.6943230E-06 Eh
 * total energy  :  -145.0392607 Eh     change       -0.2662205E-08 Eh
   *** GEOMETRY OPTIMIZATION CONVERGED AFTER 94 ITERATIONS ***

 final structure:
================
91
 xtb: 6.7.1 (edcfbbe)
N          -10.22642579470753        2.59122144449008        0.98037389935708
C           -9.29064241781994        2.02000196117127        0.63151781825367
C           -8.11140927275422        1.34891368438075        0.27514392870199
C           -7.07864519564666        1.99159134335568       -0.44373334884847
C           -7.23644049247828        3.32316875380111       -1.03711213897910
C           -6.15196885545842        4.19976851991376       -1.03144702211217
C           -6.27150952454811        5.45856986231287       -1.58758638669034
C           -7.46702122222792        5.84992913057774       -2.16993054223256
C           -8.54144400732444        4.97559362082903       -2.19872406520428
C           -8.43102472995215        3.71766100500342       -1.63514179710574
N           -5.90188398495671        1.40875731769099       -0.60277936304935
C           -5.71118677264405        0.19412829675697       -0.09098733084691
C           -4.39933966864624       -0.41607725172711       -0.26032338278104
C           -3.38852850380594        0.26292769027567       -0.94459817194597
C           -2.15096259967108       -0.31619672200031       -1.11699025987980
C           -1.89341109982228       -1.59041451280375       -0.60630157389392
N           -0.64328742665159       -2.18096467078211       -0.79012619737916
C           -0.41277278010902       -3.46782191720749       -1.24766688440640
C           -1.31630150513828       -4.43863724199904       -1.65589480980792
C           -0.81063340350936       -5.64419528557031       -2.10625713653408
C            0.56049592435585       -5.88253223418279       -2.16425935110121
C            1.46537744764439       -4.90918860782493       -1.78816243715186
C            0.98041757692636       -3.69090929146159       -1.33137504053748
C            1.61744033251589       -2.47758661578848       -0.89600827729897
C            2.94442582855488       -2.10577105779870       -0.74563068264110
C            3.24417191753415       -0.83985393529534       -0.25774720510487
C            4.64410877322997       -0.41442930364124       -0.09694588618144
C            5.58005938366484       -0.70104179426638       -1.10091044537809
C            6.90109970993275       -0.31504301574862       -1.00495307047765
C            7.29713143702123        0.37863241281427        0.13032147193527
C            6.37560192568144        0.65383270591903        1.16707042373924
C            5.05030420895831        0.26339867491997        1.04528346115642
C            7.11368978871073        1.32965905926641        2.19799211935580
C            6.76489808720483        1.85722108793993        3.43475475701404
C            7.74052054084143        2.47908783564273        4.18852474828695
C            9.04749973129863        2.58992452357372        3.71737381014826
C            9.41872793350378        2.07345491395329        2.49056906109828
C            8.44789589899437        1.42712596926227        1.73800322564984
N            8.54397802934866        0.84976256490677        0.48754860907420
C            9.70919384427674        0.76334734244444       -0.29195452523453
C           10.87742402226441        0.23698987048968        0.25160564134055
C           12.02369331770125        0.16045971204375       -0.51863090522867
C           12.01242507384306        0.59568959611296       -1.83381102961504
C           10.84859023528124        1.11401944006384       -2.37793431097328
C            9.70049038798274        1.20447744191362       -1.61214014432520
C            2.20167298896717        0.02956306167334        0.09020975468073
C            0.87382682283186       -0.31777853676651       -0.05874851939411
C            0.58154816989668       -1.57230924420989       -0.57476392305003
C           -2.90051333504321       -2.26928272856869        0.08301967372618
C           -4.13861827465870       -1.68926177304367        0.25121004054904
N           -6.64706035142027       -0.50636510734116        0.54748368733273
C           -7.83732259467723        0.04029259112464        0.73219608670052
C           -8.83219046725320       -0.77244902818432        1.43955004615057
C          -10.17372459929130       -0.76957050882635        1.06474512380885
C          -11.08496327320455       -1.55572554226241        1.74580670782545
C          -10.66984085157386       -2.34674229268926        2.80489213528086
C           -9.33395914032276       -2.36344409318079        3.17445577352508
C           -8.41709298627652       -1.58797843406043        2.49153409134187
H           -5.22774014210852        3.88045513491836       -0.57433913468534
H           -5.43067776864054        6.13570468363283       -1.56895700451229
H           -7.56039969435398        6.83313601160336       -2.60619646914876
H           -9.47011257378465        5.27136402085480       -2.66330423164585
H           -9.26615320950962        3.03372066159404       -1.68060164333027
H           -3.60090414756456        1.23997916440605       -1.34922345796488
H           -1.38081108634653        0.20048618124112       -1.66913597056648
H           -2.38056947501675       -4.26029912198169       -1.63730393100579
H           -1.49523756169632       -6.41697495481260       -2.42429237578889
H            0.91648928520890       -6.83841482204982       -2.51939035238693
H            2.52872124270065       -5.08532552597276       -1.85113287630775
H            3.73499399000144       -2.80240792393821       -0.98050943005981
H            5.24915417987713       -1.22563757234758       -1.98540691807125
H            7.60360190919464       -0.55349851435805       -1.78931712248037
H            4.34899843597930        0.46229747527021        1.84197632040556
H            5.74907461078535        1.78355715469982        3.79402885809796
H            7.49064763055834        2.89372288799752        5.15431127731288
H            9.78634464483381        3.09426739036077        4.32330264817913
H           10.43016923545103        2.17888382986777        2.12792046556304
H           10.87672618546421       -0.11964125950751        1.27101084770013
H           12.92764751976542       -0.24858077150509       -0.09168475790793
H           12.90824257496920        0.53104708612326       -2.43308891365946
H           10.83582159326521        1.45792300190286       -3.40182553330676
H            8.79680618039887        1.62679223808105       -2.02615356686104
H            2.44786969884549        1.00945502325127        0.47225951154071
H            0.09178963540721        0.36843633703189        0.22868265440028
H           -2.69530494321990       -3.24351500962113        0.49976212742140
H           -4.92179513119728       -2.20662868954030        0.78261789424849
H          -10.50115077313945       -0.17118778926309        0.22681590572376
H          -12.12215876408983       -1.55015729698487        1.44588836416309
H          -11.38635987242102       -2.95371869324193        3.33768234986067
H           -9.00653793814749       -2.98338241677811        3.99561753004269
H           -7.37376867884506       -1.58945860833278        2.76837400438104

          :  Hamiltonian                  GFN2-xTB          :
         :: gradient norm              0.000043048179 Eh/a0 ::
         :: HOMO-LUMO gap              1.390558743304 eV    ::
         :: SCC energy              -147.792580636224 Eh    ::
         :: -> dispersion             -0.126920549751 Eh    ::
         :: -> Gsolv                  -0.065847808412 Eh    ::
         :: repulsion energy           2.753319940637 Eh    ::

    * Orbital Energies and Occupations

         #    Occupation            Energy/Eh            Energy/eV
      -------------------------------------------------------------
         1        2.0000           -0.6962829             -18.9468
       ...           ...                  ...                  ...
       123        2.0000           -0.4161895             -11.3251
       124        2.0000           -0.4150045             -11.2928
       125        2.0000           -0.4140511             -11.2669
       126        2.0000           -0.4118950             -11.2082
       127        2.0000           -0.4093331             -11.1385
       128        2.0000           -0.4083803             -11.1126
       129        2.0000           -0.4070741             -11.0770
       130        2.0000           -0.3986716             -10.8484
       131        2.0000           -0.3809941             -10.3674
       132        2.0000           -0.3806229             -10.3573
       133        2.0000           -0.3771894             -10.2638
       134        2.0000           -0.3679338             -10.0120
       135        2.0000           -0.3556889              -9.6788 (HOMO)
       136                         -0.3045868              -8.2882 (LUMO)
       137                         -0.2916678              -7.9367
       138                         -0.2562838              -6.9738
       139                         -0.2456804              -6.6853
       140                         -0.2448625              -6.6630
       141                         -0.2387448              -6.4966
       142                         -0.2381105              -6.4793
       143                         -0.2369718              -6.4483
       144                         -0.2369188              -6.4469
       145                         -0.2308257              -6.2811
       146                         -0.2304165              -6.2700
       ...                                ...                  ...
       265                          1.1498059              31.2878
      -------------------------------------------------------------
                  HL-Gap            0.0511021 Eh            1.3906 eV

     #   Z          covCN         q      C6AA      α(0)
     1   7 N        0.911    -0.284    27.332     7.561
     2   6 C        1.905     0.115    28.266     8.586
     3   6 C        2.963    -0.029    28.724     8.791
     4   6 C        2.967     0.121    25.333     8.256
     5   6 C        2.981    -0.002    28.060     8.689
     6   6 C        2.925    -0.023    28.588     8.768
     7   6 C        2.918    -0.025    28.639     8.776
     8   6 C        2.920    -0.022    28.566     8.765
     9   6 C        2.919    -0.025    28.637     8.775
    10   6 C        2.922    -0.027    28.677     8.782
    11   7 N        1.850    -0.283    28.188     7.869
    12   6 C        2.938     0.192    23.910     8.019
    13   6 C        2.984    -0.008    28.217     8.714
    14   6 C        2.922    -0.025    28.626     8.774
    15   6 C        2.920    -0.041    29.028     8.835
    16   6 C        2.912     0.072    26.386     8.423
    17   7 N        2.800    -0.037    21.949     6.958
    18   6 C        3.070     0.046    26.904     8.505
    19   6 C        2.910    -0.051    29.267     8.871
    20   6 C        2.924    -0.034    28.844     8.807
    21   6 C        2.920    -0.041    29.012     8.833
    22   6 C        2.912    -0.034    28.837     8.806
    23   6 C        3.067    -0.016    28.334     8.728
    24   6 C        3.063    -0.017    28.359     8.733
    25   6 C        2.918    -0.039    28.976     8.827
    26   6 C        2.977     0.001    28.006     8.681
    27   6 C        2.976    -0.002    28.076     8.692
    28   6 C        2.929    -0.040    28.987     8.830
    29   6 C        2.908    -0.053    29.306     8.877
    30   6 C        3.077     0.046    26.892     8.502
    31   6 C        3.064    -0.019    28.428     8.743
    32   6 C        2.917    -0.040    28.998     8.831
    33   6 C        3.068    -0.019    28.408     8.740
    34   6 C        2.912    -0.035    28.872     8.811
    35   6 C        2.919    -0.043    29.070     8.842
    36   6 C        2.924    -0.035    28.881     8.813
    37   6 C        2.909    -0.052    29.293     8.875
    38   6 C        3.076     0.048    26.854     8.496
    39   7 N        2.801    -0.047    22.144     6.989
    40   6 C        2.913     0.064    26.560     8.451
    41   6 C        2.922    -0.042    29.048     8.838
    42   6 C        2.920    -0.028    28.704     8.786
    43   6 C        2.919    -0.033    28.823     8.804
    44   6 C        2.920    -0.028    28.703     8.786
    45   6 C        2.922    -0.042    29.047     8.838
    46   6 C        2.929    -0.039    28.962     8.826
    47   6 C        2.908    -0.052    29.281     8.873
    48   6 C        3.071     0.043    26.957     8.513
    49   6 C        2.920    -0.042    29.032     8.836
    50   6 C        2.922    -0.025    28.624     8.774
    51   7 N        1.850    -0.283    28.193     7.870
    52   6 C        2.967     0.121    25.330     8.255
    53   6 C        2.981    -0.002    28.059     8.689
    54   6 C        2.922    -0.027    28.676     8.782
    55   6 C        2.919    -0.025    28.637     8.775
    56   6 C        2.920    -0.023    28.568     8.765
    57   6 C        2.918    -0.025    28.640     8.776
    58   6 C        2.925    -0.023    28.589     8.768
    59   1 H        0.926     0.049     2.336     2.390
    60   1 H        0.926     0.050     2.325     2.384
    61   1 H        0.926     0.050     2.322     2.383
    62   1 H        0.926     0.046     2.369     2.407
    63   1 H        0.926     0.029     2.595     2.519
    64   1 H        0.926     0.061     2.186     2.312
    65   1 H        0.926     0.055     2.256     2.349
    66   1 H        0.926     0.033     2.548     2.496
    67   1 H        0.926     0.033     2.549     2.497
    68   1 H        0.926     0.031     2.577     2.510
    69   1 H        0.926     0.033     2.537     2.491
    70   1 H        0.926     0.034     2.525     2.485
    71   1 H        0.926     0.032     2.555     2.499
    72   1 H        0.926     0.030     2.585     2.514
    73   1 H        0.926     0.031     2.569     2.506
    74   1 H        0.926     0.029     2.593     2.518
    75   1 H        0.926     0.027     2.632     2.537
    76   1 H        0.926     0.029     2.600     2.521
    77   1 H        0.926     0.029     2.596     2.520
    78   1 H        0.926     0.041     2.438     2.442
    79   1 H        0.926     0.040     2.453     2.449
    80   1 H        0.926     0.039     2.465     2.455
    81   1 H        0.926     0.040     2.451     2.448
    82   1 H        0.926     0.041     2.434     2.440
    83   1 H        0.926     0.034     2.526     2.486
    84   1 H        0.926     0.033     2.547     2.496
    85   1 H        0.926     0.055     2.255     2.348
    86   1 H        0.926     0.061     2.188     2.313
    87   1 H        0.926     0.029     2.597     2.520
    88   1 H        0.926     0.046     2.369     2.407
    89   1 H        0.926     0.050     2.323     2.383
    90   1 H        0.926     0.050     2.326     2.385
    91   1 H        0.926     0.048     2.343     2.393

molecular dipole:
                 x           y           z       tot (Debye)
 q only:        1.747      -0.587      -0.642
   full:        1.649      -0.576      -0.732       4.815

 projected vibrational frequencies (cm⁻¹)
eigval :       -0.00    -0.00    -0.00    -0.00     0.00     0.00
eigval :        7.17    10.10    10.57    21.23    23.74    25.93
eigval :       29.61    34.01    40.22    45.28    50.59    60.71
eigval :       63.40    67.21    79.44    84.03    92.28    94.80
eigval :      110.07   114.93   122.72   130.19   134.57   143.09
eigval :      158.82   169.00   178.38   202.19   204.51   222.60
eigval :      226.89   231.47   233.90   244.54   254.02   267.41
eigval :      277.77   284.60   302.87   322.00   342.29   349.50
eigval :      355.22   364.61   371.26   371.75   378.78   379.45
eigval :      392.77   395.39   398.84   411.14   417.30   426.42
eigval :      431.65   433.68   443.92   452.13   471.72   477.76
eigval :      483.83   488.55   522.83   525.20   536.07   537.37
eigval :      554.25   570.69   576.30   580.28   582.94   586.70
eigval :      589.25   592.32   595.68   601.64   612.97   615.29
eigval :      619.24   624.47   632.86   634.56   643.99   663.58
eigval :      667.25   672.15   674.76   675.92   687.86   696.29
eigval :      703.88   706.91   708.56   724.57   737.87   754.94
eigval :      760.08   765.23   767.06   769.47   773.61   775.21
eigval :      813.41   831.49   832.04   838.13   847.45   867.22
eigval :      867.65   870.11   872.57   874.94   875.44   877.22
eigval :      879.14   882.84   893.92   900.31   901.40   903.58
eigval :      903.73   904.26   912.10   915.16   919.06   921.32
eigval :      922.17   925.61   927.52   928.41   929.61   931.02
eigval :      932.44   932.65   934.71   938.68   940.07   971.31
eigval :      985.35   997.10  1011.64  1012.21  1029.74  1065.20
eigval :     1069.82  1071.33  1073.31  1078.54  1079.97  1082.27
eigval :     1114.90  1117.46  1118.75  1119.34  1122.28  1125.32
eigval :     1144.42  1153.00  1155.48  1173.37  1175.26  1175.40
eigval :     1176.76  1177.64  1178.13  1178.41  1181.24  1193.74
eigval :     1195.43  1197.22  1197.50  1210.80  1230.41  1239.92
eigval :     1245.10  1245.32  1252.89  1255.64  1256.73  1272.25
eigval :     1273.90  1275.03  1277.95  1288.63  1300.19  1315.16
eigval :     1316.29  1320.40  1320.70  1326.37  1343.22  1349.54
eigval :     1353.86  1357.60  1360.45  1367.71  1374.72  1382.19
eigval :     1386.33  1410.12  1416.71  1420.13  1423.14  1426.87
eigval :     1427.60  1431.89  1436.56  1456.92  1470.95  1473.39
eigval :     1475.72  1479.00  1480.00  1481.57  1490.66  1498.57
eigval :     1499.99  1554.90  1563.36  1568.63  1578.86  1579.06
eigval :     1581.11  1582.12  1583.33  1586.98  1592.48  1593.04
eigval :     1593.13  1594.46  1597.72  1609.13  1614.64  2332.14
eigval :     3070.28  3073.51  3075.10  3075.48  3075.89  3076.14
eigval :     3076.46  3076.93  3078.81  3079.72  3080.69  3081.88
eigval :     3083.37  3084.46  3086.12  3086.58  3086.77  3087.71
eigval :     3088.24  3088.70  3089.73  3091.27  3092.02  3093.93
eigval :     3094.45  3094.70  3094.86  3095.99  3096.44  3099.32
eigval :     3100.44  3108.38  3109.67

   temp. (K)  partition function   enthalpy   heat capacity  entropy
                                   cal/mol     cal/K/mol   cal/K/mol   J/K/mol
 298.15  VIB  0.722E+22            26896.289    167.738    168.951
         ROT  0.253E+09              888.752      2.981     41.431
         INT  0.183E+31            27785.042    170.719    210.382
         TR   0.195E+29             1481.254      4.968     45.663
         TOT                       29266.2955   175.6869   256.0448  1071.2914

       T/K    H(0)-H(T)+PV         H(T)/Eh          T*S/Eh         G(T)/Eh
   ------------------------------------------------------------------------
    298.15    0.466388E-01    0.734553E+00    0.121655E+00    0.612898E+00
   ------------------------------------------------------------------------

         :::::::::::::::::::::::::::::::::::::::::::::::::::::
         ::                  THERMODYNAMIC                  ::
         :::::::::::::::::::::::::::::::::::::::::::::::::::::
         :: total free energy        -144.426363066041 Eh   ::
         ::.................................................::
         :: total energy             -145.039260695053 Eh   ::
         :: zero point energy           0.687913956418 Eh   ::
         :: G(RRHO) w/o ZPVE           -0.075016327406 Eh   ::
         :: G(RRHO) contrib.            0.612897629012 Eh   ::
         :::::::::::::::::::::::::::::::::::::::::::::::::::::

           -------------------------------------------------
          | TOTAL ENERGY             -145.039260695053 Eh   |
          | TOTAL ENTHALPY           -144.304707928107 Eh   |
          | TOTAL FREE ENERGY        -144.426363066041 Eh   |
          | GRADIENT NORM               0.000043068812 Eh/α |
          | HOMO-LUMO GAP               1.390559125810 eV   |
           -------------------------------------------------

 * finished run on 2025/09/08 at 12:40:54.699
