   * xtb version 6.7.1 (edcfbbe) compiled by 'albert@albert-system' on 2024-07-22

   ID    Z sym.   atoms
    1    7 N      1, 11, 17, 39, 51
    2    6 C      2-10, 12-16, 18-38, 40-50, 52-58
    3    1 H      59-91

          program call               : xtb data2507/toluene/2PyCNBCz/2PyCNBCz_toluene_T1_crest.xyz --gfn 2 --uhf 2 --gbsa toluene --ohess vtight --parallel 40 --molden --ceasefiles --namespace data2507/toluene/2PyCNBCz/2PyCNBCz_toluene_T1_finalOpt
      * Solvation model:               GBSA
        Solvent                        toluene
        Solvent mass                       9.2140E+01 g/mol
          :  Hamiltonian                  GFN2-xTB          :
 * total energy  :  -144.9697196 Eh     change       -0.6349205E-07 Eh
 * total energy  :  -144.9698951 Eh     change       -0.1755332E-03 Eh
 * total energy  :  -144.9699732 Eh     change       -0.7801360E-04 Eh
 * total energy  :  -144.9699817 Eh     change       -0.8527225E-05 Eh
 * total energy  :  -144.9699880 Eh     change       -0.6339463E-05 Eh
 * total energy  :  -144.9699927 Eh     change       -0.4636940E-05 Eh
 * total energy  :  -144.9699985 Eh     change       -0.5825119E-05 Eh
 * total energy  :  -144.9700024 Eh     change       -0.3894189E-05 Eh
 * total energy  :  -144.9700059 Eh     change       -0.3482866E-05 Eh
 * total energy  :  -144.9700089 Eh     change       -0.3066307E-05 Eh
 * total energy  :  -144.9700598 Eh     change       -0.2159606E-06 Eh
 * total energy  :  -144.9700600 Eh     change       -0.2443294E-06 Eh
 * total energy  :  -144.9700602 Eh     change       -0.2318906E-06 Eh
 * total energy  :  -144.9700605 Eh     change       -0.2162816E-06 Eh
 * total energy  :  -144.9700607 Eh     change       -0.2622398E-06 Eh
 * total energy  :  -144.9700610 Eh     change       -0.3316464E-06 Eh
 * total energy  :  -144.9700613 Eh     change       -0.2893829E-06 Eh
 * total energy  :  -144.9700613 Eh     change        0.7317473E-07 Eh
 * total energy  :  -144.9700614 Eh     change       -0.8823093E-07 Eh
   *** GEOMETRY OPTIMIZATION CONVERGED AFTER 69 ITERATIONS ***

 final structure:
================
91
 xtb: 6.7.1 (edcfbbe)
N          -10.43523527620091        1.95875979529566        0.17244117526078
C           -9.33215946718085        1.60227665246428        0.24342716315661
C           -8.02616811466714        1.16295908980625        0.27925209384011
C           -6.94180193343315        1.91311448149777       -0.29370704954613
C           -7.11202494152360        3.30632840347142       -0.71816615393804
C           -7.91139696777527        4.19493746202252       -0.00206298013871
C           -8.03722517714082        5.50731891051813       -0.41827926640903
C           -7.37240397619434        5.94922429769872       -1.55079194521071
C           -6.56551716138661        5.07401010568676       -2.26136990715701
C           -6.43082220281530        3.76374661473017       -1.84702420709933
N           -5.76814555910508        1.37972032511976       -0.46461940369586
C           -5.49886834887459        0.11731335351061       -0.06126164864605
C           -4.20326618965700       -0.43135095016813       -0.26840889846746
C           -3.20755532305691        0.30337202551191       -0.94473138125454
C           -1.96057075197296       -0.22697955465777       -1.15272230940394
C           -1.65111131795299       -1.51132354987340       -0.68742578905073
N           -0.37262762169269       -2.04585169456876       -0.89142153052296
C           -0.09296715130554       -3.29643424435055       -1.41263486294251
C           -0.96198462557192       -4.27427824491697       -1.87629601881805
C           -0.41162351330986       -5.44344139460129       -2.37193764951141
C            0.96652898355024       -5.63511355594860       -2.41758890351847
C            1.83859278697170       -4.65196896588842       -1.98150598074363
C            1.30947680040565       -3.47275368266630       -1.48057327894629
C            1.89543114585582       -2.25978746570957       -0.97056447148198
C            3.19782716672864       -1.84308607168365       -0.78063142621121
C            3.44030511756077       -0.57440533475867       -0.24639068108495
C            4.80998339876726       -0.10042154942578       -0.05968799669714
C            5.12624677697939        1.25291763624873       -0.27916805720406
C            6.40268990394009        1.74335673853407       -0.11992595992670
C            7.39680090263073        0.86121272918813        0.29390624966919
C            7.10473864199938       -0.51029832577738        0.50411182595283
C            5.81998299045061       -0.98566152545965        0.32360391741979
C            8.34669779131533       -1.13534021879415        0.87897273352769
C            8.69924414724211       -2.43281245517499        1.22005845826551
C           10.01696436518901       -2.69413856038348        1.55116553785710
C           10.97028962761886       -1.67939447376616        1.55709323263292
C           10.64165798922234       -0.37813588244338        1.22069823517697
C            9.32620464016312       -0.11550195189570        0.86663976241716
N            8.73283550996066        1.08272467861400        0.51232360503130
C            9.38906711514286        2.32049386699353        0.40215797406474
C           10.53352099180837        2.43502989457491       -0.38172568804392
C           11.17673307099941        3.65505190309467       -0.48498674373036
C           10.68297224068751        4.76423933149071        0.18289109166753
C            9.54183207283059        4.65078268284804        0.96062644487202
C            8.89451559850013        3.43394565521895        1.07540461926949
C            2.35150292612215        0.23932234000944        0.11825142207581
C            1.04606574925479       -0.16294459088591       -0.04949677450517
C            0.81201668143849       -1.41141337762537       -0.62211350747334
C           -2.62920514367902       -2.25090280297291       -0.01084625537403
C           -3.87916533360756       -1.72450051959387        0.19162300636402
N           -6.44976170962299       -0.60752485342690        0.56718027250736
C           -7.65049413604522       -0.14201325747083        0.75375635033879
C           -8.59679086644562       -1.00437355883046        1.46737351868057
C           -9.55773077109459       -0.48540823868650        2.33309687121913
C          -10.42639629856652       -1.33197436746963        2.99654171685543
C          -10.35102827618707       -2.70232653397695        2.80604806604939
C           -9.38999649909366       -3.22726856098556        1.95567928085390
C           -8.51581571426828       -2.38752684941826        1.29497959261254
H           -8.42183701316555        3.86283864353259        0.89037400139036
H           -8.65878627049580        6.18675379657169        0.14638129050048
H           -7.48085481281202        6.97320435677271       -1.87609344562134
H           -6.04137638261977        5.41438388369914       -3.14247094370756
H           -5.80817404372858        3.07158781404463       -2.39414412697396
H           -3.45605906634672        1.29088107844909       -1.30194343249959
H           -1.21520164645343        0.33061333725027       -1.70073261118442
H           -2.03057555611494       -4.12567349259826       -1.86146592779983
H           -1.06654342461588       -6.22123898957329       -2.73550384408349
H            1.35809101645317       -6.56169931257623       -2.80999202505578
H            2.90675735476458       -4.79651460248857       -2.03510524055555
H            4.01854084221098       -2.47960692345098       -1.07214157006751
H            4.34862307331591        1.92033553688592       -0.61772497245462
H            6.62658319252980        2.77903612352922       -0.32467378962300
H            5.59564329821307       -2.02460377930794        0.50801334643096
H            7.95943870398952       -3.21864406830377        1.23145824297219
H           10.31242074327002       -3.69780400659339        1.81856328263847
H           11.98800329565704       -1.91147569382383        1.83389799546646
H           11.38385926706381        0.40493457711362        1.24277414321610
H           10.90204390620070        1.57297427251549       -0.91740867719879
H           12.06304195605797        3.74096682750966       -1.09585846125877
H           11.18676193865219        5.71520768172779        0.09765570674590
H            9.15698259554303        5.51191467927056        1.48635237109957
H            8.01698112823115        3.33581136241855        1.69703119016325
H            2.54714864888801        1.19620510700913        0.57751083125041
H            0.22727821930030        0.46444372883400        0.26731995826289
H           -2.38019984394144       -3.22794503728831        0.37660734541891
H           -4.63470085929841       -2.28168061506786        0.72405309493769
H           -9.61622662128129        0.58043180128507        2.49918241021207
H          -11.16556704861194       -0.91672578733981        3.66584799853593
H          -11.03715194734278       -3.35824285679148        3.32092552507570
H           -9.32356833319064       -4.29512676623463        1.80659340659339
H           -7.76541605251440       -2.78419888448444        0.62738442880534

          :  Hamiltonian                  GFN2-xTB          :
         :: gradient norm              0.000091458789 Eh/a0 ::
         :: HOMO-LUMO gap              0.403781049962 eV    ::
         :: SCC energy              -147.713346564071 Eh    ::
         :: -> dispersion             -0.126769019226 Eh    ::
         :: -> Gsolv                  -0.076450632844 Eh    ::
         :: repulsion energy           2.743285213723 Eh    ::

    * Orbital Energies and Occupations

         #    Occupation            Energy/Eh            Energy/eV
      -------------------------------------------------------------
         1        2.0000           -0.6902323             -18.7822
       ...           ...                  ...                  ...
       124        2.0000           -0.4094405             -11.1414
       125        2.0000           -0.4093001             -11.1376
       126        2.0000           -0.4089146             -11.1271
       127        2.0000           -0.4059415             -11.0462
       128        2.0000           -0.4048749             -11.0172
       129        2.0000           -0.3971852             -10.8080
       130        2.0000           -0.3924031             -10.6778
       131        2.0000           -0.3898519             -10.6084
       132        2.0000           -0.3865714             -10.5191
       133        2.0000           -0.3763293             -10.2404
       134        1.6822           -0.3654534              -9.9445
       135        1.3178           -0.3640022              -9.9050
       136        0.9996           -0.2870522              -7.8111 (HOMO)
       137        0.0004           -0.2722138              -7.4073 (LUMO)
       138                         -0.2566749              -6.9845
       139                         -0.2558943              -6.9632
       140                         -0.2532848              -6.8922
       141                         -0.2432948              -6.6204
       142                         -0.2402836              -6.5384
       143                         -0.2377070              -6.4683
       144                         -0.2275950              -6.1932
       145                         -0.2270104              -6.1773
       146                         -0.2268354              -6.1725
       147                         -0.2235489              -6.0831
       ...                                ...                  ...
       265                          1.1679761              31.7822
      -------------------------------------------------------------
                  HL-Gap            0.0148384 Eh            0.4038 eV

     #   Z          covCN         q      C6AA      α(0)
     1   7 N        0.911    -0.369    29.502     7.856
     2   6 C        1.903     0.098    28.683     8.649
     3   6 C        2.959    -0.061    29.503     8.909
     4   6 C        2.945     0.111    25.560     8.292
     5   6 C        2.982    -0.000    28.032     8.685
     6   6 C        2.922    -0.029    28.736     8.791
     7   6 C        2.919    -0.028    28.706     8.786
     8   6 C        2.920    -0.029    28.728     8.789
     9   6 C        2.918    -0.029    28.725     8.789
    10   6 C        2.925    -0.029    28.715     8.788
    11   7 N        1.850    -0.257    27.538     7.778
    12   6 C        2.906     0.145    24.838     8.172
    13   6 C        2.977    -0.009    28.235     8.716
    14   6 C        2.922    -0.039    28.974     8.827
    15   6 C        2.916    -0.042    29.043     8.837
    16   6 C        2.913     0.043    27.040     8.527
    17   7 N        2.800    -0.007    21.398     6.870
    18   6 C        3.078     0.046    26.893     8.502
    19   6 C        2.909    -0.042    29.036     8.836
    20   6 C        2.923    -0.031    28.765     8.795
    21   6 C        2.920    -0.034    28.853     8.808
    22   6 C        2.912    -0.029    28.726     8.789
    23   6 C        3.064    -0.012    28.258     8.717
    24   6 C        3.062    -0.011    28.218     8.711
    25   6 C        2.916    -0.033    28.818     8.803
    26   6 C        2.976     0.012    27.750     8.641
    27   6 C        2.976     0.010    27.794     8.648
    28   6 C        2.927    -0.035    28.879     8.813
    29   6 C        2.907    -0.045    29.124     8.849
    30   6 C        3.075     0.049    26.818     8.491
    31   6 C        3.063    -0.012    28.246     8.715
    32   6 C        2.916    -0.033    28.830     8.805
    33   6 C        3.065    -0.014    28.284     8.721
    34   6 C        2.912    -0.030    28.747     8.792
    35   6 C        2.920    -0.036    28.897     8.815
    36   6 C        2.923    -0.031    28.774     8.797
    37   6 C        2.909    -0.045    29.121     8.849
    38   6 C        3.077     0.046    26.877     8.500
    39   7 N        2.803    -0.021    21.647     6.910
    40   6 C        2.914     0.062    26.617     8.460
    41   6 C        2.921    -0.039    28.977     8.827
    42   6 C        2.920    -0.026    28.644     8.777
    43   6 C        2.919    -0.029    28.721     8.788
    44   6 C        2.920    -0.026    28.644     8.777
    45   6 C        2.922    -0.039    28.982     8.828
    46   6 C        2.926    -0.036    28.894     8.815
    47   6 C        2.907    -0.042    29.047     8.837
    48   6 C        3.076     0.048    26.848     8.495
    49   6 C        2.916    -0.042    29.036     8.836
    50   6 C        2.921    -0.039    28.971     8.827
    51   7 N        1.850    -0.257    27.539     7.778
    52   6 C        2.945     0.109    25.583     8.296
    53   6 C        2.982    -0.001    28.038     8.686
    54   6 C        2.922    -0.030    28.750     8.793
    55   6 C        2.919    -0.028    28.709     8.786
    56   6 C        2.920    -0.029    28.732     8.790
    57   6 C        2.918    -0.029    28.729     8.789
    58   6 C        2.925    -0.029    28.719     8.788
    59   1 H        0.926     0.024     2.673     2.557
    60   1 H        0.926     0.038     2.476     2.461
    61   1 H        0.926     0.042     2.417     2.431
    62   1 H        0.926     0.043     2.412     2.429
    63   1 H        0.926     0.040     2.444     2.445
    64   1 H        0.926     0.042     2.418     2.432
    65   1 H        0.926     0.043     2.410     2.428
    66   1 H        0.926     0.041     2.441     2.443
    67   1 H        0.926     0.040     2.453     2.449
    68   1 H        0.926     0.040     2.446     2.446
    69   1 H        0.926     0.044     2.394     2.420
    70   1 H        0.926     0.050     2.321     2.382
    71   1 H        0.926     0.045     2.380     2.413
    72   1 H        0.926     0.043     2.412     2.429
    73   1 H        0.926     0.047     2.354     2.399
    74   1 H        0.926     0.040     2.443     2.444
    75   1 H        0.926     0.037     2.492     2.469
    76   1 H        0.926     0.038     2.473     2.459
    77   1 H        0.926     0.039     2.456     2.451
    78   1 H        0.926     0.047     2.357     2.401
    79   1 H        0.926     0.045     2.385     2.415
    80   1 H        0.926     0.043     2.405     2.425
    81   1 H        0.926     0.045     2.387     2.416
    82   1 H        0.926     0.047     2.360     2.402
    83   1 H        0.926     0.046     2.364     2.404
    84   1 H        0.926     0.043     2.403     2.424
    85   1 H        0.926     0.042     2.417     2.431
    86   1 H        0.926     0.042     2.424     2.435
    87   1 H        0.926     0.024     2.669     2.555
    88   1 H        0.926     0.038     2.482     2.464
    89   1 H        0.926     0.042     2.423     2.434
    90   1 H        0.926     0.042     2.418     2.432
    91   1 H        0.926     0.040     2.442     2.444

molecular dipole:
                 x           y           z       tot (Debye)
 q only:       10.521      -0.949      -0.251
   full:       10.387      -0.817      -0.147      26.485

 projected vibrational frequencies (cm⁻¹)
eigval :       -0.00    -0.00    -0.00     0.00     0.00     0.00
eigval :        5.94    10.08    11.72    20.17    25.55    26.28
eigval :       29.43    35.67    42.58    47.07    54.19    58.54
eigval :       62.97    65.20    77.81    79.76    92.79    99.08
eigval :      105.04   111.87   120.24   132.65   135.78   142.57
eigval :      158.12   165.82   190.18   193.42   205.92   222.65
eigval :      226.30   231.32   234.03   252.33   258.41   268.45
eigval :      274.56   284.30   306.42   318.33   328.67   342.23
eigval :      356.77   372.14   373.16   375.78   379.78   383.32
eigval :      386.48   395.63   396.82   406.34   412.31   424.43
eigval :      425.28   430.02   435.18   440.61   469.60   472.53
eigval :      474.07   476.74   480.82   529.34   540.22   541.78
eigval :      553.67   565.06   571.08   573.67   574.61   581.63
eigval :      587.41   588.97   590.32   592.69   594.02   601.50
eigval :      609.26   613.12   616.04   623.12   635.18   652.13
eigval :      662.04   669.11   670.32   672.46   678.15   679.59
eigval :      689.04   699.90   707.69   708.70   720.91   733.26
eigval :      758.03   759.86   762.31   767.58   771.83   772.85
eigval :      805.94   816.06   825.03   827.76   834.21   844.55
eigval :      850.48   862.55   867.37   870.36   871.65   871.99
eigval :      878.96   880.61   892.85   898.38   900.79   900.93
eigval :      901.75   904.65   905.35   914.29   916.85   917.69
eigval :      920.14   922.45   923.32   924.53   925.26   926.15
eigval :      927.86   929.99   931.65   932.09   933.94   958.41
eigval :      977.91   996.61   998.58  1009.70  1022.93  1026.64
eigval :     1043.68  1059.33  1068.00  1068.30  1078.10  1080.82
eigval :     1082.12  1102.81  1115.30  1115.96  1119.34  1119.70
eigval :     1124.53  1125.23  1145.70  1150.41  1151.88  1168.96
eigval :     1174.16  1175.21  1177.35  1178.22  1179.23  1180.41
eigval :     1191.16  1196.01  1196.61  1198.13  1214.54  1221.18
eigval :     1235.59  1240.74  1249.42  1253.98  1263.31  1268.97
eigval :     1271.79  1277.96  1280.16  1281.21  1283.85  1289.51
eigval :     1300.43  1314.82  1321.08  1322.78  1328.56  1330.92
eigval :     1339.57  1345.79  1348.20  1352.67  1355.16  1363.38
eigval :     1391.38  1409.69  1415.08  1420.57  1421.03  1424.96
eigval :     1426.52  1431.28  1435.64  1450.03  1456.44  1458.70
eigval :     1467.41  1468.59  1472.25  1476.81  1478.25  1480.36
eigval :     1496.92  1520.94  1543.65  1550.34  1559.20  1564.61
eigval :     1572.30  1573.20  1575.91  1578.32  1579.90  1585.22
eigval :     1586.32  1588.23  1592.78  1597.66  1603.75  2243.90
eigval :     3073.52  3073.80  3074.84  3075.65  3078.80  3079.11
eigval :     3079.60  3080.33  3080.99  3081.95  3082.61  3083.59
eigval :     3084.71  3086.27  3087.30  3087.78  3088.91  3089.22
eigval :     3090.12  3092.15  3093.44  3094.12  3094.35  3094.56
eigval :     3095.25  3095.83  3097.85  3098.13  3098.77  3098.99
eigval :     3099.59  3099.93  3101.20

   temp. (K)  partition function   enthalpy   heat capacity  entropy
                                   cal/mol     cal/K/mol   cal/K/mol   J/K/mol
 298.15  VIB  0.834E+22            27092.981    169.416    170.128
         ROT  0.256E+09              888.752      2.981     41.455
         INT  0.213E+31            27981.734    172.397    211.582
         TR   0.195E+29             1481.254      4.968     45.663
         TOT                       29462.9877   177.3650   257.2451  1076.3135

       T/K    H(0)-H(T)+PV         H(T)/Eh          T*S/Eh         G(T)/Eh
   ------------------------------------------------------------------------
    298.15    0.469523E-01    0.731367E+00    0.122225E+00    0.609142E+00
   ------------------------------------------------------------------------

         :::::::::::::::::::::::::::::::::::::::::::::::::::::
         ::                  THERMODYNAMIC                  ::
         :::::::::::::::::::::::::::::::::::::::::::::::::::::
         :: total free energy        -144.360919392283 Eh   ::
         ::.................................................::
         :: total energy             -144.970061358605 Eh   ::
         :: zero point energy           0.684415157064 Eh   ::
         :: G(RRHO) w/o ZPVE           -0.075273190742 Eh   ::
         :: G(RRHO) contrib.            0.609141966322 Eh   ::
         :::::::::::::::::::::::::::::::::::::::::::::::::::::

           -------------------------------------------------
          | TOTAL ENERGY             -144.970061358605 Eh   |
          | TOTAL ENTHALPY           -144.238693942078 Eh   |
          | TOTAL FREE ENERGY        -144.360919392283 Eh   |
          | GRADIENT NORM               0.000091384151 Eh/α |
          | HOMO-LUMO GAP               0.403772747023 eV   |
           -------------------------------------------------

 * finished run on 2025/09/08 at 12:57:48.529
