   * xtb version 6.7.1 (edcfbbe) compiled by 'albert@albert-system' on 2024-07-22

   ID    Z sym.   atoms
    1    6 C      1-6, 8-20, 22-27
    2    7 N      7, 21
    3    1 H      28-45

          program call               : xtb data2507/gas/SBA/SBA_gas_S0_crest.xyz --gfn 2 --ohess vtight --parallel 40 --molden --ceasefiles --namespace data2507/gas/SBA/SBA_gas_S0_finalOpt
          :  Hamiltonian                  GFN2-xTB          :
 * total energy  :   -68.6022611 Eh     change       -0.1710916E-08 Eh
 * total energy  :   -68.6022616 Eh     change       -0.5008455E-06 Eh
 * total energy  :   -68.6022620 Eh     change       -0.3876928E-06 Eh
 * total energy  :   -68.6022624 Eh     change       -0.4198074E-06 Eh
 * total energy  :   -68.6022629 Eh     change       -0.4489464E-06 Eh
 * total energy  :   -68.6022633 Eh     change       -0.4772591E-06 Eh
 * total energy  :   -68.6022638 Eh     change       -0.5055671E-06 Eh
 * total energy  :   -68.6022644 Eh     change       -0.5271912E-06 Eh
 * total energy  :   -68.6022649 Eh     change       -0.4962146E-06 Eh
 * total energy  :   -68.6022652 Eh     change       -0.3619894E-06 Eh
 * total energy  :   -68.6022654 Eh     change       -0.1698775E-06 Eh
 * total energy  :   -68.6022654 Eh     change       -0.4372723E-08 Eh
   *** GEOMETRY OPTIMIZATION CONVERGED AFTER 12 ITERATIONS ***

 final structure:
================
45
 xtb: 6.7.1 (edcfbbe)
C           -2.28066434713248       -2.55742981041378       -2.60231027446362
C           -0.89619772140372       -2.59008945911416       -2.61803347566399
C           -0.18307252962482       -1.75844896148132       -1.77289234337986
C           -0.82835253595337       -0.88988699427227       -0.90745437444352
C           -2.22454831469019       -0.86025934936646       -0.89497486161096
C           -2.94160057872396       -1.69898983543991       -1.74730359669171
N           -2.89417946635913       -0.00819019957224       -0.04638589006069
C           -2.25828364724463        0.85165041401988        0.82014303551857
C           -3.00831920459114        1.68751634365596        1.64652744432116
C           -2.38129983356183        2.55360394339648        2.51919807824667
C           -0.99831674943178        2.59701744949356        2.57855734140881
C           -0.25250488134346        1.76820970094857        1.75924007124852
C           -0.86344869944347        0.89195622521450        0.87680829352383
C           -0.00000992459776        0.00216585355643        0.00027544887557
C            0.86171280858405        0.89455453188165       -0.87532263601618
C            0.24905436374337        1.77084398535008       -1.75653159699970
C            0.99325727601555        2.60170642824637       -2.57523577880017
C            2.37633490555196        2.56030463147977       -2.51653272630997
C            3.00504108367983        1.69425959067456       -1.64502634977985
C            2.25662872735578        0.85635735249950       -0.81924152433531
N            2.89419104500862       -0.00349971669976        0.04603805419427
C            2.22620586732679       -0.85752856907187        0.89395708947869
C            2.94489563437946       -1.69614571511399        1.74501378225907
C            2.28562422406438       -2.55658219540530        2.59929699636901
C            0.90121901482361       -2.59135058542554        2.61558723491117
C            0.18647222274452       -1.75985629260743        1.77168202762591
C            0.83005798901859       -0.88933347794074        0.90695383081706
H           -2.84775936976934       -3.20195358314510       -3.25755161402033
H           -0.37499341455852       -3.25967418176776       -3.28486993507600
H            0.89725070449555       -1.78005642962047       -1.78115385694326
H           -4.02245025805788       -1.66820546862994       -1.72976471369813
H           -3.90235937076060       -0.01118513276757       -0.06323676847730
H           -4.08782555547388        1.64828774734236        1.59498067084153
H           -2.97372333667804        3.19545278975102        3.15431430379465
H           -0.50359930955699        3.27243599516908        3.25956531452919
H            0.82684006696287        1.79795603454988        1.80162611341380
H           -0.83034823117046        1.79902878876261       -1.79840435522026
H            0.49722594065455        3.27726255364239       -3.25513080591356
H            2.96751728937092        3.20391729532038       -3.15104797535109
H            4.08463095102440        1.65666667683155       -1.59393097414183
H            3.90238352068275       -0.00504492056726        0.06240773679645
H            4.02570978013950       -1.66365723195016        1.72709985345983
H            2.85396858129668       -3.20092174568535        3.25361370049625
H            0.38131892838445       -3.26238561807011        3.28198159731683
H           -0.89381797398080       -1.78309410375820        1.78039502285035

          :  Hamiltonian                  GFN2-xTB          :
         :: gradient norm              0.000071034256 Eh/a0 ::
         :: HOMO-LUMO gap              3.149620055063 eV    ::
         :: SCC energy               -69.885781420787 Eh    ::
         :: -> dispersion             -0.064578777335 Eh    ::
         :: repulsion energy           1.283516019188 Eh    ::

    * Orbital Energies and Occupations

         #    Occupation            Energy/Eh            Energy/eV
      -------------------------------------------------------------
         1        2.0000           -0.6643771             -18.0786
       ...           ...                  ...                  ...
        52        2.0000           -0.4250585             -11.5664
        53        2.0000           -0.4250555             -11.5663
        54        2.0000           -0.4185784             -11.3901
        55        2.0000           -0.4185768             -11.3901
        56        2.0000           -0.4082847             -11.1100
        57        2.0000           -0.4035445             -10.9810
        58        2.0000           -0.4012261             -10.9179
        59        2.0000           -0.4004736             -10.8974
        60        2.0000           -0.3882332             -10.5644
        61        2.0000           -0.3882164             -10.5639
        62        2.0000           -0.3874994             -10.5444
        63        2.0000           -0.3458208              -9.4103
        64        2.0000           -0.3458098              -9.4100 (HOMO)
        65                         -0.2300634              -6.2603 (LUMO)
        66                         -0.2190158              -5.9597
        67                         -0.2171672              -5.9094
        68                         -0.2171578              -5.9092
        69                         -0.2157798              -5.8717
        70                         -0.2082353              -5.6664
        71                         -0.1853847              -5.0446
        72                         -0.1853729              -5.0443
        73                         -0.0902291              -2.4553
        74                         -0.0847345              -2.3057
        75                         -0.0743840              -2.0241
       ...                                ...                  ...
       126                          0.6879677              18.7206
      -------------------------------------------------------------
                  HL-Gap            0.1157464 Eh            3.1496 eV

     #   Z          covCN         q      C6AA      α(0)
     1   6 C        2.919    -0.032    28.797     8.800
     2   6 C        2.918    -0.044    29.089     8.844
     3   6 C        2.925    -0.034    28.851     8.809
     4   6 C        2.987    -0.010    28.248     8.718
     5   6 C        2.916     0.066    26.530     8.446
     6   6 C        2.924    -0.062    29.536     8.912
     7   7 N        2.703    -0.142    24.077     7.288
     8   6 C        2.916     0.066    26.530     8.446
     9   6 C        2.924    -0.062    29.537     8.913
    10   6 C        2.919    -0.032    28.797     8.800
    11   6 C        2.918    -0.044    29.089     8.844
    12   6 C        2.925    -0.034    28.850     8.808
    13   6 C        2.987    -0.010    28.248     8.718
    14   6 C        3.924     0.015    20.259     6.397
    15   6 C        2.987    -0.010    28.248     8.718
    16   6 C        2.925    -0.034    28.850     8.808
    17   6 C        2.918    -0.044    29.089     8.844
    18   6 C        2.919    -0.032    28.797     8.800
    19   6 C        2.924    -0.062    29.537     8.913
    20   6 C        2.916     0.066    26.530     8.446
    21   7 N        2.703    -0.142    24.077     7.288
    22   6 C        2.916     0.066    26.530     8.446
    23   6 C        2.924    -0.062    29.536     8.912
    24   6 C        2.920    -0.032    28.797     8.800
    25   6 C        2.918    -0.044    29.089     8.844
    26   6 C        2.925    -0.034    28.851     8.809
    27   6 C        2.987    -0.010    28.248     8.718
    28   1 H        0.926     0.029     2.603     2.523
    29   1 H        0.926     0.027     2.628     2.535
    30   1 H        0.926     0.027     2.634     2.538
    31   1 H        0.925     0.022     2.706     2.572
    32   1 H        0.860     0.157     1.354     1.823
    33   1 H        0.925     0.022     2.706     2.572
    34   1 H        0.926     0.029     2.603     2.523
    35   1 H        0.926     0.027     2.628     2.535
    36   1 H        0.926     0.027     2.634     2.538
    37   1 H        0.926     0.027     2.634     2.538
    38   1 H        0.926     0.027     2.628     2.535
    39   1 H        0.926     0.029     2.603     2.523
    40   1 H        0.925     0.022     2.706     2.572
    41   1 H        0.860     0.157     1.354     1.823
    42   1 H        0.925     0.022     2.706     2.572
    43   1 H        0.926     0.029     2.603     2.523
    44   1 H        0.926     0.027     2.628     2.535
    45   1 H        0.926     0.027     2.634     2.538

molecular dipole:
                 x           y           z       tot (Debye)
 q only:       -0.000      -0.002      -0.000
   full:       -0.000      -0.002      -0.000       0.006

 projected vibrational frequencies (cm⁻¹)
eigval :       -0.00    -0.00    -0.00     0.00     0.00     0.00
eigval :       17.84    17.92    44.73    65.00    65.01   109.30
eigval :      127.28   149.71   191.00   191.05   237.19   237.87
eigval :      282.47   282.55   290.61   305.02   375.15   389.53
eigval :      389.58   403.50   429.93   434.48   434.57   456.68
eigval :      459.63   459.64   497.17   508.24   508.24   533.00
eigval :      560.91   560.92   585.74   599.94   599.97   623.94
eigval :      652.33   668.92   681.26   685.38   685.42   699.43
eigval :      771.67   771.68   773.45   780.86   809.37   834.33
eigval :      862.50   862.53   862.65   862.86   880.83   880.84
eigval :      902.36   905.07   905.07   907.11   907.83   918.84
eigval :      918.85   919.33   919.37   930.78   930.81  1098.20
eigval :     1099.00  1099.59  1099.59  1111.62  1124.15  1124.18
eigval :     1154.32  1180.30  1181.64  1181.65  1181.83  1183.99
eigval :     1204.36  1205.26  1205.26  1233.08  1233.17  1264.51
eigval :     1264.62  1271.87  1276.21  1276.23  1278.90  1335.53
eigval :     1335.62  1335.64  1339.19  1380.42  1380.43  1440.84
eigval :     1442.91  1469.00  1469.00  1492.43  1495.87  1500.12
eigval :     1500.13  1581.09  1581.09  1588.52  1594.42  1594.44
eigval :     1594.44  1605.08  1606.39  3061.85  3061.96  3062.49
eigval :     3062.74  3077.04  3077.08  3077.25  3077.49  3082.75
eigval :     3082.77  3082.91  3083.03  3096.20  3096.25  3096.62
eigval :     3096.97  3444.90  3445.01

   temp. (K)  partition function   enthalpy   heat capacity  entropy
                                   cal/mol     cal/K/mol   cal/K/mol   J/K/mol
 298.15  VIB  0.331E+08            11074.518     76.779     65.645
         ROT  0.223E+07              888.752      2.981     32.033
         INT  0.740E+14            11963.270     79.760     97.678
         TR   0.624E+28             1481.254      4.968     43.402
         TOT                       13444.5243    84.7279   141.0804   590.2803

       T/K    H(0)-H(T)+PV         H(T)/Eh          T*S/Eh         G(T)/Eh
   ------------------------------------------------------------------------
    298.15    0.214252E-01    0.371986E+00    0.670318E-01    0.304954E+00
   ------------------------------------------------------------------------

         :::::::::::::::::::::::::::::::::::::::::::::::::::::
         ::                  THERMODYNAMIC                  ::
         :::::::::::::::::::::::::::::::::::::::::::::::::::::
         :: total free energy         -68.297310911043 Eh   ::
         ::.................................................::
         :: total energy              -68.602265401599 Eh   ::
         :: zero point energy           0.350561122248 Eh   ::
         :: G(RRHO) w/o ZPVE           -0.045606631692 Eh   ::
         :: G(RRHO) contrib.            0.304954490557 Eh   ::
         :::::::::::::::::::::::::::::::::::::::::::::::::::::

           -------------------------------------------------
          | TOTAL ENERGY              -68.602265401599 Eh   |
          | TOTAL ENTHALPY            -68.230279066045 Eh   |
          | TOTAL FREE ENERGY         -68.297310911043 Eh   |
          | GRADIENT NORM               0.000071041696 Eh/α |
          | HOMO-LUMO GAP               3.149620330662 eV   |
           -------------------------------------------------

 * finished run on 2025/08/30 at 23:41:50.440
