   * xtb version 6.7.1 (edcfbbe) compiled by 'albert@albert-system' on 2024-07-22

   ID    Z sym.   atoms
    1    6 C      1-6, 8-20, 22-27
    2    7 N      7, 21
    3    1 H      28-45

          program call               : xtb data2507/gas/SBA/SBA_gas_S0_finalOpt.xtbopt.xyz --gfn 2 --spinpol --tblite --uhf 2 --ohess vtight --parallel 40 --molden --ceasefiles --namespace data2507/gas/SBA/SBA_gas_T1_preOpt
 * total energy  :   -68.4874744 Eh     change       -0.4539984E-08 Eh
 * total energy  :   -68.4914786 Eh     change       -0.4004200E-02 Eh
 * total energy  :   -68.4920426 Eh     change       -0.5640455E-03 Eh
 * total energy  :   -68.4920738 Eh     change       -0.3120226E-04 Eh
 * total energy  :   -68.4920807 Eh     change       -0.6879619E-05 Eh
 * total energy  :   -68.4920820 Eh     change       -0.1272463E-05 Eh
 * total energy  :   -68.4920822 Eh     change       -0.1806242E-06 Eh
 * total energy  :   -68.4920822 Eh     change       -0.5057670E-07 Eh
   *** GEOMETRY OPTIMIZATION CONVERGED AFTER 8 ITERATIONS ***

 final structure:
================
45
 xtb: 6.7.1 (edcfbbe)
C           -2.29908230411928       -2.55629340083606       -2.59960273394563
C           -0.89273318947879       -2.59093353375208       -2.61641635908695
C           -0.17318535419238       -1.76389692335491       -1.77667059900497
C           -0.80623868728485       -0.89052792480975       -0.90800636074084
C           -2.22718779893845       -0.85803010555139       -0.89368940637176
C           -2.95120389188297       -1.70168087884153       -1.74977981580880
N           -2.88024756120998       -0.00633732551674       -0.04756742852996
C           -2.26084275105252        0.85083504868058        0.81806483794521
C           -3.01805243348012        1.69070199663045        1.64896186581469
C           -2.39957812781390        2.55159544618000        2.51736030344137
C           -0.99488608647784        2.59654031100438        2.57919099405084
C           -0.24282949761577        1.77274812758531        1.76491422005288
C           -0.84150337047033        0.89340745947072        0.87827786975885
C           -0.00000813929651        0.00266978559891        0.00023481442529
C            0.83978030415917        0.89592058768381       -0.87689166577238
C            0.23943943306890        1.77539563946574       -1.76227862341406
C            0.98992639379421        2.60132561242943       -2.57581798117364
C            2.39472051503308        2.55847373395196       -2.51455337217448
C            3.01482666811163        1.69750324691381       -1.64739733321256
C            2.25921958916969        0.85549629410849       -0.81722428118982
N            2.88025316059854       -0.00171532424434        0.04720257661555
C            2.22881192229584       -0.85533212872075        0.89262352883239
C            2.95444445413383       -1.69878124393895        1.74756169476447
C            2.30393945356580       -2.55528635499300        2.59671618219568
C            0.89766248798898       -2.59210684684488        2.61401118420814
C            0.17653296538095       -1.76531018990199        1.77536853990720
C            0.80793270761484       -0.89006296397215        0.90740523760876
H           -2.85954735061846       -3.20335487024923       -3.25658349659901
H           -0.38110867010313       -3.26408790279616       -3.28593217800944
H            0.90715806912064       -1.79235827978796       -1.79134844560545
H           -4.03229113336728       -1.66429173877696       -1.72611064102143
H           -3.89147631758072       -0.00987411745769       -0.06394940876851
H           -4.09752190490800        1.64547131312458        1.59071418185411
H           -2.98548014993726        3.19588641284987        3.15459765085038
H           -0.50981697686223        3.27488407119525        3.26307027078114
H            0.83626755529471        1.80875334419425        1.81421309285547
H           -0.83972919489353        1.80978519689131       -1.81116958986329
H            0.50356879379367        3.27974362571881       -3.25870783974337
H            2.97939372500741        3.20441978469496       -3.15124073694580
H            4.09438657984071        1.65386723507869       -1.58959484046172
H            3.89149258986946       -0.00369300876951        0.06322684403479
H            4.03546356944007       -1.65970541014582        1.72353676518752
H            2.86564145317151       -3.20218044410463        3.25280792779288
H            0.38731432493570       -3.26673926107500        3.28301367267023
H           -0.90375999900316       -1.79545933529911        1.79038544936948

 projected vibrational frequencies (cm⁻¹)
eigval :       -0.00    -0.00     0.00     0.00     0.00     0.00
eigval :       25.10    25.49    37.28    71.04    71.06    99.01
eigval :      111.85   147.23   186.75   186.79   193.65   228.57
eigval :      250.47   263.84   293.23   293.34   299.59   376.34
eigval :      376.40   381.96   396.94   401.15   403.88   403.95
eigval :      404.30   446.68   453.05   461.39   461.39   536.92
eigval :      536.99   572.05   572.21   586.20   586.21   609.77
eigval :      616.17   627.22   650.23   650.29   650.43   662.08
eigval :      669.49   738.09   741.26   741.28   742.61   822.98
eigval :      824.02   831.02   835.41   837.11   837.15   859.62
eigval :      859.64   880.50   880.54   886.61   886.96   888.65
eigval :      888.71   897.63   897.81   901.97   902.01   922.47
eigval :     1055.19  1055.58  1065.56  1101.46  1103.77  1120.25
eigval :     1120.37  1143.74  1164.31  1164.40  1174.09  1175.64
eigval :     1179.18  1179.44  1181.77  1221.39  1229.83  1229.91
eigval :     1251.96  1256.98  1269.17  1269.18  1274.64  1330.34
eigval :     1333.95  1334.24  1364.82  1369.15  1369.17  1371.58
eigval :     1376.08  1384.59  1396.64  1396.90  1438.10  1453.67
eigval :     1460.20  1460.23  1466.25  1466.83  1481.98  1482.10
eigval :     1504.58  1504.64  1565.91  3054.51  3054.51  3055.23
eigval :     3055.68  3074.49  3074.69  3074.70  3074.95  3088.61
eigval :     3088.80  3088.82  3088.88  3099.63  3101.34  3101.40
eigval :     3102.86  3396.86  3400.48

   temp. (K)  partition function   enthalpy   heat capacity  entropy
                                   cal/mol     cal/K/mol   cal/K/mol   J/K/mol
 298.15  VIB  0.459E+08            11734.258     80.696     69.143
         ROT  0.224E+07              888.752      2.981     32.038
         INT  0.103E+15            12623.010     83.677    101.181
         TR   0.624E+28             1481.254      4.968     43.402
         TOT                       14104.2643    88.6449   144.5826   604.9336

       T/K    H(0)-H(T)+PV         H(T)/Eh          T*S/Eh         G(T)/Eh
   ------------------------------------------------------------------------
    298.15    0.224766E-01    0.364562E+00    0.686959E-01    0.295866E+00
   ------------------------------------------------------------------------

         :::::::::::::::::::::::::::::::::::::::::::::::::::::
         ::                  THERMODYNAMIC                  ::
         :::::::::::::::::::::::::::::::::::::::::::::::::::::
         :: total free energy         -68.196215953995 Eh   ::
         ::.................................................::
         :: total energy              -68.492082219974 Eh   ::
         :: zero point energy           0.342085554216 Eh   ::
         :: G(RRHO) w/o ZPVE           -0.046219288237 Eh   ::
         :: G(RRHO) contrib.            0.295866265979 Eh   ::
         :::::::::::::::::::::::::::::::::::::::::::::::::::::

           -------------------------------------------------
          | TOTAL ENERGY              -68.492082219974 Eh   |
          | TOTAL ENTHALPY            -68.127520089973 Eh   |
          | TOTAL FREE ENERGY         -68.196215953995 Eh   |
          | GRADIENT NORM               0.000062000402 Eh/α |
           -------------------------------------------------

 * finished run on 2025/08/30 at 23:41:52.428
