   * xtb version 6.7.1 (edcfbbe) compiled by 'albert@albert-system' on 2024-07-22

   ID    Z sym.   atoms
    1    6 C      1-6, 8-20, 22-27
    2    7 N      7, 21
    3    1 H      28-45

          program call               : xtb data2507/gas/SBA/SBA.xyz --gfn 2 --ohess vtight --parallel 40 --molden --ceasefiles --namespace data2507/gas/SBA/SBA_gas_S0_preOpt
          :  Hamiltonian                  GFN2-xTB          :
 * total energy  :   -68.5899922 Eh     change       -0.2012911E-08 Eh
 * total energy  :   -68.5998361 Eh     change       -0.9843921E-02 Eh
 * total energy  :   -68.6020132 Eh     change       -0.2177118E-02 Eh
 * total energy  :   -68.6021776 Eh     change       -0.1644073E-03 Eh
 * total energy  :   -68.6022527 Eh     change       -0.7507610E-04 Eh
 * total energy  :   -68.6022635 Eh     change       -0.1085031E-04 Eh
 * total energy  :   -68.6022655 Eh     change       -0.1944683E-05 Eh
 * total energy  :   -68.6022656 Eh     change       -0.1665630E-06 Eh
 * total energy  :   -68.6022657 Eh     change       -0.2983987E-07 Eh
   *** GEOMETRY OPTIMIZATION CONVERGED AFTER 9 ITERATIONS ***

 final structure:
================
45
 xtb: 6.7.1 (edcfbbe)
C           -2.33172796663791        2.54569279223577       -2.57067393754279
C           -0.94781838570003        2.58335488041905       -2.60878552773117
C           -0.21812282544046        1.75615666863926       -1.77349867052906
C           -0.84616697227369        0.88715924639146       -0.89592507519890
C           -2.24185466961523        0.85249141451718       -0.86085767007924
C           -2.97564556293970        1.68675429423884       -1.70327510053580
N           -2.89457447069697       -0.00017419576743        0.00020817537254
C           -2.24161753738647       -0.85276647268784        0.86116685287737
C           -2.97517583019639       -1.68713201082856        1.70368515577969
C           -2.33101891026989       -2.54599747239795        2.57097859690110
C           -0.94709889136139       -2.58348324396042        2.60888309091229
C           -0.21763398682425       -1.75618314658748        1.77349589349221
C           -0.84592039264417       -0.88725682132928        0.89602533274861
C           -0.00000002986153        0.00000988268448       -0.00000880379184
C            0.84604421650939        0.89606680645104        0.88711622618447
C            0.21787979888201        1.77361925254603        1.75604807083343
C            0.94746083781367        2.60910649449365        2.58314483151437
C            2.33137560485340        2.57122162139286        2.54544525852230
C            2.97541201378410        1.70383059213124        1.68658798078233
C            2.24173662611767        0.86120869774058        0.85243002202135
N            2.89457442047956        0.00015288450357       -0.00015542041658
C            2.24173546631399       -0.86095253824001       -0.85268980951150
C            2.97540929323671       -1.70349823522960       -1.68692611784720
C            2.33137120603071       -2.57093830234895       -2.54573262518720
C            0.94745635451776       -2.60894619690977       -2.58330545948488
C            0.21787691496624       -1.77353556281654       -1.75612995971754
C            0.84604303672483       -0.89593831682087       -0.88724459937133
H           -2.91165480049975        3.18677103957738       -3.21800575969176
H           -0.43993190918954        3.25336299586324       -3.28539803152763
H            0.86184911300354        1.78158479838811       -1.79922413391517
H           -4.05597239637576        1.65211249830797       -1.66823471335890
H           -3.90290175293764       -0.00024179885028        0.00028009367359
H           -4.05551229603587       -1.65262859213735        1.66880608483215
H           -2.91076696742756       -3.18715782239363        3.21838919169413
H           -0.43902543083420       -3.25343374935117        3.28541224026120
H            0.86234490097603       -1.78147361477713        1.79906051651459
H           -0.86209557273735        1.79918239069665        1.78149131505791
H            0.43948153052467        3.28570847311871        3.25309319762970
H            2.91121366455435        3.21872427256356        3.18643126185015
H            4.05574363211096        1.66896295967307        1.65192128215056
H            3.90290170297560        0.00020171212765       -0.00020534251943
H            4.05574097974450       -1.66853395711827       -1.65235912261711
H            2.91120803938433       -3.21838324266764       -3.18677802064743
H            0.43947575074206       -3.28558605280164       -3.25321457317141
H           -0.86209854636032       -1.79919632267955       -1.78147219721216

          :  Hamiltonian                  GFN2-xTB          :
         :: gradient norm              0.000031695706 Eh/a0 ::
         :: HOMO-LUMO gap              3.149739016846 eV    ::
         :: SCC energy               -69.885816320304 Eh    ::
         :: -> dispersion             -0.064579139567 Eh    ::
         :: repulsion energy           1.283550640322 Eh    ::

    * Orbital Energies and Occupations

         #    Occupation            Energy/Eh            Energy/eV
      -------------------------------------------------------------
         1        2.0000           -0.6643806             -18.0787
       ...           ...                  ...                  ...
        52        2.0000           -0.4250561             -11.5664
        53        2.0000           -0.4250558             -11.5664
        54        2.0000           -0.4185780             -11.3901
        55        2.0000           -0.4185773             -11.3901
        56        2.0000           -0.4082871             -11.1101
        57        2.0000           -0.4035461             -10.9810
        58        2.0000           -0.4012261             -10.9179
        59        2.0000           -0.4004737             -10.8974
        60        2.0000           -0.3882266             -10.5642
        61        2.0000           -0.3882258             -10.5642
        62        2.0000           -0.3875014             -10.5444
        63        2.0000           -0.3458150              -9.4101
        64        2.0000           -0.3458141              -9.4101 (HOMO)
        65                         -0.2300633              -6.2603 (LUMO)
        66                         -0.2190146              -5.9597
        67                         -0.2171613              -5.9093
        68                         -0.2171603              -5.9092
        69                         -0.2157774              -5.8716
        70                         -0.2082348              -5.6664
        71                         -0.1853779              -5.0444
        72                         -0.1853770              -5.0444
        73                         -0.0902259              -2.4552
        74                         -0.0847316              -2.3057
        75                         -0.0743686              -2.0237
       ...                                ...                  ...
       126                          0.6879806              18.7209
      -------------------------------------------------------------
                  HL-Gap            0.1157508 Eh            3.1497 eV

     #   Z          covCN         q      C6AA      α(0)
     1   6 C        2.919    -0.032    28.797     8.800
     2   6 C        2.918    -0.044    29.089     8.844
     3   6 C        2.925    -0.034    28.851     8.808
     4   6 C        2.987    -0.010    28.248     8.718
     5   6 C        2.916     0.066    26.530     8.446
     6   6 C        2.924    -0.062    29.536     8.913
     7   7 N        2.703    -0.142    24.077     7.288
     8   6 C        2.916     0.066    26.530     8.446
     9   6 C        2.924    -0.062    29.536     8.913
    10   6 C        2.919    -0.032    28.797     8.800
    11   6 C        2.918    -0.044    29.089     8.844
    12   6 C        2.925    -0.034    28.851     8.808
    13   6 C        2.987    -0.010    28.248     8.718
    14   6 C        3.924     0.015    20.259     6.397
    15   6 C        2.987    -0.010    28.248     8.718
    16   6 C        2.925    -0.034    28.851     8.808
    17   6 C        2.918    -0.044    29.089     8.844
    18   6 C        2.919    -0.032    28.797     8.800
    19   6 C        2.924    -0.062    29.536     8.913
    20   6 C        2.916     0.066    26.530     8.446
    21   7 N        2.703    -0.142    24.077     7.288
    22   6 C        2.916     0.066    26.530     8.446
    23   6 C        2.924    -0.062    29.536     8.913
    24   6 C        2.919    -0.032    28.797     8.800
    25   6 C        2.918    -0.044    29.089     8.844
    26   6 C        2.925    -0.034    28.851     8.808
    27   6 C        2.987    -0.010    28.248     8.718
    28   1 H        0.926     0.029     2.603     2.523
    29   1 H        0.926     0.027     2.628     2.535
    30   1 H        0.926     0.027     2.634     2.538
    31   1 H        0.925     0.022     2.706     2.572
    32   1 H        0.860     0.157     1.354     1.823
    33   1 H        0.925     0.022     2.706     2.572
    34   1 H        0.926     0.029     2.603     2.523
    35   1 H        0.926     0.027     2.628     2.535
    36   1 H        0.926     0.027     2.634     2.538
    37   1 H        0.926     0.027     2.634     2.538
    38   1 H        0.926     0.027     2.628     2.535
    39   1 H        0.926     0.029     2.603     2.523
    40   1 H        0.925     0.022     2.706     2.572
    41   1 H        0.860     0.157     1.354     1.823
    42   1 H        0.925     0.022     2.706     2.572
    43   1 H        0.926     0.029     2.603     2.523
    44   1 H        0.926     0.027     2.628     2.535
    45   1 H        0.926     0.027     2.634     2.538

molecular dipole:
                 x           y           z       tot (Debye)
 q only:       -0.000      -0.000       0.000
   full:        0.000      -0.000       0.000       0.000

 projected vibrational frequencies (cm⁻¹)
eigval :       -0.00    -0.00    -0.00    -0.00     0.00     0.00
eigval :       16.40    16.41    44.72    65.02    65.02   109.29
eigval :      127.27   149.71   190.80   190.80   237.19   237.86
eigval :      282.44   282.45   290.60   305.02   375.16   389.55
eigval :      389.56   403.50   429.93   434.53   434.54   456.68
eigval :      459.62   459.62   497.17   508.26   508.26   533.00
eigval :      560.95   560.95   585.74   599.95   599.95   623.94
eigval :      652.33   668.92   681.26   685.39   685.39   699.42
eigval :      771.66   771.67   773.44   780.86   809.38   834.34
eigval :      862.53   862.53   862.65   862.86   880.87   880.87
eigval :      902.37   905.07   905.07   907.10   907.83   918.84
eigval :      918.84   919.33   919.36   930.78   930.79  1098.20
eigval :     1099.01  1099.59  1099.59  1111.63  1124.19  1124.19
eigval :     1154.33  1180.31  1181.65  1181.65  1181.83  1183.99
eigval :     1204.37  1205.27  1205.27  1233.13  1233.14  1264.51
eigval :     1264.63  1271.89  1276.23  1276.23  1278.92  1335.57
eigval :     1335.65  1335.66  1339.22  1380.45  1380.45  1440.86
eigval :     1442.93  1469.03  1469.03  1492.44  1495.88  1500.17
eigval :     1500.17  1581.10  1581.10  1588.53  1594.43  1594.47
eigval :     1594.47  1605.11  1606.42  3061.86  3061.86  3062.46
eigval :     3062.68  3077.11  3077.11  3077.24  3077.51  3082.76
eigval :     3082.76  3082.89  3083.02  3096.27  3096.27  3096.66
eigval :     3097.01  3444.88  3444.99

   temp. (K)  partition function   enthalpy   heat capacity  entropy
                                   cal/mol     cal/K/mol   cal/K/mol   J/K/mol
 298.15  VIB  0.391E+08            11079.145     76.770     65.802
         ROT  0.223E+07              888.752      2.981     32.033
         INT  0.874E+14            11967.898     79.751     97.835
         TR   0.624E+28             1481.254      4.968     43.402
         TOT                       13449.1517    84.7191   141.2369   590.9353

       T/K    H(0)-H(T)+PV         H(T)/Eh          T*S/Eh         G(T)/Eh
   ------------------------------------------------------------------------
    298.15    0.214326E-01    0.371988E+00    0.671062E-01    0.304881E+00
   ------------------------------------------------------------------------

         :::::::::::::::::::::::::::::::::::::::::::::::::::::
         ::                  THERMODYNAMIC                  ::
         :::::::::::::::::::::::::::::::::::::::::::::::::::::
         :: total free energy         -68.297384274098 Eh   ::
         ::.................................................::
         :: total energy              -68.602265679982 Eh   ::
         :: zero point energy           0.350555036147 Eh   ::
         :: G(RRHO) w/o ZPVE           -0.045673630263 Eh   ::
         :: G(RRHO) contrib.            0.304881405884 Eh   ::
         :::::::::::::::::::::::::::::::::::::::::::::::::::::

           -------------------------------------------------
          | TOTAL ENERGY              -68.602265679982 Eh   |
          | TOTAL ENTHALPY            -68.230278056335 Eh   |
          | TOTAL FREE ENERGY         -68.297384274098 Eh   |
          | GRADIENT NORM               0.000031670020 Eh/α |
          | HOMO-LUMO GAP               3.149739257704 eV   |
           -------------------------------------------------

 * finished run on 2025/08/30 at 23:40:27.593
