   * xtb version 6.7.1 (edcfbbe) compiled by 'albert@albert-system' on 2024-07-22

   ID    Z sym.   atoms
    1    6 C      1-6, 8-20, 22-27
    2    7 N      7, 21
    3    1 H      28-45

          program call               : xtb data2507/gas/SBA/SBA_gas_T1_crest.xyz --gfn 2 --spinpol --tblite --uhf 2 --ohess vtight --parallel 40 --molden --ceasefiles --namespace data2507/gas/SBA/SBA_gas_T1_finalOpt
 * total energy  :   -68.4920791 Eh     change        0.3765010E-08 Eh
 * total energy  :   -68.4920802 Eh     change       -0.1162807E-05 Eh
 * total energy  :   -68.4920807 Eh     change       -0.4365879E-06 Eh
 * total energy  :   -68.4920811 Eh     change       -0.4351621E-06 Eh
 * total energy  :   -68.4920814 Eh     change       -0.3115963E-06 Eh
 * total energy  :   -68.4920816 Eh     change       -0.2301761E-06 Eh
 * total energy  :   -68.4920817 Eh     change       -0.1139609E-06 Eh
 * total energy  :   -68.4920818 Eh     change       -0.4473023E-08 Eh
   *** GEOMETRY OPTIMIZATION CONVERGED AFTER 8 ITERATIONS ***

 final structure:
================
45
 xtb: 6.7.1 (edcfbbe)
C           -2.42553335101284        2.51208884920500       -2.53204402885310
C           -1.02152040943144        2.56946703743880       -2.59581017801555
C           -0.26109344887596        1.75725533441085       -1.77760211480498
C           -0.85077585295179        0.87749412196508       -0.88542647233619
C           -2.26950005044029        0.82181797032746       -0.82378078276615
C           -3.03521132309480        1.65018730002051       -1.65836389166370
N           -2.88008651881210       -0.03688474902002        0.04667402456720
C           -2.21826592375966       -0.87823963321668        0.89643664329892
C           -2.93351799510498       -1.72542837791520        1.75622902855592
C           -2.27270932214869       -2.56971568018059        2.60976934907584
C           -0.86615242266657       -2.58969586991456        2.62680496102827
C           -0.15513141873629       -1.75906464083528        1.78341710199606
C           -0.79705124978620       -0.89616279727415        0.91070768097689
C           -0.00007109267709        0.00131286645073       -0.00161173550249
C            0.82747467384665        0.90979599091339        0.87144765767158
C            0.21530897027231        1.79044721501789        1.74751406938436
C            0.95458895932240        2.63038505470755        2.55693415967645
C            2.36003182927206        2.60097897945592        2.50111866847953
C            2.99175651754560        1.73888633019268        1.64352988106501
C            2.24761508846972        0.88279236739343        0.81748619126008
N            2.88017228728401        0.02481524403681       -0.03765792896582
C            2.24041974107913       -0.83999526768484       -0.88045980407174
C            2.97751981288350       -1.68193327122502       -1.72711015280836
C            2.33861703638910       -2.54885223691945       -2.57446511334495
C            0.93281607409999       -2.59805329477182       -2.59833162382863
C            0.20043620882861       -1.77318965324041       -1.76742822093442
C            0.81994454736648       -0.88769908853771       -0.90143341060729
H           -3.01809195603694        3.14760879450696       -3.17193276245640
H           -0.54332256319703        3.24818320305984       -3.28414270151152
H            0.81758801003572        1.80298851913849       -1.82807310974593
H           -4.11415953305472        1.59556036832897       -1.59857444437708
H           -3.89121038402505       -0.05031115091592        0.06356304596306
H           -4.01493498175844       -1.69938850176465        1.73231464262787
H           -2.82662083581517       -3.21974280069062        3.26936937814954
H           -0.34757851429968       -3.25451830973903        3.29930181204505
H            0.92544536549665       -1.77645943268144        1.79825685296421
H           -0.86432758638916        1.81476075368745        1.79215865076155
H            0.45897583162442        3.30967874487360        3.23225713128775
H            2.93594892737481        3.25813667249075        3.13429186784069
H            4.07191121903115        1.70550495390386        1.58999075145363
H            3.89147088918492        0.03230433381821       -0.04953967891738
H            4.05803641989507       -1.63337003126538       -1.69804225527555
H            2.90916037165280       -3.19454524113561       -3.22408733348190
H            0.43154371393103       -3.28055133899858       -3.26620992385596
H           -0.87947639891123       -1.81306894611722       -1.78722982350442

 projected vibrational frequencies (cm⁻¹)
eigval :       -0.00    -0.00     0.00     0.00     0.00     0.00
eigval :       25.11    25.46    37.29    71.00    71.06    98.97
eigval :      111.82   147.21   186.63   186.89   195.21   228.57
eigval :      250.48   265.22   293.27   293.38   299.59   376.32
eigval :      376.44   381.65   396.92   401.22   403.78   403.86
eigval :      404.31   446.70   453.06   461.34   461.50   536.87
eigval :      536.99   571.72   572.58   586.20   586.21   609.81
eigval :      616.12   627.22   650.18   650.21   650.45   662.08
eigval :      669.51   738.09   741.19   741.43   742.62   822.99
eigval :      824.02   831.25   835.41   837.02   837.27   859.56
eigval :      859.81   880.52   880.63   886.61   886.98   888.69
eigval :      888.75   897.65   897.83   901.68   901.86   921.72
eigval :     1055.63  1055.75  1065.78  1102.28  1103.77  1120.37
eigval :     1120.45  1143.78  1164.14  1164.43  1174.00  1175.62
eigval :     1179.27  1179.40  1181.72  1221.85  1229.76  1229.93
eigval :     1251.96  1256.55  1269.21  1269.32  1274.57  1330.32
eigval :     1333.42  1334.36  1364.86  1369.02  1369.26  1371.57
eigval :     1376.00  1384.63  1396.53  1396.97  1437.94  1453.63
eigval :     1460.07  1460.26  1466.21  1466.45  1481.86  1482.34
eigval :     1504.45  1504.76  1565.89  3054.38  3054.55  3055.16
eigval :     3055.63  3074.42  3074.57  3074.66  3074.88  3088.62
eigval :     3088.78  3088.84  3088.89  3099.65  3101.26  3101.40
eigval :     3102.85  3396.44  3400.44

   temp. (K)  partition function   enthalpy   heat capacity  entropy
                                   cal/mol     cal/K/mol   cal/K/mol   J/K/mol
 298.15  VIB  0.456E+08            11731.816     80.691     69.122
         ROT  0.224E+07              888.752      2.981     32.038
         INT  0.102E+15            12620.569     83.672    101.160
         TR   0.624E+28             1481.254      4.968     43.402
         TOT                       14101.8225    88.6402   144.5620   604.8472

       T/K    H(0)-H(T)+PV         H(T)/Eh          T*S/Eh         G(T)/Eh
   ------------------------------------------------------------------------
    298.15    0.224727E-01    0.364562E+00    0.686861E-01    0.295876E+00
   ------------------------------------------------------------------------

         :::::::::::::::::::::::::::::::::::::::::::::::::::::
         ::                  THERMODYNAMIC                  ::
         :::::::::::::::::::::::::::::::::::::::::::::::::::::
         :: total free energy         -68.196205984008 Eh   ::
         ::.................................................::
         :: total energy              -68.492081769411 Eh   ::
         :: zero point energy           0.342089152254 Eh   ::
         :: G(RRHO) w/o ZPVE           -0.046213366852 Eh   ::
         :: G(RRHO) contrib.            0.295875785402 Eh   ::
         :::::::::::::::::::::::::::::::::::::::::::::::::::::

           -------------------------------------------------
          | TOTAL ENERGY              -68.492081769411 Eh   |
          | TOTAL ENTHALPY            -68.127519932625 Eh   |
          | TOTAL FREE ENERGY         -68.196205984008 Eh   |
          | GRADIENT NORM               0.000135570887 Eh/α |
           -------------------------------------------------

 * finished run on 2025/08/30 at 23:43:40.338
