   * xtb version 6.7.1 (edcfbbe) compiled by 'albert@albert-system' on 2024-07-22

   ID    Z sym.   atoms
    1    6 C      1-9, 11-28, 30-43, 45-50
    2    7 N      10
    3    8 O      29, 44
    4    1 H      51-83

          program call               : xtb data2507/toluene/DpAn-BzAc/DpAn-BzAc_toluene_T1_crest.xyz --gfn 2 --uhf 2 --gbsa toluene --ohess vtight --parallel 40 --molden --ceasefiles --namespace data2507/toluene/DpAn-BzAc/DpAn-BzAc_toluene_T1_finalOpt
      * Solvation model:               GBSA
        Solvent                        toluene
        Solvent mass                       9.2140E+01 g/mol
          :  Hamiltonian                  GFN2-xTB          :
 * total energy  :  -128.5580511 Eh     change       -0.3988134E-09 Eh
 * total energy  :  -128.5582454 Eh     change       -0.1942416E-03 Eh
 * total energy  :  -128.5583292 Eh     change       -0.8383262E-04 Eh
 * total energy  :  -128.5583627 Eh     change       -0.3350798E-04 Eh
 * total energy  :  -128.5583904 Eh     change       -0.2773570E-04 Eh
 * total energy  :  -128.5584301 Eh     change       -0.3964178E-04 Eh
 * total energy  :  -128.5584512 Eh     change       -0.2112726E-04 Eh
 * total energy  :  -128.5584668 Eh     change       -0.1556540E-04 Eh
 * total energy  :  -128.5584802 Eh     change       -0.1343883E-04 Eh
 * total energy  :  -128.5584987 Eh     change       -0.1849127E-04 Eh
 * total energy  :  -128.5585864 Eh     change       -0.4166480E-06 Eh
 * total energy  :  -128.5585869 Eh     change       -0.5389133E-06 Eh
 * total energy  :  -128.5585877 Eh     change       -0.7621016E-06 Eh
 * total energy  :  -128.5585886 Eh     change       -0.9819883E-06 Eh
 * total energy  :  -128.5585898 Eh     change       -0.1132483E-05 Eh
 * total energy  :  -128.5585909 Eh     change       -0.1078913E-05 Eh
 * total energy  :  -128.5585919 Eh     change       -0.1018917E-05 Eh
 * total energy  :  -128.5585926 Eh     change       -0.7540242E-06 Eh
 * total energy  :  -128.5585926 Eh     change       -0.7946682E-08 Eh
   *** GEOMETRY OPTIMIZATION CONVERGED AFTER 44 ITERATIONS ***

 final structure:
================
83
 xtb: 6.7.1 (edcfbbe)
C            6.52889632951641        1.18625635117300       -1.18135106385342
C            5.65017422242592        1.06873692487050        0.08088017626371
C            6.53611950969299        1.03769060476393        1.34293618359161
C            4.74994201971663        2.28257983386561        0.15351216738879
C            5.30841197397526        3.55131918600707        0.23934928770723
C            4.52811110737646        4.69126097960805        0.30222040380537
C            3.14532985876317        4.57843057230456        0.27726168552361
C            2.56222682273466        3.33465246199243        0.19199226114828
C            3.35055199204375        2.17601250544518        0.13097361570549
N            2.73727833305430        0.94251263648377        0.04427747114984
C            1.31252997871654        0.88661533166947       -0.00319148787787
C            0.66020662325766        0.86992032267902       -1.22917101850029
C           -0.71861619846774        0.82236563157780       -1.27062448527160
C           -1.47636649687649        0.80638384329350       -0.10206835935547
C           -2.99941261886956        0.69801646732488       -0.17676636594934
C           -3.62526100314430        1.72526278004659       -1.10586571277057
C           -2.97046405551698        2.88335873260929       -1.50558869351535
C           -3.60766366560407        3.81025270829764       -2.31418229170916
C           -4.91158955094077        3.59936634548483       -2.72577177544273
C           -5.58131470432553        2.45863944886519       -2.31284170312240
C           -4.94493116875684        1.53422439841522       -1.50612001150924
C           -3.25407037513025       -0.71165658593059       -0.68694783873573
C           -3.22910833793972       -0.98248225391845       -2.04482677616419
C           -3.33809736463473       -2.27722725489178       -2.53018704290091
C           -3.46581075374017       -3.33703838456044       -1.63948748150843
C           -3.51275613986363       -3.09424602874373       -0.28897427017800
C           -3.42971446770695       -1.77884188104640        0.21399062717110
C           -3.59904332436806       -1.57267577060167        1.63067793634579
O           -3.64738351786839       -2.54672748873695        2.44921451756353
C           -3.81696116913102       -0.21114153813901        2.05729194285648
C           -4.28213517960898        0.01905087934236        3.36744193627023
C           -4.55254456616123        1.29257628878418        3.80532683245126
C           -4.35606623772895        2.37484130325409        2.95567251972764
C           -3.87955489591539        2.16122156375356        1.67018788508521
C           -3.60532880413328        0.88741084744393        1.20190201366227
C           -0.80676570729264        0.82311116752394        1.11625727503650
C            0.57495396866762        0.86285559727132        1.17013060059301
C            3.45702561462628       -0.22605367871702       -0.00541103564645
C            4.86564985623639       -0.22475983804788        0.00615301422092
C            5.56124204308910       -1.43057946147995       -0.05414826250381
C            4.93283313436648       -2.65771170732510       -0.12310680014148
C            3.54381852494911       -2.67977916171010       -0.12873236423331
C            2.81951951890317       -1.47784300949370       -0.06812883608064
O            1.47639305087186       -1.71002325236331       -0.07816950707768
C            1.31454996190147       -3.06011683103033       -0.14625639506965
C            0.11293406496252       -3.74673025903199       -0.17803684857932
C            0.18163880322338       -5.12622085668901       -0.25217035318603
C            1.40312327910297       -5.79733781688651       -0.29353914457025
C            2.60040500798580       -5.11022892270730       -0.25937290135641
C            2.55631119093283       -3.72372278927161       -0.18374547534799
H            7.11134341427618        2.10199805963382       -1.15828350267822
H            7.21382309705265        0.34736099259985       -1.25374062178741
H            5.90274899074709        1.19801063958600       -2.07120119846794
H            7.21659315187785        0.19261950629616        1.31711952183837
H            5.91444967993881        0.95247399815327        2.23195089167783
H            7.12504153552954        1.94615385311997        1.42052585877501
H            6.38112685190314        3.65979327331624        0.25749287639690
H            4.99479741568285        5.66178252016711        0.36939129466674
H            2.52344164109136        5.45910407628878        0.32473899317436
H            1.48803125582482        3.24546758927990        0.17433668302466
H            1.23387570932681        0.88989013523553       -2.14402167982391
H           -1.21082763250069        0.80207963066009       -2.22961206973096
H           -1.95794614461323        3.07106142782921       -1.18005726916044
H           -3.08159016380310        4.70385395023853       -2.61816470676148
H           -5.40747772232953        4.32197626538753       -3.35722286751565
H           -6.60433281290506        2.28979082750054       -2.61672033289681
H           -5.47228843763974        0.64880942431637       -1.17919979706270
H           -3.13593608454657       -0.16723480298079       -2.74800120710313
H           -3.31993874513632       -2.45691240794650       -3.59455993791753
H           -3.53972794247047       -4.35096089142750       -2.00665806167578
H           -3.63482106440421       -3.89554314853303        0.42636231677056
H           -4.42825858158442       -0.84068455733840        4.00599271022160
H           -4.91902947954878        1.44778934605236        4.81043952235085
H           -4.56371474210889        3.37936210164797        3.29265283092326
H           -3.70800684453741        3.01013886530009        1.02411156124252
H           -1.36336937728255        0.80630629596235        2.04018794289906
H            1.08050761473501        0.87340070679876        2.12462173500290
H            6.63872027078737       -1.41156186136584       -0.04763045380398
H            5.49884410271828       -3.57357756507619       -0.16915834184334
H           -0.83064383905286       -3.22611795710387       -0.14402904121021
H           -0.73519265023531       -5.69496585796907       -0.27564560975926
H            1.40757343540296       -6.87542424076582       -0.35177458750043
H            3.54495481833894       -5.63043774778985       -0.28944762675839

          :  Hamiltonian                  GFN2-xTB          :
         :: gradient norm              0.000064594101 Eh/a0 ::
         :: HOMO-LUMO gap              0.350895796498 eV    ::
         :: SCC energy              -130.841519519553 Eh    ::
         :: -> dispersion             -0.127779876698 Eh    ::
         :: -> Gsolv                  -0.064060515875 Eh    ::
         :: repulsion energy           2.282926886330 Eh    ::

    * Orbital Energies and Occupations

         #    Occupation            Energy/Eh            Energy/eV
      -------------------------------------------------------------
         1        2.0000           -0.7505425             -20.4233
       ...           ...                  ...                  ...
       108        2.0000           -0.4123146             -11.2197
       109        2.0000           -0.4054203             -11.0320
       110        2.0000           -0.4048156             -11.0156
       111        2.0000           -0.4033235             -10.9750
       112        2.0000           -0.3985628             -10.8454
       113        2.0000           -0.3972101             -10.8086
       114        2.0000           -0.3960391             -10.7768
       115        2.0000           -0.3929204             -10.6919
       116        2.0000           -0.3896940             -10.6041
       117        2.0000           -0.3882946             -10.5660
       118        1.5262           -0.3684842             -10.0270
       119        1.4738           -0.3682851             -10.0215
       120        0.9989           -0.2779110              -7.5623 (HOMO)
       121        0.0011           -0.2650167              -7.2115 (LUMO)
       122                         -0.2461173              -6.6972
       123                         -0.2427594              -6.6058
       124                         -0.2390236              -6.5042
       125                         -0.2364786              -6.4349
       126                         -0.2256787              -6.1410
       127                         -0.2245531              -6.1104
       128                         -0.2234337              -6.0799
       129                         -0.2189178              -5.9571
       130                         -0.2164782              -5.8907
       131                         -0.2150316              -5.8513
       ...                                ...                  ...
       233                          0.7268702              19.7791
      -------------------------------------------------------------
                  HL-Gap            0.0128942 Eh            0.3509 eV

     #   Z          covCN         q      C6AA      α(0)
     1   6 C        3.761    -0.111    22.673     6.788
     2   6 C        3.909     0.026    20.077     6.369
     3   6 C        3.761    -0.111    22.675     6.788
     4   6 C        2.978     0.001    27.994     8.679
     5   6 C        2.925    -0.031    28.772     8.797
     6   6 C        2.917    -0.029    28.716     8.787
     7   6 C        2.918    -0.025    28.639     8.776
     8   6 C        2.922    -0.046    29.132     8.851
     9   6 C        2.931     0.060    26.653     8.467
    10   7 N        2.753    -0.009    21.433     6.876
    11   6 C        2.931     0.060    26.658     8.467
    12   6 C        2.919    -0.035    28.873     8.812
    13   6 C        2.926    -0.029    28.732     8.790
    14   6 C        2.983     0.019    27.572     8.613
    15   6 C        3.920     0.011    20.338     6.409
    16   6 C        2.978     0.015    27.671     8.629
    17   6 C        2.923    -0.037    28.912     8.818
    18   6 C        2.919    -0.032    28.788     8.799
    19   6 C        2.919    -0.032    28.810     8.802
    20   6 C        2.919    -0.030    28.747     8.792
    21   6 C        2.926    -0.031    28.767     8.796
    22   6 C        2.986    -0.004    28.104     8.696
    23   6 C        2.921    -0.038    28.949     8.823
    24   6 C        2.917    -0.048    29.195     8.860
    25   6 C        2.915    -0.037    28.913     8.817
    26   6 C        2.924    -0.036    28.887     8.814
    27   6 C        2.979    -0.022    28.558     8.766
    28   6 C        2.838     0.164    24.451     8.103
    29   8 O        0.857    -0.503    23.850     6.548
    30   6 C        2.979    -0.020    28.499     8.757
    31   6 C        2.923    -0.036    28.893     8.815
    32   6 C        2.915    -0.036    28.908     8.817
    33   6 C        2.917    -0.047    29.175     8.857
    34   6 C        2.921    -0.040    28.985     8.829
    35   6 C        2.980    -0.004    28.119     8.698
    36   6 C        2.925    -0.031    28.778     8.797
    37   6 C        2.920    -0.033    28.826     8.804
    38   6 C        2.919     0.044    27.023     8.525
    39   6 C        2.980    -0.004    28.111     8.697
    40   6 C        2.925    -0.041    29.010     8.833
    41   6 C        2.910    -0.034    28.842     8.806
    42   6 C        3.057    -0.017    28.389     8.738
    43   6 C        3.086     0.113    25.419     8.265
    44   8 O        1.715    -0.228    17.773     5.692
    45   6 C        3.095     0.129    25.075     8.207
    46   6 C        2.908    -0.047    29.170     8.856
    47   6 C        2.927    -0.027    28.683     8.783
    48   6 C        2.921    -0.034    28.858     8.809
    49   6 C        2.912    -0.032    28.807     8.801
    50   6 C        3.056    -0.017    28.382     8.737
    51   1 H        0.925     0.057     2.233     2.337
    52   1 H        0.925     0.056     2.245     2.343
    53   1 H        0.925     0.040     2.446     2.446
    54   1 H        0.925     0.056     2.247     2.344
    55   1 H        0.925     0.039     2.458     2.452
    56   1 H        0.925     0.057     2.233     2.337
    57   1 H        0.926     0.056     2.247     2.344
    58   1 H        0.926     0.049     2.331     2.388
    59   1 H        0.926     0.047     2.357     2.401
    60   1 H        0.926     0.043     2.404     2.425
    61   1 H        0.926     0.048     2.339     2.392
    62   1 H        0.926     0.053     2.288     2.365
    63   1 H        0.926     0.033     2.540     2.492
    64   1 H        0.926     0.035     2.513     2.479
    65   1 H        0.926     0.034     2.536     2.490
    66   1 H        0.926     0.031     2.573     2.508
    67   1 H        0.926     0.023     2.684     2.562
    68   1 H        0.926     0.027     2.625     2.534
    69   1 H        0.926     0.026     2.637     2.539
    70   1 H        0.926     0.026     2.645     2.543
    71   1 H        0.926     0.023     2.692     2.566
    72   1 H        0.926     0.023     2.693     2.566
    73   1 H        0.926     0.026     2.651     2.546
    74   1 H        0.926     0.027     2.635     2.538
    75   1 H        0.926     0.028     2.614     2.529
    76   1 H        0.926     0.040     2.452     2.449
    77   1 H        0.926     0.045     2.389     2.417
    78   1 H        0.926     0.065     2.141     2.288
    79   1 H        0.926     0.059     2.209     2.324
    80   1 H        0.926     0.043     2.407     2.426
    81   1 H        0.926     0.046     2.376     2.410
    82   1 H        0.926     0.049     2.334     2.389
    83   1 H        0.926     0.053     2.284     2.363

molecular dipole:
                 x           y           z       tot (Debye)
 q only:        6.919       2.549      -2.192
   full:        6.486       2.456      -2.096      18.416

 projected vibrational frequencies (cm⁻¹)
eigval :       -0.00    -0.00     0.00     0.00     0.00     0.00
eigval :       -4.54    12.70    21.23    27.31    35.01    42.63
eigval :       45.45    47.45    58.19    68.26    69.75    81.60
eigval :       87.46   109.78   114.78   118.81   122.10   131.82
eigval :      135.39   155.33   172.27   187.55   194.71   212.16
eigval :      226.92   235.58   240.50   245.92   250.72   260.73
eigval :      271.69   281.61   286.93   305.42   307.88   308.63
eigval :      312.26   335.93   351.38   367.14   370.75   379.68
eigval :      388.02   390.08   391.87   404.42   405.77   412.74
eigval :      432.50   436.37   472.33   473.94   477.66   480.89
eigval :      497.10   510.08   521.79   523.90   525.99   528.39
eigval :      539.32   550.42   553.42   568.16   586.34   588.79
eigval :      591.05   599.80   605.69   612.91   620.36   626.02
eigval :      627.94   658.82   664.75   676.17   678.29   687.99
eigval :      693.04   698.25   703.94   711.85   713.52   745.75
eigval :      757.31   759.98   762.94   774.42   779.30   788.55
eigval :      802.49   818.31   826.73   849.18   852.17   855.83
eigval :      863.15   871.16   877.72   879.83   881.57   887.03
eigval :      893.74   898.94   904.74   906.13   906.57   907.23
eigval :      909.05   910.70   912.88   915.86   918.00   925.03
eigval :      926.39   928.47   933.59   934.43   937.79   939.46
eigval :      944.08   959.96   987.12   993.09  1012.13  1019.67
eigval :     1064.03  1078.41  1086.02  1089.07  1090.87  1094.42
eigval :     1095.87  1105.72  1108.97  1124.29  1125.73  1139.59
eigval :     1144.00  1151.22  1163.39  1169.02  1170.20  1171.00
eigval :     1175.06  1178.09  1180.44  1181.64  1186.01  1188.92
eigval :     1197.57  1201.07  1204.52  1209.43  1214.59  1221.58
eigval :     1232.47  1235.20  1245.67  1247.39  1251.93  1258.81
eigval :     1271.81  1283.65  1286.59  1291.72  1306.05  1311.56
eigval :     1319.09  1324.98  1330.11  1336.83  1340.64  1347.20
eigval :     1359.65  1387.12  1392.36  1397.86  1399.22  1409.09
eigval :     1411.80  1416.94  1420.48  1424.29  1431.44  1437.43
eigval :     1439.15  1463.57  1468.11  1471.76  1474.48  1477.80
eigval :     1479.14  1480.27  1489.74  1493.94  1513.70  1520.33
eigval :     1551.36  1552.28  1553.98  1560.60  1562.51  1577.25
eigval :     1581.34  1583.97  1585.92  1588.90  1597.38  1603.79
eigval :     3032.17  3033.89  3054.35  3056.11  3060.92  3061.68
eigval :     3061.85  3064.69  3066.06  3068.00  3069.40  3072.05
eigval :     3074.78  3076.17  3077.48  3082.23  3083.56  3084.22
eigval :     3084.96  3086.36  3086.82  3089.19  3090.54  3094.38
eigval :     3096.44  3101.26  3103.38  3105.23  3105.87  3111.43
eigval :     3111.59  3113.68  3115.60

   temp. (K)  partition function   enthalpy   heat capacity  entropy
                                   cal/mol     cal/K/mol   cal/K/mol   J/K/mol
 298.15  VIB  0.489E+18            23417.715    151.054    144.598
         ROT  0.675E+08              888.752      2.981     38.806
         INT  0.330E+26            24306.468    154.035    183.405
         TR   0.158E+29             1481.254      4.968     45.248
         TOT                       25787.7215   159.0027   228.6528   956.6835

       T/K    H(0)-H(T)+PV         H(T)/Eh          T*S/Eh         G(T)/Eh
   ------------------------------------------------------------------------
    298.15    0.410954E-01    0.682292E+00    0.108640E+00    0.573652E+00
   ------------------------------------------------------------------------

         :::::::::::::::::::::::::::::::::::::::::::::::::::::
         ::                  THERMODYNAMIC                  ::
         :::::::::::::::::::::::::::::::::::::::::::::::::::::
         :: total free energy        -127.984940868384 Eh   ::
         ::.................................................::
         :: total energy             -128.558592626011 Eh   ::
         :: zero point energy           0.641196750208 Eh   ::
         :: G(RRHO) w/o ZPVE           -0.067544992581 Eh   ::
         :: G(RRHO) contrib.            0.573651757627 Eh   ::
         :::::::::::::::::::::::::::::::::::::::::::::::::::::

           -------------------------------------------------
          | TOTAL ENERGY             -128.558592626011 Eh   |
          | TOTAL ENTHALPY           -127.876300525729 Eh   |
          | TOTAL FREE ENERGY        -127.984940868384 Eh   |
          | GRADIENT NORM               0.000068254988 Eh/α |
          | HOMO-LUMO GAP               0.350870323070 eV   |
           -------------------------------------------------

 * finished run on 2025/09/04 at 17:42:38.301
