   * xtb version 6.7.1 (edcfbbe) compiled by 'albert@albert-system' on 2024-07-22

   ID    Z sym.   atoms
    1    6 C      1-9, 11-28, 30-43, 45-50
    2    7 N      10
    3    8 O      29, 44
    4    1 H      51-83

          program call               : xtb data2507/toluene/DpAn-BzAc/DpAn-BzAc_toluene_S0_finalOpt.xtbopt.xyz --gfn 2 --uhf 2 --gbsa toluene --ohess vtight --parallel 40 --molden --ceasefiles --namespace data2507/toluene/DpAn-BzAc/DpAn-BzAc_toluene_T1_preOpt
      * Solvation model:               GBSA
        Solvent                        toluene
        Solvent mass                       9.2140E+01 g/mol
          :  Hamiltonian                  GFN2-xTB          :
 * total energy  :  -128.5539395 Eh     change       -0.4094460E-08 Eh
 * total energy  :  -128.5573107 Eh     change       -0.3371217E-02 Eh
 * total energy  :  -128.5582442 Eh     change       -0.9334772E-03 Eh
 * total energy  :  -128.5583513 Eh     change       -0.1071157E-03 Eh
 * total energy  :  -128.5584417 Eh     change       -0.9039385E-04 Eh
 * total energy  :  -128.5584840 Eh     change       -0.4237484E-04 Eh
 * total energy  :  -128.5585146 Eh     change       -0.3057191E-04 Eh
 * total energy  :  -128.5585308 Eh     change       -0.1613309E-04 Eh
 * total energy  :  -128.5585409 Eh     change       -0.1012939E-04 Eh
 * total energy  :  -128.5585534 Eh     change       -0.1248622E-04 Eh
 * total energy  :  -128.5585928 Eh     change       -0.4539544E-06 Eh
 * total energy  :  -128.5585932 Eh     change       -0.4667469E-06 Eh
 * total energy  :  -128.5585937 Eh     change       -0.5204459E-06 Eh
 * total energy  :  -128.5585942 Eh     change       -0.4761560E-06 Eh
 * total energy  :  -128.5585946 Eh     change       -0.3946732E-06 Eh
 * total energy  :  -128.5585949 Eh     change       -0.2680412E-06 Eh
 * total energy  :  -128.5585952 Eh     change       -0.2691897E-06 Eh
 * total energy  :  -128.5585954 Eh     change       -0.2355180E-06 Eh
 * total energy  :  -128.5585954 Eh     change       -0.2091838E-08 Eh
   *** GEOMETRY OPTIMIZATION CONVERGED AFTER 44 ITERATIONS ***

 final structure:
================
83
 xtb: 6.7.1 (edcfbbe)
C            6.53383700802609        1.09633487934942       -1.29828919278908
C            5.63891276368987        1.10134807258481       -0.04207863232430
C            6.50789462754629        1.20419204292655        1.22797642665127
C            4.73128423299800        2.31036529729414       -0.10294188628755
C            5.28192749414929        3.58410973968775       -0.16036788455641
C            4.49456187428414        4.71969397636373       -0.21339460414443
C            3.11238437307975        4.59711760814519       -0.20880444014392
C            2.53695434166457        3.34821592335190       -0.15117938689840
C            3.33250209280007        2.19413767319811       -0.09859360907825
N            2.72686276189918        0.95534978890648       -0.03795129108331
C            1.30276323715801        0.88949815454047        0.01281193374640
C            0.55898344217435        0.88332977093545       -1.15676031737033
C           -0.82221358388598        0.83374502580522       -1.09592770995479
C           -1.48466746980974        0.79035735634976        0.12561878071890
C           -3.00666850292273        0.67391228543795        0.20827200884161
C           -3.62948745625065        1.68501477923182        1.15694399241509
C           -2.97606355354617        2.84006739539920        1.56766044068372
C           -3.61080610793653        3.75364278775742        2.39312995682094
C           -4.91097135618881        3.53235204932130        2.81114124120269
C           -5.57914286155197        2.39432448380422        2.38836842246626
C           -4.94521057554335        1.48322387625291        1.56469355272264
C           -3.62257731711201        0.88186164532299       -1.16326899388363
C           -3.90440427093862        2.16158369401230       -1.61053817448437
C           -4.39074179973371        2.39274769988593       -2.88927322769040
C           -4.58958676837766        1.32262865005509       -3.75362533690548
C           -4.31185696848431        0.04365382357609       -3.33673661000893
C           -3.83657257422453       -0.20448418401131       -2.03349422935365
C           -3.61096242026606       -1.57142754045731       -1.62894880600942
O           -3.66246201295622       -2.53336043404268       -2.46154239466750
C           -3.42929283095410       -1.79843917851542       -0.21699822152664
C           -3.50214710577616       -3.12177509235981        0.26628512964612
C           -3.44440743832224       -3.38499859865138        1.61252339136258
C           -3.31633840835800       -2.33820399827931        2.51839340953591
C           -3.21713601878499       -1.03565750247694        2.05218908768378
C           -3.25221966173295       -0.74425867760446        0.69880248333810
C           -0.72059203455708        0.78859425759009        1.29010131655415
C            0.65753470925210        0.84513489401000        1.24186401715354
C            3.45395591583180       -0.20908989656113       -0.00055779811071
C            4.86250759127321       -0.19835401758758        0.00453636255635
C            5.56523750056127       -1.40054629158952        0.05347622332661
C            4.94418494300620       -2.63272245757328        0.09317457605852
C            3.55536392967334       -2.66409634468804        0.07872378668056
C            2.82407776618588       -1.46585070514052        0.03128388820027
O            1.48250949609736       -1.70650006990882        0.01811398597482
C            1.32857408094378       -3.05863690179442        0.05648845600097
C            0.13100211760553       -3.75302002976980        0.05639625662968
C            0.20744822597094       -5.13332066566718        0.10188843714381
C            1.43256414750640       -5.79762499381960        0.14608616245646
C            2.62581167618206       -5.10267698858392        0.14451511350664
C            2.57399367938504       -3.71515560788370        0.09814057926162
H            7.22035025507080        0.25593522828340       -1.28045454567743
H            5.91897609639147        1.02008790539895       -2.19288550980644
H            7.11617994038537        2.01040004851051       -1.35774259924816
H            7.08609190603999        2.12287890626972        1.22289911121080
H            7.19658318283722        0.36778596361819        1.29283283192262
H            5.87535455243334        1.19955275406441        2.11334687583091
H            6.35399482215190        3.70014710512515       -0.16350826503585
H            4.95523948231719        5.69438713548564       -0.25758552630941
H            2.48500879391212        5.47419889316914       -0.25019618410699
H            1.46327783033198        3.25144328423021       -0.14941958129423
H            1.05907625558527        0.91512954010120       -2.11364117715394
H           -1.38416041300686        0.83069291100606       -2.01679099638061
H           -1.96661274032693        3.03601628686862        1.23755281262323
H           -3.08591725985118        4.64518782581065        2.70507433275355
H           -5.40516214452686        4.24497136983561        3.45514104598220
H           -6.59918130802409        2.21733845821077        2.69756532147016
H           -5.47147104983044        0.60007999875321        1.22998978302618
H           -3.73107616347435        3.00130731659238       -0.95305712166017
H           -4.60425465606939        3.40147329649538       -3.20958523633918
H           -4.96383731917309        1.49149232656585       -4.75365235382766
H           -4.45966840657579       -0.80693096294346       -3.98704517111641
H           -3.62578905588339       -3.91247206085689       -0.46051076308978
H           -3.51038760353571       -4.40482052706988        1.96455536072394
H           -3.29045791205196       -2.53388328671302        3.57980376753206
H           -3.12368511687596       -0.23075993271092        2.76714842511398
H           -1.20733611573382        0.74778225242233        2.25118253610228
H            1.23654484624086        0.85125150576394        2.15356239308130
H            6.64255888067065       -1.37451193366069        0.06119203413656
H            5.51575280677388       -3.54549551931935        0.13105887456179
H           -0.81516965356744       -3.23716710208190        0.02076907127108
H           -0.70587678535015       -5.70818331874815        0.09984058953200
H            1.44308727345528       -6.87668588854321        0.18054854212253
H            3.57305717960154       -5.61780662880997        0.17690374297764

          :  Hamiltonian                  GFN2-xTB          :
         :: gradient norm              0.000034646100 Eh/a0 ::
         :: HOMO-LUMO gap              0.350436914908 eV    ::
         :: SCC energy              -130.841638114471 Eh    ::
         :: -> dispersion             -0.127746936438 Eh    ::
         :: -> Gsolv                  -0.064099560997 Eh    ::
         :: repulsion energy           2.283042725409 Eh    ::

    * Orbital Energies and Occupations

         #    Occupation            Energy/Eh            Energy/eV
      -------------------------------------------------------------
         1        2.0000           -0.7505717             -20.4241
       ...           ...                  ...                  ...
       108        2.0000           -0.4123327             -11.2201
       109        2.0000           -0.4054307             -11.0323
       110        2.0000           -0.4048244             -11.0158
       111        2.0000           -0.4033011             -10.9744
       112        2.0000           -0.3985463             -10.8450
       113        2.0000           -0.3972324             -10.8092
       114        2.0000           -0.3960284             -10.7765
       115        2.0000           -0.3929130             -10.6917
       116        2.0000           -0.3896836             -10.6038
       117        2.0000           -0.3882947             -10.5660
       118        1.5257           -0.3684864             -10.0270
       119        1.4743           -0.3682912             -10.0217
       120        0.9989           -0.2779080              -7.5623 (HOMO)
       121        0.0011           -0.2650304              -7.2118 (LUMO)
       122                         -0.2461283              -6.6975
       123                         -0.2427641              -6.6059
       124                         -0.2390016              -6.5036
       125                         -0.2365039              -6.4356
       126                         -0.2256978              -6.1415
       127                         -0.2245566              -6.1105
       128                         -0.2234258              -6.0797
       129                         -0.2189341              -5.9575
       130                         -0.2164736              -5.8905
       131                         -0.2150242              -5.8511
       ...                                ...                  ...
       233                          0.7268353              19.7782
      -------------------------------------------------------------
                  HL-Gap            0.0128776 Eh            0.3504 eV

     #   Z          covCN         q      C6AA      α(0)
     1   6 C        3.761    -0.111    22.674     6.788
     2   6 C        3.909     0.026    20.077     6.369
     3   6 C        3.761    -0.111    22.674     6.788
     4   6 C        2.978     0.001    27.994     8.679
     5   6 C        2.925    -0.031    28.772     8.796
     6   6 C        2.917    -0.029    28.716     8.787
     7   6 C        2.918    -0.025    28.639     8.776
     8   6 C        2.922    -0.046    29.132     8.851
     9   6 C        2.931     0.060    26.653     8.467
    10   7 N        2.753    -0.009    21.433     6.876
    11   6 C        2.931     0.060    26.657     8.467
    12   6 C        2.920    -0.033    28.824     8.804
    13   6 C        2.925    -0.031    28.778     8.797
    14   6 C        2.983     0.019    27.571     8.613
    15   6 C        3.920     0.011    20.338     6.409
    16   6 C        2.978     0.015    27.671     8.629
    17   6 C        2.923    -0.037    28.912     8.818
    18   6 C        2.919    -0.032    28.788     8.799
    19   6 C        2.919    -0.032    28.810     8.802
    20   6 C        2.919    -0.030    28.747     8.792
    21   6 C        2.926    -0.031    28.768     8.796
    22   6 C        2.980    -0.004    28.119     8.698
    23   6 C        2.921    -0.040    28.985     8.829
    24   6 C        2.917    -0.047    29.175     8.857
    25   6 C        2.915    -0.036    28.908     8.817
    26   6 C        2.923    -0.036    28.892     8.815
    27   6 C        2.979    -0.020    28.499     8.757
    28   6 C        2.838     0.164    24.452     8.104
    29   8 O        0.857    -0.503    23.852     6.548
    30   6 C        2.979    -0.022    28.558     8.766
    31   6 C        2.924    -0.036    28.888     8.814
    32   6 C        2.915    -0.037    28.914     8.818
    33   6 C        2.917    -0.048    29.195     8.860
    34   6 C        2.921    -0.038    28.949     8.823
    35   6 C        2.986    -0.004    28.105     8.696
    36   6 C        2.926    -0.029    28.732     8.790
    37   6 C        2.920    -0.035    28.876     8.812
    38   6 C        2.919     0.044    27.024     8.525
    39   6 C        2.980    -0.004    28.110     8.697
    40   6 C        2.925    -0.041    29.010     8.833
    41   6 C        2.910    -0.034    28.842     8.806
    42   6 C        3.057    -0.017    28.389     8.738
    43   6 C        3.086     0.113    25.418     8.265
    44   8 O        1.715    -0.228    17.773     5.692
    45   6 C        3.095     0.129    25.075     8.207
    46   6 C        2.908    -0.047    29.166     8.855
    47   6 C        2.927    -0.027    28.682     8.783
    48   6 C        2.921    -0.034    28.858     8.809
    49   6 C        2.912    -0.032    28.807     8.801
    50   6 C        3.056    -0.017    28.382     8.737
    51   1 H        0.925     0.056     2.246     2.344
    52   1 H        0.925     0.039     2.458     2.452
    53   1 H        0.925     0.057     2.233     2.337
    54   1 H        0.925     0.057     2.233     2.337
    55   1 H        0.925     0.056     2.245     2.343
    56   1 H        0.925     0.040     2.446     2.446
    57   1 H        0.926     0.056     2.247     2.344
    58   1 H        0.926     0.049     2.331     2.388
    59   1 H        0.926     0.047     2.357     2.401
    60   1 H        0.926     0.043     2.404     2.425
    61   1 H        0.926     0.045     2.386     2.415
    62   1 H        0.926     0.040     2.452     2.449
    63   1 H        0.926     0.033     2.541     2.493
    64   1 H        0.926     0.035     2.513     2.479
    65   1 H        0.926     0.034     2.536     2.490
    66   1 H        0.926     0.031     2.573     2.508
    67   1 H        0.926     0.023     2.683     2.562
    68   1 H        0.926     0.028     2.614     2.529
    69   1 H        0.926     0.027     2.635     2.538
    70   1 H        0.926     0.026     2.651     2.546
    71   1 H        0.926     0.023     2.693     2.566
    72   1 H        0.926     0.023     2.692     2.566
    73   1 H        0.926     0.026     2.645     2.543
    74   1 H        0.926     0.026     2.637     2.539
    75   1 H        0.926     0.027     2.625     2.533
    76   1 H        0.926     0.053     2.288     2.365
    77   1 H        0.926     0.048     2.341     2.393
    78   1 H        0.926     0.065     2.141     2.288
    79   1 H        0.926     0.059     2.208     2.324
    80   1 H        0.926     0.043     2.409     2.427
    81   1 H        0.926     0.046     2.377     2.411
    82   1 H        0.926     0.049     2.334     2.389
    83   1 H        0.926     0.053     2.283     2.363

molecular dipole:
                 x           y           z       tot (Debye)
 q only:        6.928       2.555       2.212
   full:        6.495       2.462       2.115      18.455

 projected vibrational frequencies (cm⁻¹)
eigval :       -0.00    -0.00    -0.00    -0.00     0.00     0.00
eigval :        5.27    13.20    21.38    24.26    36.13    38.77
eigval :       46.68    47.78    56.74    67.82    69.40    81.10
eigval :       87.58   109.78   113.29   119.28   122.97   133.25
eigval :      137.20   155.50   172.08   187.41   197.48   211.88
eigval :      226.41   235.76   240.21   246.18   250.67   260.99
eigval :      271.44   281.03   287.16   305.45   307.60   308.74
eigval :      312.23   335.67   351.89   366.84   370.96   379.52
eigval :      386.84   388.97   391.41   404.22   405.79   412.45
eigval :      432.95   435.11   472.53   474.25   477.22   480.97
eigval :      497.51   510.14   521.08   523.48   525.28   528.96
eigval :      539.33   550.89   552.25   568.26   586.30   588.78
eigval :      591.03   599.75   605.74   612.81   620.55   626.03
eigval :      627.09   658.83   664.86   676.33   678.44   686.70
eigval :      693.13   697.95   704.05   709.86   713.65   745.82
eigval :      756.86   759.69   763.18   774.22   777.64   788.42
eigval :      802.22   817.68   826.60   849.18   852.20   855.76
eigval :      861.79   870.64   875.95   879.73   880.90   887.12
eigval :      893.28   899.10   904.55   906.17   906.35   907.81
eigval :      908.17   910.58   912.66   915.37   917.75   924.92
eigval :      925.41   927.06   932.64   934.18   937.45   939.48
eigval :      944.17   960.17   987.25   993.12  1012.83  1019.67
eigval :     1060.64  1078.48  1085.96  1088.63  1090.44  1094.44
eigval :     1095.79  1105.60  1108.95  1123.95  1125.66  1139.38
eigval :     1144.16  1149.67  1163.19  1168.45  1169.90  1172.03
eigval :     1174.70  1177.85  1180.32  1181.41  1185.56  1188.72
eigval :     1197.13  1201.10  1204.56  1208.89  1214.41  1221.76
eigval :     1232.18  1235.33  1245.18  1247.67  1251.70  1257.72
eigval :     1271.72  1283.65  1286.66  1291.73  1306.17  1311.84
eigval :     1319.16  1325.08  1330.11  1336.94  1340.65  1346.98
eigval :     1359.58  1387.00  1391.94  1398.07  1399.29  1409.17
eigval :     1411.56  1417.05  1420.26  1424.21  1431.45  1437.26
eigval :     1439.12  1463.42  1468.12  1471.82  1474.50  1477.82
eigval :     1479.21  1480.47  1490.14  1493.94  1513.85  1520.51
eigval :     1551.41  1552.33  1553.88  1560.49  1562.73  1577.31
eigval :     1581.33  1584.04  1586.00  1588.84  1597.40  1603.38
eigval :     3032.14  3033.87  3054.35  3056.25  3060.99  3061.92
eigval :     3062.14  3064.79  3066.15  3067.87  3069.48  3072.23
eigval :     3074.36  3076.32  3077.66  3082.14  3083.60  3084.00
eigval :     3085.26  3086.48  3086.88  3088.89  3090.66  3094.44
eigval :     3096.34  3101.09  3104.27  3105.20  3105.90  3108.79
eigval :     3111.84  3113.50  3115.55

   temp. (K)  partition function   enthalpy   heat capacity  entropy
                                   cal/mol     cal/K/mol   cal/K/mol   J/K/mol
 298.15  VIB  0.472E+18            23426.327    151.010    144.482
         ROT  0.675E+08              888.752      2.981     38.806
         INT  0.319E+26            24315.080    153.991    183.288
         TR   0.158E+29             1481.254      4.968     45.248
         TOT                       25796.3337   158.9588   228.5365   956.1969

       T/K    H(0)-H(T)+PV         H(T)/Eh          T*S/Eh         G(T)/Eh
   ------------------------------------------------------------------------
    298.15    0.411091E-01    0.682229E+00    0.108585E+00    0.573644E+00
   ------------------------------------------------------------------------

         :::::::::::::::::::::::::::::::::::::::::::::::::::::
         ::                  THERMODYNAMIC                  ::
         :::::::::::::::::::::::::::::::::::::::::::::::::::::
         :: total free energy        -127.984951843653 Eh   ::
         ::.................................................::
         :: total energy             -128.558595386091 Eh   ::
         :: zero point energy           0.641119551851 Eh   ::
         :: G(RRHO) w/o ZPVE           -0.067476009412 Eh   ::
         :: G(RRHO) contrib.            0.573643542439 Eh   ::
         :::::::::::::::::::::::::::::::::::::::::::::::::::::

           -------------------------------------------------
          | TOTAL ENERGY             -128.558595386091 Eh   |
          | TOTAL ENTHALPY           -127.876366759840 Eh   |
          | TOTAL FREE ENERGY        -127.984951843653 Eh   |
          | GRADIENT NORM               0.000037488513 Eh/α |
          | HOMO-LUMO GAP               0.350416952815 eV   |
           -------------------------------------------------

 * finished run on 2025/09/04 at 17:35:13.866
