   * xtb version 6.7.1 (edcfbbe) compiled by 'albert@albert-system' on 2024-07-22

   ID    Z sym.   atoms
    1    6 C      1-9, 11-28, 30-43, 45-50
    2    7 N      10
    3    8 O      29, 44
    4    1 H      51-83

          program call               : xtb data2507/toluene/DpAn-BzAc/DpAn-BzAc_toluene_S0_crest.xyz --gfn 2 --gbsa toluene --ohess vtight --parallel 40 --molden --ceasefiles --namespace data2507/toluene/DpAn-BzAc/DpAn-BzAc_toluene_S0_finalOpt
      * Solvation model:               GBSA
        Solvent                        toluene
        Solvent mass                       9.2140E+01 g/mol
          :  Hamiltonian                  GFN2-xTB          :
 * total energy  :  -128.6379672 Eh     change       -0.4951119E-08 Eh
 * total energy  :  -128.6380692 Eh     change       -0.1019991E-03 Eh
 * total energy  :  -128.6381194 Eh     change       -0.5013034E-04 Eh
 * total energy  :  -128.6381452 Eh     change       -0.2586633E-04 Eh
 * total energy  :  -128.6381681 Eh     change       -0.2282228E-04 Eh
 * total energy  :  -128.6381946 Eh     change       -0.2652100E-04 Eh
 * total energy  :  -128.6382090 Eh     change       -0.1441180E-04 Eh
 * total energy  :  -128.6382196 Eh     change       -0.1062372E-04 Eh
 * total energy  :  -128.6382347 Eh     change       -0.1509092E-04 Eh
 * total energy  :  -128.6382475 Eh     change       -0.1278687E-04 Eh
 * total energy  :  -128.6383567 Eh     change       -0.2481184E-05 Eh
 * total energy  :  -128.6383588 Eh     change       -0.2038594E-05 Eh
 * total energy  :  -128.6383607 Eh     change       -0.1871878E-05 Eh
 * total energy  :  -128.6383624 Eh     change       -0.1794140E-05 Eh
 * total energy  :  -128.6383639 Eh     change       -0.1474961E-05 Eh
 * total energy  :  -128.6383649 Eh     change       -0.9987801E-06 Eh
 * total energy  :  -128.6383656 Eh     change       -0.6391082E-06 Eh
 * total energy  :  -128.6383660 Eh     change       -0.4428391E-06 Eh
 * total energy  :  -128.6383660 Eh     change       -0.2908934E-08 Eh
   *** GEOMETRY OPTIMIZATION CONVERGED AFTER 44 ITERATIONS ***

 final structure:
================
83
 xtb: 6.7.1 (edcfbbe)
C            6.55159020218258        1.07830546773832       -1.27526158331014
C            5.64359772553331        1.11285504547514       -0.03088369545949
C            6.49445271838576        1.25243354159807        1.24587349114402
C            4.72696996099016        2.31827224348676       -0.13382457577047
C            5.27795605030840        3.59057711918908       -0.21100501803919
C            4.49525651510020        4.72773860380355       -0.29401868933061
C            3.11774714363581        4.60154462085396       -0.29604254915006
C            2.54367809209947        3.34970366451506       -0.22087077223717
C            3.33370503349603        2.19891357243582       -0.14566720515377
N            2.72537607807117        0.95450378697954       -0.07402486998644
C            1.30525972302701        0.88127942713136       -0.01904565665387
C            0.55102744569712        0.94013688070867       -1.18088430303816
C           -0.82999428064661        0.87885702607243       -1.11883838825941
C           -1.48350104187271        0.75987389432293        0.10104633861128
C           -3.00940471675444        0.65537003684675        0.19688383244466
C           -3.60925417547353        1.66349455738924        1.16948034157032
C           -2.92465730663350        2.78834261304134        1.60897425583971
C           -3.53670338373594        3.69604602069492        2.45839466227342
C           -4.84285943469192        3.49840436295505        2.86959652891619
C           -5.54077697186307        2.39025391177547        2.41724653011657
C           -4.93011475810077        1.48412605251693        1.57025906692051
C           -3.63243758998910        0.90272604543517       -1.16217886412525
C           -3.92991202538274        2.19610576313040       -1.57700075082217
C           -4.46631528108434        2.43725768872666       -2.82935430452751
C           -4.70178142300039        1.38850313771914       -3.70657361388174
C           -4.38976743862889        0.10245625866967       -3.31951309503263
C           -3.85860417735116       -0.15021487271601       -2.05352651239397
C           -3.54704583987665       -1.54240328923936       -1.68671961222048
O           -3.44037163479736       -2.43111917152657       -2.52250500182579
C           -3.44325762161197       -1.80133220802436       -0.24132094202403
C           -3.58182558530464       -3.11727856286545        0.20546622432079
C           -3.56320144435990       -3.40888242262520        1.55254443036523
C           -3.41126251816533       -2.37632600165091        2.46633600265955
C           -3.26215598683134       -1.07184879059639        2.03108262430771
C           -3.26970538373328       -0.76129916785079        0.67545140163883
C           -0.71529718727056        0.69421240639669        1.25997296962690
C            0.66254156391207        0.76286923767089        1.20597916679604
C            3.46739351878107       -0.20980479634802        0.00384545604900
C            4.86641383512578       -0.19066246819550        0.03849925681838
C            5.57862883024867       -1.38828911150744        0.12920405151748
C            4.97096381856995       -2.62321590982960        0.18153322970733
C            3.58393626163882       -2.66085617896413        0.12864077980497
C            2.85144239764051       -1.46756608645053        0.03747577488647
O            1.50103484727639       -1.71948325443094       -0.01577138821841
C            1.36020438892512       -3.07136019262206        0.04370363812480
C            0.16978557641968       -3.77648381590429        0.01958905152000
C            0.25143610729333       -5.15570807616957        0.09552057154307
C            1.47804595845087       -5.80904208537234        0.19140974106649
C            2.66504444773132       -5.10309651487382        0.21293736005739
C            2.60733927780150       -3.71736998916393        0.13751558625203
H            7.24222403181814        0.24122890243893       -1.23077599844250
H            5.94498864388956        0.97527379606559       -2.17347522457397
H            7.13125665118373        1.99337002796191       -1.35614035028988
H            7.07028130403095        2.17330827402168        1.22721272495496
H            7.18594198010269        0.42076944293969        1.34554637374094
H            5.84843282193059        1.26902742035277        2.12194156378476
H            6.35121243743852        3.70529327858860       -0.20482984039371
H            4.95836566384571        5.70117489266018       -0.35347564821873
H            2.48660960940881        5.47615452082411       -0.35533011239603
H            1.46881041184300        3.25648992857130       -0.22088524582654
H            1.04709172278189        1.03254137755098       -2.13613867943524
H           -1.39073663312573        0.92524219856249       -2.03957802452467
H           -1.90932444630855        2.96501548497380        1.28697605866509
H           -2.98769237119182        4.56378106519036        2.79442296505076
H           -5.31791303293140        4.20682713092834        3.53212674399844
H           -6.56502826246647        2.23253297984535        2.72199007986403
H           -5.48145298078419        0.62533107425638        1.21393008411253
H           -3.74097752522674        3.02488110923887       -0.91195887222918
H           -4.69861272426455        3.45000984870861       -3.12356940979954
H           -5.11830336652823        1.57631866857339       -4.68463671813008
H           -4.54734434929179       -0.73814553798784       -3.98007876566467
H           -3.71237098715522       -3.89159359465383       -0.53734468496758
H           -3.67132618861414       -4.42798704195230        1.89136306545607
H           -3.40990671540400       -2.58859727528097        3.52516464077604
H           -3.16208475507226       -0.28277436044097        2.76078175728695
H           -1.19445907161098        0.59684526500822        2.22086808111187
H            1.24718912501437        0.71586751173933        2.11320226811659
H            6.65607609145799       -1.35035270686687        0.16055801636467
H            5.54808998303119       -3.53089993846730        0.25399993493727
H           -0.77694863538982       -3.26621253612443       -0.05862672739530
H           -0.65706759173289       -5.73834594726504        0.07655513910303
H            1.49701649800796       -6.88732386356367        0.24840138497489
H            3.61544900433354       -5.60933942545031        0.28546868919192

          :  Hamiltonian                  GFN2-xTB          :
         :: gradient norm              0.000041838719 Eh/a0 ::
         :: HOMO-LUMO gap              1.355210222528 eV    ::
         :: SCC energy              -130.932767784126 Eh    ::
         :: -> dispersion             -0.127657895341 Eh    ::
         :: -> Gsolv                  -0.051426194716 Eh    ::
         :: repulsion energy           2.294401777595 Eh    ::

    * Orbital Energies and Occupations

         #    Occupation            Energy/Eh            Energy/eV
      -------------------------------------------------------------
         1        2.0000           -0.7342892             -19.9810
       ...           ...                  ...                  ...
       107        2.0000           -0.4154047             -11.3037
       108        2.0000           -0.4140983             -11.2682
       109        2.0000           -0.4114493             -11.1961
       110        2.0000           -0.4099005             -11.1540
       111        2.0000           -0.4090396             -11.1305
       112        2.0000           -0.4069175             -11.0728
       113        2.0000           -0.4017761             -10.9329
       114        2.0000           -0.4000710             -10.8865
       115        2.0000           -0.3956782             -10.7670
       116        2.0000           -0.3911272             -10.6431
       117        2.0000           -0.3900857             -10.6148
       118        2.0000           -0.3827238             -10.4144
       119        2.0000           -0.3456515              -9.4057 (HOMO)
       120                         -0.2958485              -8.0504 (LUMO)
       121                         -0.2493646              -6.7856
       122                         -0.2448077              -6.6616
       123                         -0.2384000              -6.4872
       124                         -0.2355108              -6.4086
       125                         -0.2345771              -6.3832
       126                         -0.2291691              -6.2360
       127                         -0.2284548              -6.2166
       128                         -0.2274360              -6.1888
       129                         -0.2259078              -6.1473
       130                         -0.2187123              -5.9515
       ...                                ...                  ...
       233                          0.7418943              20.1880
      -------------------------------------------------------------
                  HL-Gap            0.0498031 Eh            1.3552 eV

     #   Z          covCN         q      C6AA      α(0)
     1   6 C        3.761    -0.106    22.565     6.772
     2   6 C        3.909     0.022    20.143     6.379
     3   6 C        3.761    -0.106    22.565     6.772
     4   6 C        2.979    -0.014    28.357     8.735
     5   6 C        2.928    -0.037    28.932     8.821
     6   6 C        2.917    -0.046    29.145     8.853
     7   6 C        2.919    -0.035    28.859     8.809
     8   6 C        2.924    -0.059    29.469     8.902
     9   6 C        2.929     0.059    26.679     8.471
    10   7 N        2.752    -0.072    22.633     7.066
    11   6 C        2.927     0.074    26.346     8.418
    12   6 C        2.921    -0.035    28.879     8.813
    13   6 C        2.923    -0.035    28.864     8.810
    14   6 C        2.983     0.017    27.628     8.622
    15   6 C        3.920     0.009    20.364     6.414
    16   6 C        2.979     0.014    27.693     8.632
    17   6 C        2.922    -0.035    28.882     8.813
    18   6 C        2.920    -0.030    28.743     8.792
    19   6 C        2.919    -0.031    28.771     8.796
    20   6 C        2.919    -0.029    28.726     8.789
    21   6 C        2.925    -0.033    28.817     8.803
    22   6 C        2.982     0.018    27.601     8.618
    23   6 C        2.922    -0.033    28.824     8.804
    24   6 C        2.920    -0.022    28.544     8.761
    25   6 C        2.916    -0.029    28.723     8.788
    26   6 C        2.925    -0.019    28.480     8.752
    27   6 C        2.979    -0.022    28.554     8.765
    28   6 C        2.833     0.226    23.247     7.901
    29   8 O        0.858    -0.436    22.415     6.348
    30   6 C        2.979    -0.024    28.598     8.772
    31   6 C        2.926    -0.018    28.466     8.750
    32   6 C        2.916    -0.029    28.720     8.788
    33   6 C        2.920    -0.022    28.545     8.761
    34   6 C        2.922    -0.032    28.793     8.800
    35   6 C        2.987     0.019    27.586     8.616
    36   6 C        2.925    -0.032    28.809     8.802
    37   6 C        2.921    -0.035    28.876     8.812
    38   6 C        2.917     0.042    27.064     8.531
    39   6 C        2.982    -0.020    28.494     8.756
    40   6 C        2.928    -0.047    29.164     8.856
    41   6 C        2.910    -0.053    29.308     8.877
    42   6 C        3.058    -0.026    28.595     8.769
    43   6 C        3.082     0.102    25.657     8.304
    44   8 O        1.714    -0.252    18.166     5.755
    45   6 C        3.087     0.127    25.135     8.218
    46   6 C        2.908    -0.053    29.322     8.879
    47   6 C        2.927    -0.033    28.825     8.805
    48   6 C        2.921    -0.040    28.996     8.830
    49   6 C        2.913    -0.036    28.886     8.813
    50   6 C        3.054    -0.022    28.493     8.754
    51   1 H        0.925     0.044     2.402     2.424
    52   1 H        0.925     0.030     2.585     2.514
    53   1 H        0.925     0.045     2.389     2.417
    54   1 H        0.925     0.045     2.389     2.417
    55   1 H        0.925     0.044     2.400     2.423
    56   1 H        0.925     0.031     2.572     2.508
    57   1 H        0.926     0.034     2.525     2.485
    58   1 H        0.926     0.028     2.622     2.532
    59   1 H        0.926     0.029     2.606     2.524
    60   1 H        0.926     0.025     2.664     2.552
    61   1 H        0.926     0.041     2.442     2.444
    62   1 H        0.926     0.036     2.499     2.472
    63   1 H        0.926     0.035     2.517     2.481
    64   1 H        0.926     0.036     2.505     2.475
    65   1 H        0.926     0.035     2.511     2.478
    66   1 H        0.926     0.035     2.517     2.481
    67   1 H        0.926     0.028     2.619     2.531
    68   1 H        0.926     0.047     2.361     2.403
    69   1 H        0.926     0.049     2.335     2.390
    70   1 H        0.926     0.046     2.374     2.409
    71   1 H        0.926     0.048     2.349     2.397
    72   1 H        0.926     0.048     2.350     2.397
    73   1 H        0.926     0.046     2.373     2.409
    74   1 H        0.926     0.049     2.334     2.389
    75   1 H        0.926     0.047     2.361     2.403
    76   1 H        0.926     0.051     2.309     2.376
    77   1 H        0.926     0.042     2.419     2.432
    78   1 H        0.926     0.043     2.413     2.429
    79   1 H        0.926     0.037     2.494     2.470
    80   1 H        0.926     0.035     2.516     2.480
    81   1 H        0.926     0.041     2.430     2.438
    82   1 H        0.926     0.041     2.439     2.442
    83   1 H        0.926     0.042     2.428     2.437

molecular dipole:
                 x           y           z       tot (Debye)
 q only:       -0.042       1.393       1.476
   full:       -0.212       1.364       1.427       5.046

 projected vibrational frequencies (cm⁻¹)
eigval :       -0.00    -0.00    -0.00    -0.00    -0.00     0.00
eigval :        9.68    11.99    17.16    27.21    35.06    39.35
eigval :       44.61    48.33    55.90    61.63    67.80    80.96
eigval :       88.02   105.78   111.16   117.48   123.68   127.22
eigval :      134.09   150.51   169.57   185.61   188.78   210.97
eigval :      229.13   229.68   240.51   243.98   250.39   257.04
eigval :      266.94   280.73   291.79   306.36   307.69   310.93
eigval :      314.99   339.91   351.17   369.10   375.08   381.63
eigval :      390.42   391.64   395.04   401.92   406.32   408.09
eigval :      435.34   437.98   473.14   473.74   475.78   483.45
eigval :      500.71   512.95   515.77   526.76   530.58   540.20
eigval :      552.19   555.10   567.95   588.46   591.06   598.61
eigval :      601.50   609.84   619.43   622.29   625.24   631.54
eigval :      653.81   661.82   678.13   680.20   688.83   689.94
eigval :      693.13   705.77   710.37   710.53   740.05   746.72
eigval :      758.56   776.58   776.93   778.36   789.25   798.35
eigval :      801.45   818.14   820.25   849.69   866.62   868.41
eigval :      870.50   882.15   884.02   891.45   894.98   896.18
eigval :      901.68   905.27   908.44   910.94   911.54   912.94
eigval :      916.56   919.87   922.55   923.87   925.21   929.18
eigval :      932.40   933.72   935.45   937.26   938.54   945.96
eigval :      952.52   956.63   984.63   993.92  1013.10  1021.93
eigval :     1063.78  1079.64  1087.00  1093.96  1095.99  1097.53
eigval :     1102.42  1110.79  1114.49  1125.33  1127.40  1141.40
eigval :     1152.49  1157.70  1166.38  1172.62  1174.14  1177.00
eigval :     1179.71  1180.40  1181.09  1183.74  1186.30  1194.17
eigval :     1202.83  1208.86  1213.31  1217.69  1222.41  1232.94
eigval :     1242.17  1250.41  1252.41  1254.22  1259.70  1272.93
eigval :     1274.27  1286.46  1288.04  1293.51  1309.98  1317.36
eigval :     1322.05  1323.95  1328.24  1330.23  1343.50  1347.46
eigval :     1360.33  1397.32  1399.64  1401.08  1418.50  1422.59
eigval :     1424.59  1426.37  1431.57  1437.18  1454.56  1464.30
eigval :     1470.43  1472.52  1479.89  1484.37  1485.56  1486.34
eigval :     1495.92  1500.80  1501.01  1565.74  1568.43  1569.97
eigval :     1577.83  1579.64  1585.05  1586.96  1587.05  1587.83
eigval :     1594.42  1595.00  1597.99  1599.74  1612.02  1648.56
eigval :     3022.79  3025.31  3041.81  3043.68  3050.13  3054.08
eigval :     3068.45  3073.08  3073.31  3077.95  3079.53  3079.62
eigval :     3079.76  3080.66  3081.08  3081.58  3082.97  3083.57
eigval :     3088.81  3088.86  3090.47  3091.64  3092.17  3093.18
eigval :     3095.76  3096.03  3097.78  3099.94  3100.74  3102.26
eigval :     3104.28  3107.85  3111.11

   temp. (K)  partition function   enthalpy   heat capacity  entropy
                                   cal/mol     cal/K/mol   cal/K/mol   J/K/mol
 298.15  VIB  0.396E+18            23330.698    149.663    143.979
         ROT  0.677E+08              888.752      2.981     38.813
         INT  0.268E+26            24219.450    152.644    182.792
         TR   0.158E+29             1481.254      4.968     45.248
         TOT                       25700.7042   157.6119   228.0400   954.1192

       T/K    H(0)-H(T)+PV         H(T)/Eh          T*S/Eh         G(T)/Eh
   ------------------------------------------------------------------------
    298.15    0.409567E-01    0.685199E+00    0.108349E+00    0.576850E+00
   ------------------------------------------------------------------------

         :::::::::::::::::::::::::::::::::::::::::::::::::::::
         ::                  THERMODYNAMIC                  ::
         :::::::::::::::::::::::::::::::::::::::::::::::::::::
         :: total free energy        -128.061516259563 Eh   ::
         ::.................................................::
         :: total energy             -128.638366007304 Eh   ::
         :: zero point energy           0.644242216240 Eh   ::
         :: G(RRHO) w/o ZPVE           -0.067392468499 Eh   ::
         :: G(RRHO) contrib.            0.576849747742 Eh   ::
         :::::::::::::::::::::::::::::::::::::::::::::::::::::

           -------------------------------------------------
          | TOTAL ENERGY             -128.638366007304 Eh   |
          | TOTAL ENTHALPY           -127.953167111866 Eh   |
          | TOTAL FREE ENERGY        -128.061516259563 Eh   |
          | GRADIENT NORM               0.000041845091 Eh/α |
          | HOMO-LUMO GAP               1.355210033868 eV   |
           -------------------------------------------------

 * finished run on 2025/09/04 at 17:35:04.225
