   * xtb version 6.7.1 (edcfbbe) compiled by 'albert@albert-system' on 2024-07-22

   ID    Z sym.   atoms
    1    6 C      1-9, 11-28, 30-43, 45-50
    2    7 N      10
    3    8 O      29, 44
    4    1 H      51-83

          program call               : xtb data2507/toluene/DpAn-BzAc/DpAn-BzAc.xyz --gfn 2 --gbsa toluene --ohess vtight --parallel 40 --molden --ceasefiles --namespace data2507/toluene/DpAn-BzAc/DpAn-BzAc_toluene_S0_preOpt
      * Solvation model:               GBSA
        Solvent                        toluene
        Solvent mass                       9.2140E+01 g/mol
          :  Hamiltonian                  GFN2-xTB          :
 * total energy  :  -128.6073348 Eh     change       -0.1976730E-08 Eh
 * total energy  :  -128.6263010 Eh     change       -0.1896617E-01 Eh
 * total energy  :  -128.6337700 Eh     change       -0.7469009E-02 Eh
 * total energy  :  -128.6359781 Eh     change       -0.2208044E-02 Eh
 * total energy  :  -128.6370162 Eh     change       -0.1038164E-02 Eh
 * total energy  :  -128.6374292 Eh     change       -0.4130224E-03 Eh
 * total energy  :  -128.6375837 Eh     change       -0.1544492E-03 Eh
 * total energy  :  -128.6376525 Eh     change       -0.6877654E-04 Eh
 * total energy  :  -128.6376964 Eh     change       -0.4388177E-04 Eh
 * total energy  :  -128.6377195 Eh     change       -0.2317128E-04 Eh
 * total energy  :  -128.6382371 Eh     change       -0.2376221E-05 Eh
 * total energy  :  -128.6382397 Eh     change       -0.2600348E-05 Eh
 * total energy  :  -128.6382425 Eh     change       -0.2765534E-05 Eh
 * total energy  :  -128.6382453 Eh     change       -0.2804098E-05 Eh
 * total energy  :  -128.6382478 Eh     change       -0.2557556E-05 Eh
 * total energy  :  -128.6382500 Eh     change       -0.2181912E-05 Eh
 * total energy  :  -128.6382518 Eh     change       -0.1802515E-05 Eh
 * total energy  :  -128.6382534 Eh     change       -0.1548870E-05 Eh
 * total energy  :  -128.6382534 Eh     change       -0.7153631E-08 Eh
   *** GEOMETRY OPTIMIZATION CONVERGED AFTER 122 ITERATIONS ***

 final structure:
================
83
 xtb: 6.7.1 (edcfbbe)
C            6.39193654515322        0.90437491142258       -1.19638528084866
C            5.46545839455078        0.90668197595762        0.03486392914031
C            6.29801528399195        0.98912590020196        1.32843225056712
C            4.56609733917772        2.12709771945505       -0.03788546570932
C            5.13579404343076        3.39336324155724       -0.05902799171003
C            4.37043803042946        4.54412509214377       -0.10671563869369
C            2.99141138243207        4.43774714675213       -0.12554795269062
C            2.39908069159826        3.19232413716830       -0.10610710830627
C            3.17158774647703        2.02767014008311       -0.07343116269764
N            2.54613231064316        0.78913035922130       -0.06259970893544
C            1.12543698672083        0.72926202148265       -0.03401588642016
C            0.38885391362612        0.91827169624816       -1.19353281468963
C           -0.99333096666547        0.86763721033288       -1.15744144754254
C           -1.66633118289799        0.62508865615642        0.03311064089413
C           -3.19417169489641        0.52540380923087        0.09358886771025
C           -3.80224129178490        1.41199278730385        1.17367542814627
C           -3.11809658467035        2.46991335023887        1.75680991357179
C           -3.73796151151117        3.27242759640070        2.70111107887612
C           -5.05152240173706        3.03638447833061        3.06590457334220
C           -5.74869599353942        1.99693953442902        2.47174677679959
C           -5.13015638353620        1.19545909364066        1.53030241780839
C           -3.79388454523677        0.94525417295707       -1.23326736911356
C           -4.06988548406875        2.28360899458000       -1.49005904852785
C           -4.58448457245857        2.68393457504415       -2.71033470717689
C           -4.81980781290376        1.75389848384704       -3.71255639947691
C           -4.52916965288109        0.42592254390617       -3.48220248506588
C           -4.01937509031139        0.01267718749437       -2.25005112628998
C           -3.72907595165854       -1.41807128819100       -2.05322357471283
O           -3.62040540695918       -2.19849912261404       -2.99067268975120
C           -3.64895656454484       -1.85388763037206       -0.64937189721603
C           -3.81222910077904       -3.21232092260807       -0.36912779416359
C           -3.81697397155756       -3.66650857103102        0.93233308092089
C           -3.66101652639626       -2.75637759326937        1.96754064176006
C           -3.48683728504138       -1.41109244898573        1.69737327115856
C           -3.47431932254858       -0.93656257306485        0.39013010075713
C           -0.91621988455621        0.42666806964849        1.18876418457655
C            0.46273764471429        0.48829990875999        1.16236029745738
C            3.27284764559244       -0.38726230952856       -0.02241642533469
C            4.67087178993237       -0.38792297214802        0.04309807373635
C            5.36671672080699       -1.59720228140868        0.10067073202313
C            4.74372963647003       -2.82542890907420        0.08583943720606
C            3.35843696482091       -2.84299870234851       -0.00764035668140
C            2.64226232466834       -1.63770353667856       -0.06544665826423
O            1.29178766427788       -1.87063638903741       -0.17381876616223
C            1.13435305792288       -3.22182618396367       -0.18179797909278
C           -0.06255746556662       -3.91016330890897       -0.27449468541164
C            0.00186135649462       -5.29231137161449       -0.26066365651279
C            1.21774787867427       -5.96453962069014       -0.15874709530328
C            2.41117060766288       -5.27502220487861       -0.06819781258875
C            2.37076910615731       -3.88673174730840       -0.07929364963852
H            7.06945762758060        0.05581152122714       -1.17264811117031
H            5.79771635170833        0.84359916296350       -2.10672903288389
H            6.98607019097516        1.81289237502765       -1.23469324777723
H            6.88725962314034        1.90137675632298        1.35087834079333
H            6.97588598367811        0.14437140424496        1.40948302225715
H            5.63848918806971        0.98494404433613        2.19452671938664
H            6.21039694665694        3.49203212112070       -0.03583582803673
H            4.84772522113898        5.51236508792918       -0.12380357383067
H            2.37302840588378        5.32294951663729       -0.15408595949066
H            1.32294276804504        3.11647917057921       -0.11678128718140
H            0.89994313765493        1.10505970484115       -2.12687085671913
H           -1.53944133913292        1.01799331671787       -2.07587057920386
H           -2.09678189640405        2.67679368210484        1.47398101907567
H           -3.18896124212764        4.08836156481867        3.14842726179363
H           -5.53289896093035        3.66267174696093        3.80242757417236
H           -6.77850169223352        1.81134448396465        2.73975211661432
H           -5.68101452579293        0.39037393397913        1.06466613766720
H           -3.88155811751895        3.02209850877841       -0.72582279807601
H           -4.80001748181542        3.72822600991008       -2.88109347478753
H           -5.21993549028479        2.06621959546719       -4.66528974721605
H           -4.68766671205951       -0.32524094658584       -4.24280449935909
H           -3.94223933206453       -3.88818537684737       -1.20256687038830
H           -3.94631384545811       -4.71719693014088        1.14291456471637
H           -3.67594121411773       -3.09680120854603        2.99223376511677
H           -3.38344539903356       -0.71933474716179        2.51942733383859
H           -1.41049204706981        0.22977311498281        2.12649833955822
H            1.03277209055284        0.33756482386767        2.06765900651821
H            6.44345291822992       -1.57420123144991        0.15914004644544
H            5.30808046466612       -3.74265959180780        0.13509564538480
H           -1.00069996837751       -3.38481901600515       -0.35708999192289
H           -0.91180857376605       -5.86232604420985       -0.33393788684823
H            1.22333277918578       -7.04447049511732       -0.15201327049817
H            3.35333772333297       -5.79568416511021        0.00924006027155

          :  Hamiltonian                  GFN2-xTB          :
         :: gradient norm              0.000072287361 Eh/a0 ::
         :: HOMO-LUMO gap              1.361155451912 eV    ::
         :: SCC energy              -130.932562986587 Eh    ::
         :: -> dispersion             -0.127771775319 Eh    ::
         :: -> Gsolv                  -0.051293323035 Eh    ::
         :: repulsion energy           2.294309620593 Eh    ::

    * Orbital Energies and Occupations

         #    Occupation            Energy/Eh            Energy/eV
      -------------------------------------------------------------
         1        2.0000           -0.7343696             -19.9832
       ...           ...                  ...                  ...
       107        2.0000           -0.4153802             -11.3031
       108        2.0000           -0.4140275             -11.2663
       109        2.0000           -0.4114601             -11.1964
       110        2.0000           -0.4098481             -11.1525
       111        2.0000           -0.4089761             -11.1288
       112        2.0000           -0.4068446             -11.0708
       113        2.0000           -0.4016900             -10.9305
       114        2.0000           -0.4000382             -10.8856
       115        2.0000           -0.3956769             -10.7669
       116        2.0000           -0.3911538             -10.6438
       117        2.0000           -0.3900035             -10.6125
       118        2.0000           -0.3828087             -10.4168
       119        2.0000           -0.3457999              -9.4097 (HOMO)
       120                         -0.2957784              -8.0485 (LUMO)
       121                         -0.2495282              -6.7900
       122                         -0.2447100              -6.6589
       123                         -0.2383645              -6.4862
       124                         -0.2354337              -6.4065
       125                         -0.2343090              -6.3759
       126                         -0.2292219              -6.2374
       127                         -0.2285506              -6.2192
       128                         -0.2272791              -6.1846
       129                         -0.2258245              -6.1450
       130                         -0.2187419              -5.9523
       ...                                ...                  ...
       233                          0.7417604              20.1843
      -------------------------------------------------------------
                  HL-Gap            0.0500215 Eh            1.3612 eV

     #   Z          covCN         q      C6AA      α(0)
     1   6 C        3.761    -0.106    22.565     6.772
     2   6 C        3.909     0.022    20.142     6.379
     3   6 C        3.761    -0.106    22.566     6.772
     4   6 C        2.979    -0.014    28.355     8.735
     5   6 C        2.928    -0.037    28.932     8.821
     6   6 C        2.917    -0.046    29.143     8.853
     7   6 C        2.919    -0.035    28.860     8.810
     8   6 C        2.924    -0.059    29.470     8.902
     9   6 C        2.928     0.059    26.681     8.471
    10   7 N        2.752    -0.071    22.623     7.064
    11   6 C        2.927     0.074    26.355     8.419
    12   6 C        2.921    -0.036    28.893     8.815
    13   6 C        2.923    -0.035    28.871     8.811
    14   6 C        2.983     0.017    27.634     8.623
    15   6 C        3.920     0.009    20.364     6.414
    16   6 C        2.979     0.014    27.693     8.632
    17   6 C        2.922    -0.035    28.883     8.813
    18   6 C        2.920    -0.030    28.743     8.792
    19   6 C        2.919    -0.031    28.771     8.796
    20   6 C        2.919    -0.029    28.726     8.789
    21   6 C        2.925    -0.033    28.818     8.803
    22   6 C        2.982     0.018    27.601     8.618
    23   6 C        2.922    -0.033    28.825     8.804
    24   6 C        2.920    -0.022    28.544     8.761
    25   6 C        2.916    -0.029    28.723     8.789
    26   6 C        2.925    -0.019    28.480     8.752
    27   6 C        2.979    -0.022    28.554     8.765
    28   6 C        2.833     0.226    23.247     7.901
    29   8 O        0.858    -0.436    22.415     6.348
    30   6 C        2.979    -0.024    28.597     8.772
    31   6 C        2.925    -0.018    28.467     8.750
    32   6 C        2.916    -0.029    28.718     8.788
    33   6 C        2.920    -0.022    28.545     8.761
    34   6 C        2.922    -0.032    28.792     8.799
    35   6 C        2.987     0.019    27.585     8.615
    36   6 C        2.925    -0.032    28.806     8.802
    37   6 C        2.921    -0.035    28.867     8.811
    38   6 C        2.918     0.042    27.067     8.531
    39   6 C        2.982    -0.020    28.491     8.756
    40   6 C        2.928    -0.047    29.164     8.856
    41   6 C        2.910    -0.053    29.305     8.877
    42   6 C        3.058    -0.026    28.594     8.769
    43   6 C        3.082     0.102    25.656     8.304
    44   8 O        1.714    -0.251    18.160     5.754
    45   6 C        3.087     0.127    25.135     8.218
    46   6 C        2.908    -0.054    29.328     8.880
    47   6 C        2.927    -0.033    28.828     8.805
    48   6 C        2.921    -0.040    28.995     8.830
    49   6 C        2.913    -0.036    28.885     8.813
    50   6 C        3.054    -0.022    28.492     8.754
    51   1 H        0.925     0.044     2.402     2.423
    52   1 H        0.925     0.030     2.586     2.515
    53   1 H        0.925     0.045     2.388     2.417
    54   1 H        0.925     0.045     2.389     2.417
    55   1 H        0.925     0.044     2.399     2.422
    56   1 H        0.925     0.031     2.570     2.507
    57   1 H        0.926     0.034     2.524     2.484
    58   1 H        0.926     0.028     2.621     2.532
    59   1 H        0.926     0.029     2.605     2.524
    60   1 H        0.926     0.025     2.657     2.549
    61   1 H        0.926     0.041     2.442     2.444
    62   1 H        0.926     0.036     2.504     2.475
    63   1 H        0.926     0.035     2.514     2.479
    64   1 H        0.926     0.036     2.505     2.475
    65   1 H        0.926     0.035     2.511     2.478
    66   1 H        0.926     0.035     2.518     2.481
    67   1 H        0.926     0.028     2.621     2.531
    68   1 H        0.926     0.047     2.362     2.403
    69   1 H        0.926     0.049     2.335     2.390
    70   1 H        0.926     0.046     2.374     2.409
    71   1 H        0.926     0.048     2.349     2.397
    72   1 H        0.926     0.048     2.351     2.398
    73   1 H        0.926     0.046     2.374     2.409
    74   1 H        0.926     0.049     2.335     2.389
    75   1 H        0.926     0.047     2.363     2.404
    76   1 H        0.926     0.051     2.313     2.378
    77   1 H        0.926     0.042     2.425     2.435
    78   1 H        0.926     0.043     2.412     2.428
    79   1 H        0.926     0.037     2.493     2.469
    80   1 H        0.926     0.035     2.514     2.479
    81   1 H        0.926     0.042     2.428     2.437
    82   1 H        0.926     0.041     2.438     2.442
    83   1 H        0.926     0.042     2.428     2.437

molecular dipole:
                 x           y           z       tot (Debye)
 q only:       -0.029       1.203       1.647
   full:       -0.197       1.182       1.590       5.062

 projected vibrational frequencies (cm⁻¹)
eigval :       -0.00    -0.00    -0.00     0.00     0.00     0.00
eigval :        8.92    17.67    22.82    24.33    33.64    39.29
eigval :       44.84    49.54    55.73    63.72    66.90    79.50
eigval :       86.88   106.93   112.25   118.49   126.82   131.14
eigval :      136.32   151.11   170.89   188.88   191.55   210.69
eigval :      228.49   230.14   241.49   244.33   250.98   257.47
eigval :      266.26   280.76   292.06   306.76   308.44   311.83
eigval :      316.62   339.76   351.26   369.22   373.54   381.03
eigval :      389.19   391.51   394.60   402.05   406.61   408.36
eigval :      435.33   437.35   472.56   473.99   475.99   483.49
eigval :      500.74   513.40   516.59   526.84   530.03   540.38
eigval :      552.39   555.99   568.16   588.51   591.02   598.36
eigval :      601.86   609.85   619.62   623.71   625.43   631.69
eigval :      653.69   661.95   678.15   680.91   688.59   689.50
eigval :      693.09   705.83   710.64   711.23   740.03   746.83
eigval :      759.18   776.49   776.85   778.76   789.10   798.32
eigval :      801.50   819.02   820.41   850.14   865.56   866.35
eigval :      871.25   882.68   884.80   892.11   894.97   895.64
eigval :      901.91   904.94   907.26   910.22   911.64   913.31
eigval :      915.27   920.24   922.41   923.61   924.40   929.66
eigval :      932.64   932.83   935.44   936.93   938.69   945.93
eigval :      952.39   956.74   984.80   993.75  1013.28  1022.33
eigval :     1063.51  1079.76  1087.39  1094.84  1096.30  1097.28
eigval :     1102.55  1110.58  1114.21  1125.70  1128.66  1143.55
eigval :     1151.44  1157.84  1167.15  1172.36  1173.22  1177.72
eigval :     1180.33  1181.39  1181.67  1184.11  1187.00  1194.66
eigval :     1202.20  1209.29  1213.78  1218.02  1222.88  1232.91
eigval :     1242.63  1249.80  1253.59  1254.82  1259.19  1272.56
eigval :     1275.50  1286.60  1288.57  1293.67  1310.55  1317.60
eigval :     1321.70  1323.99  1327.99  1330.26  1343.14  1347.44
eigval :     1360.29  1397.16  1399.84  1401.56  1418.62  1422.32
eigval :     1424.17  1426.24  1431.76  1437.45  1454.95  1464.52
eigval :     1469.97  1472.78  1480.09  1484.67  1486.19  1486.43
eigval :     1496.19  1500.72  1501.19  1565.59  1568.46  1569.80
eigval :     1577.69  1579.65  1585.26  1586.84  1587.08  1587.90
eigval :     1594.51  1594.84  1598.03  1599.70  1611.94  1648.64
eigval :     3022.29  3025.15  3041.98  3043.86  3050.32  3054.28
eigval :     3069.60  3073.08  3073.32  3079.00  3079.03  3079.50
eigval :     3079.93  3080.18  3080.26  3081.94  3082.45  3082.62
eigval :     3087.94  3088.40  3091.38  3091.81  3092.39  3093.09
eigval :     3094.38  3095.59  3098.47  3099.29  3100.46  3101.17
eigval :     3104.71  3106.79  3110.48

   temp. (K)  partition function   enthalpy   heat capacity  entropy
                                   cal/mol     cal/K/mol   cal/K/mol   J/K/mol
 298.15  VIB  0.230E+18            23295.538    149.652    143.281
         ROT  0.678E+08              888.752      2.981     38.814
         INT  0.156E+26            24184.291    152.633    182.095
         TR   0.158E+29             1481.254      4.968     45.248
         TOT                       25665.5448   157.6010   227.3432   951.2038

       T/K    H(0)-H(T)+PV         H(T)/Eh          T*S/Eh         G(T)/Eh
   ------------------------------------------------------------------------
    298.15    0.409006E-01    0.685233E+00    0.108018E+00    0.577215E+00
   ------------------------------------------------------------------------

         :::::::::::::::::::::::::::::::::::::::::::::::::::::
         ::                  THERMODYNAMIC                  ::
         :::::::::::::::::::::::::::::::::::::::::::::::::::::
         :: total free energy        -128.061038373050 Eh   ::
         ::.................................................::
         :: total energy             -128.638253366486 Eh   ::
         :: zero point energy           0.644332414216 Eh   ::
         :: G(RRHO) w/o ZPVE           -0.067117420780 Eh   ::
         :: G(RRHO) contrib.            0.577214993436 Eh   ::
         :::::::::::::::::::::::::::::::::::::::::::::::::::::

           -------------------------------------------------
          | TOTAL ENERGY             -128.638253366486 Eh   |
          | TOTAL ENTHALPY           -127.953020303255 Eh   |
          | TOTAL FREE ENERGY        -128.061038373050 Eh   |
          | GRADIENT NORM               0.000072282079 Eh/α |
          | HOMO-LUMO GAP               1.361155352293 eV   |
           -------------------------------------------------

 * finished run on 2025/09/04 at 17:30:37.617
