   * xtb version 6.7.1 (edcfbbe) compiled by 'albert@albert-system' on 2024-07-22

   ID    Z sym.   atoms
    1    6 C      1-4, 6-43, 45-82
    2    7 N      5, 44
    3    1 H      83-134

          program call               : xtb data2507/toluene/TPA–DAP–TPA/TPA–DAP–TPA_toluene_S0_finalOpt.xtbopt.xyz --gfn 2 --uhf 2 --gbsa toluene --ohess vtight --parallel 40 --molden --ceasefiles --namespace data2507/toluene/TPA–DAP–TPA/TPA–DAP–TPA_toluene_T1_preOpt
      * Solvation model:               GBSA
        Solvent                        toluene
        Solvent mass                       9.2140E+01 g/mol
          :  Hamiltonian                  GFN2-xTB          :
 * total energy  :  -203.7489799 Eh     change       -0.6969961E-07 Eh
 * total energy  :  -203.7513433 Eh     change       -0.2363399E-02 Eh
 * total energy  :  -203.7521487 Eh     change       -0.8053223E-03 Eh
 * total energy  :  -203.7523539 Eh     change       -0.2052175E-03 Eh
 * total energy  :  -203.7527436 Eh     change       -0.3897082E-03 Eh
 * total energy  :  -203.7530022 Eh     change       -0.2586548E-03 Eh
 * total energy  :  -203.7532052 Eh     change       -0.2029288E-03 Eh
 * total energy  :  -203.7533453 Eh     change       -0.1401568E-03 Eh
 * total energy  :  -203.7534487 Eh     change       -0.1034164E-03 Eh
 * total energy  :  -203.7535674 Eh     change       -0.1186726E-03 Eh
 * total energy  :  -203.7563811 Eh     change       -0.1400537E-05 Eh
 * total energy  :  -203.7563824 Eh     change       -0.1300298E-05 Eh
 * total energy  :  -203.7563836 Eh     change       -0.1164876E-05 Eh
 * total energy  :  -203.7563846 Eh     change       -0.1016585E-05 Eh
 * total energy  :  -203.7563855 Eh     change       -0.9066089E-06 Eh
 * total energy  :  -203.7563866 Eh     change       -0.1119991E-05 Eh
 * total energy  :  -203.7563882 Eh     change       -0.1553721E-05 Eh
 * total energy  :  -203.7563882 Eh     change        0.2449042E-08 Eh
 * total energy  :  -203.7563882 Eh     change       -0.9845564E-09 Eh
   *** GEOMETRY OPTIMIZATION CONVERGED AFTER 222 ITERATIONS ***

 final structure:
================
134
 xtb: 6.7.1 (edcfbbe)
C          -14.33248415118927        3.45291728151894       -2.05290686554682
C          -14.85078590150099        2.20211671014709       -2.34851396663494
C          -14.30705438073406        1.06642955446261       -1.77987331125854
C          -13.23394973957287        1.16854663268819       -0.89399903509372
N          -12.68133325725783        0.02258019792657       -0.30999727692763
C          -13.50581178229075       -1.04332177744530        0.06835456307156
C          -14.77371128787362       -0.80587856663292        0.60009581190018
C          -15.58368545614529       -1.86317376696231        0.96729957440966
C          -15.14396004416893       -3.16924426869379        0.82113818017588
C          -13.88370404574371       -3.41069024716627        0.29790135489492
C          -13.07003568317941       -2.36051348197376       -0.08090017835709
C          -11.29994140264141       -0.05789667638124       -0.10527570208295
C          -10.78540385656966       -0.66072905099642        1.04372355831474
C           -9.42252226864373       -0.74468053325747        1.23797561767328
C           -8.53054228485530       -0.22152010348289        0.30291844622101
C           -7.07481230976315       -0.30875221970106        0.51905558892618
C           -6.44477442223393       -1.56570970071426        0.55031789778507
C           -7.16461680521692       -2.76644993110832        0.32448358034490
C           -6.54331340063512       -3.98073125335328        0.33101961664696
C           -5.15592609257432       -4.06366622691989        0.53954070920288
C           -4.42408225590992       -2.92951164903256        0.73873692342810
C           -5.03472072664615       -1.65099712631542        0.76682602758076
C           -4.27656200488009       -0.47727639086655        0.94174034496867
C           -2.83266384675578       -0.57294616690778        1.19778086790073
C           -2.39440864636474       -1.15406281926911        2.38831062934874
C           -1.05912764697292       -1.20689077330573        2.71281183746789
C           -0.08535608563969       -0.70196348063600        1.83309229750352
C            1.29230978100296       -0.70837804595554        2.14902963695847
C            2.22318506002026       -0.24483296878640        1.26625164515571
C            1.85201976254540        0.24422299803585       -0.00793124256401
C            2.81609984110641        0.73623842449689       -0.93608049002247
C            4.24225379061994        0.59147084532102       -0.73441898555620
C            5.08177078707479        1.74335495886639       -0.78715116230621
C            4.54514274898795        3.03979910754268       -0.86571199341960
C            5.35461664482160        4.15148646612717       -0.97999463156985
C            6.73603908894562        4.00021719825385       -1.02271197772764
C            7.29528894231954        2.74932220064023       -0.87309583063886
C            6.49838930505357        1.60278422359152       -0.69204075828140
C            7.06965493058141        0.32569375529984       -0.44955926280427
C            8.51753983458085        0.19096457673803       -0.30388769224660
C            9.25010282858351       -0.67784614567050       -1.12073676225972
C           10.61585290144871       -0.79546172644195       -0.99480123601467
C           11.30673140814194       -0.06212907565066       -0.02521161741035
N           12.68773063505400       -0.18667433934277        0.11295404922161
C           13.46159097064618        0.92412613168419        0.47398288694464
C           13.16195852564334        2.18935218503574       -0.03208707896890
C           13.92799676829085        3.28125181310276        0.32789101151812
C           15.00434267702085        3.13066381710363        1.18780657844188
C           15.30873659779851        1.87514267596161        1.68969953260905
C           14.54460673262682        0.77808909867709        1.34128108205499
C           13.30970047613303       -1.42221517104186       -0.10849705778954
C           14.55301130873004       -1.48312817273794       -0.73854652909155
C           15.16615020684571       -2.70304625085740       -0.94955630614610
C           14.55081945691457       -3.87729802191557       -0.54533027670538
C           13.31440233244155       -3.82221370959686        0.07832211802182
C           12.69655921012746       -2.60675132534410        0.30097489471737
C           10.58114638109751        0.80009075627068        0.80261494610167
C            9.21873774501109        0.92992179850476        0.65583233554730
C            6.23601256003302       -0.82072056272143       -0.35885214864110
C            6.75939457380906       -2.09402231145086       -0.06210648150010
C            5.96668538081219       -3.22056556253010       -0.07469353709994
C            4.61722052717881       -3.11413572655658       -0.39527459142619
C            4.06198415325095       -1.87344628690098       -0.62486167614976
C            4.82778082854472       -0.69781966630159       -0.55115244088674
C            2.35803308424162        1.37097521386060       -2.10371101893068
C            1.02714698658177        1.43206406010712       -2.41762294282737
C            0.05059674650268        0.90520285656572       -1.54694581217111
C           -1.32508529309727        0.92940264077399       -1.85773986466658
C           -2.25736278257792        0.44308594858443       -0.98755316915288
C           -1.87983414343034       -0.08177419409821        0.27255844811138
C           -0.49889342225703       -0.15331167507591        0.59351996404662
C            0.47123518137559        0.33029682445565       -0.32102712091954
C           -4.91019279555636        0.78106138976116        0.91387127113867
C           -4.19223552632464        1.97877055356983        1.15526537180511
C           -4.81356042798606        3.19299220394698        1.15645427285091
C           -6.19940492117363        3.27718149560993        0.93744491011233
C           -6.93009612720117        2.14503081362410        0.72668303061148
C           -6.32050065269820        0.86494436356335        0.69959303393411
C           -9.04928924316991        0.38632090813052       -0.83943796244178
C          -10.41079426364358        0.46321862480916       -1.04656886191603
C          -12.71760264593156        2.43067592594942       -0.59818853351203
C          -13.26277102390846        3.55962137999414       -1.17846989215135
H          -14.75845533614398        4.33796502221927       -2.50109402632651
H          -15.67969240647726        2.10845778224619       -3.03498579155601
H          -14.70663917867658        0.09202292517200       -2.02053676575071
H          -15.11530008374570        0.21131564317055        0.72565633255611
H          -16.56252251915087       -1.66494261834767        1.37933217727593
H          -15.77862336188711       -3.99248327617719        1.11280947362869
H          -13.53404965451270       -4.42551326473875        0.17484421090213
H          -12.09273364543245       -2.55230413766859       -0.49959213848964
H          -11.46342508400788       -1.05733798514586        1.78535828402488
H           -9.03691011470063       -1.20276718296287        2.13756459306623
H           -8.22565538661585       -2.70463877891161        0.13459577624275
H           -7.11071181459023       -4.88411145457399        0.15897122491820
H           -4.67100487485420       -5.02918262980345        0.52434856412372
H           -3.35385148796776       -2.99308738067785        0.86838551180992
H           -3.13294444432154       -1.53368323232647        3.08132224931330
H           -0.74442760586401       -1.62749248908698        3.65724014911998
H            1.59911504742232       -1.08938163683676        3.11309748387723
H            3.26947971158945       -0.25071796831928        1.53470305986075
H            3.47379978949184        3.16838665474452       -0.83238142341684
H            4.91253588191525        5.13489856403315       -1.04680681143075
H            7.37241968050973        4.86317290997246       -1.15584342672063
H            8.36902964917829        2.64337577933294       -0.89878224980215
H            8.73633621659713       -1.23299594977125       -1.89215363598517
H           11.16516531600088       -1.44825125592679       -1.65750324441952
H           12.33132032337687        2.30652722139237       -0.71269868387841
H           13.68779743486895        4.25509940373860       -0.07315242298733
H           15.60218231872228        3.98589174888303        1.46460190167506
H           16.14247828564104        1.74990690905280        2.36491005154299
H           14.77736679979111       -0.19805418268260        1.74119371682261
H           15.02932509872115       -0.56955831691894       -1.06343575916626
H           16.12758395281282       -2.73743274994570       -1.44079515308502
H           15.03185796131368       -4.82887656011991       -0.71440801730378
H           12.83064245356464       -4.73218476834005        0.40216992222802
H           11.73905941651029       -2.56469115782317        0.79938001259214
H           11.09722233052797        1.35725058273376        1.57087012732109
H            8.67125857694304        1.58295595337489        1.31995454534381
H            7.80651376072238       -2.18609776202566        0.18275331703582
H            6.39601471651708       -4.18561549140619        0.15243627287221
H            3.99949152965341       -3.99859712247148       -0.45091464427957
H            3.01078229382934       -1.80182446832463       -0.85918836871612
H            3.09150157911994        1.74828057347239       -2.80304686636296
H            0.70869667484781        1.86822793011401       -3.35393786621194
H           -1.63216223211799        1.34393498275774       -2.80800251139906
H           -3.30528002261523        0.46036428966786       -1.24907023650929
H           -3.13138316366714        1.91633898537916        1.34666930744392
H           -4.24644512567227        4.09413005338731        1.34016668128742
H           -6.68323822248966        4.24330093276616        0.95260412148227
H           -7.99868758074364        2.21079323659162        0.58733671217018
H           -8.37129757738252        0.78288553090203       -1.58166633367336
H          -10.79687179148592        0.92312680845087       -1.94465575529326
H          -11.89130114461030        2.51826347556916        0.09224777102324
H          -12.85482040200670        4.53077716132087       -0.93844672917883

          :  Hamiltonian                  GFN2-xTB          :
         :: gradient norm              0.000083672227 Eh/a0 ::
         :: HOMO-LUMO gap              0.220195137179 eV    ::
         :: SCC energy              -207.687234371111 Eh    ::
         :: -> dispersion             -0.205883679195 Eh    ::
         :: -> Gsolv                  -0.080626265551 Eh    ::
         :: repulsion energy           3.930846172970 Eh    ::

    * Orbital Energies and Occupations

         #    Occupation            Energy/Eh            Energy/eV
      -------------------------------------------------------------
         1        2.0000           -0.6707924             -18.2532
       ...           ...                  ...                  ...
       180        2.0000           -0.4002002             -10.8900
       181        2.0000           -0.3994260             -10.8689
       182        2.0000           -0.3971246             -10.8063
       183        2.0000           -0.3965263             -10.7900
       184        2.0000           -0.3961817             -10.7807
       185        2.0000           -0.3938579             -10.7174
       186        2.0000           -0.3866266             -10.5206
       187        2.0000           -0.3625006              -9.8641
       188        2.0000           -0.3577419              -9.7347
       189        1.9999           -0.3542498              -9.6396
       190        1.9448           -0.3483528              -9.4792
       191        1.0554           -0.3429599              -9.3324
       192        0.9861           -0.2862672              -7.7897 (HOMO)
       193        0.0139           -0.2781758              -7.5695 (LUMO)
       194        0.0000           -0.2675374              -7.2801
       195                         -0.2355990              -6.4110
       196                         -0.2348568              -6.3908
       197                         -0.2347634              -6.3882
       198                         -0.2323693              -6.3231
       199                         -0.2319834              -6.3126
       200                         -0.2309754              -6.2852
       201                         -0.2290219              -6.2320
       202                         -0.2275170              -6.1911
       203                         -0.2257273              -6.1424
       ...                                ...                  ...
       380                          0.7250518              19.7297
      -------------------------------------------------------------
                  HL-Gap            0.0080914 Eh            0.2202 eV

     #   Z          covCN         q      C6AA      α(0)
     1   6 C        2.919    -0.038    28.949     8.823
     2   6 C        2.919    -0.030    28.740     8.791
     3   6 C        2.922    -0.047    29.172     8.857
     4   6 C        2.923     0.065    26.535     8.447
     5   7 N        2.752    -0.073    22.666     7.071
     6   6 C        2.923     0.065    26.535     8.447
     7   6 C        2.922    -0.047    29.175     8.858
     8   6 C        2.919    -0.030    28.741     8.791
     9   6 C        2.919    -0.038    28.951     8.823
    10   6 C        2.919    -0.030    28.740     8.791
    11   6 C        2.922    -0.047    29.169     8.857
    12   6 C        2.924     0.064    26.574     8.454
    13   6 C        2.920    -0.048    29.186     8.859
    14   6 C        2.923    -0.032    28.801     8.801
    15   6 C        2.975     0.009    27.815     8.651
    16   6 C        2.975    -0.009    28.243     8.717
    17   6 C        2.982     0.005    27.909     8.666
    18   6 C        2.918    -0.037    28.929     8.820
    19   6 C        2.914    -0.032    28.801     8.800
    20   6 C        2.914    -0.033    28.816     8.802
    21   6 C        2.918    -0.036    28.888     8.814
    22   6 C        2.982     0.004    27.916     8.667
    23   6 C        2.976    -0.005    28.141     8.702
    24   6 C        2.975     0.002    27.970     8.675
    25   6 C        2.917    -0.034    28.852     8.808
    26   6 C        2.916    -0.044    29.083     8.843
    27   6 C        2.981     0.006    27.881     8.661
    28   6 C        2.915    -0.041    29.025     8.834
    29   6 C        2.914    -0.036    28.904     8.816
    30   6 C        2.980     0.004    27.927     8.668
    31   6 C        2.972     0.003    27.964     8.674
    32   6 C        2.973    -0.008    28.205     8.711
    33   6 C        2.979     0.005    27.910     8.666
    34   6 C        2.920    -0.038    28.942     8.822
    35   6 C        2.915    -0.035    28.860     8.809
    36   6 C        2.914    -0.033    28.822     8.803
    37   6 C        2.920    -0.041    29.008     8.832
    38   6 C        2.979     0.006    27.880     8.661
    39   6 C        2.973    -0.014    28.354     8.734
    40   6 C        2.973     0.010    27.780     8.646
    41   6 C        2.923    -0.032    28.789     8.799
    42   6 C        2.919    -0.048    29.184     8.859
    43   6 C        2.923     0.063    26.582     8.455
    44   7 N        2.752    -0.064    22.475     7.041
    45   6 C        2.925     0.065    26.551     8.450
    46   6 C        2.922    -0.045    29.122     8.850
    47   6 C        2.919    -0.029    28.719     8.788
    48   6 C        2.919    -0.036    28.900     8.816
    49   6 C        2.919    -0.029    28.717     8.788
    50   6 C        2.922    -0.046    29.131     8.851
    51   6 C        2.924     0.065    26.551     8.450
    52   6 C        2.922    -0.046    29.133     8.851
    53   6 C        2.919    -0.029    28.717     8.788
    54   6 C        2.919    -0.036    28.901     8.816
    55   6 C        2.919    -0.029    28.719     8.788
    56   6 C        2.922    -0.045    29.124     8.850
    57   6 C        2.919    -0.048    29.184     8.859
    58   6 C        2.923    -0.032    28.788     8.799
    59   6 C        2.979     0.006    27.893     8.663
    60   6 C        2.920    -0.040    29.003     8.831
    61   6 C        2.914    -0.033    28.829     8.805
    62   6 C        2.915    -0.034    28.840     8.806
    63   6 C        2.920    -0.036    28.904     8.816
    64   6 C        2.978     0.006    27.879     8.661
    65   6 C        2.917    -0.034    28.843     8.807
    66   6 C        2.915    -0.044    29.080     8.843
    67   6 C        2.981     0.006    27.889     8.663
    68   6 C        2.914    -0.041    29.007     8.832
    69   6 C        2.914    -0.038    28.940     8.822
    70   6 C        2.981     0.005    27.915     8.667
    71   6 C        2.995    -0.001    28.037     8.686
    72   6 C        2.993    -0.000    28.027     8.684
    73   6 C        2.982     0.006    27.891     8.663
    74   6 C        2.918    -0.034    28.858     8.809
    75   6 C        2.914    -0.032    28.807     8.801
    76   6 C        2.914    -0.032    28.802     8.800
    77   6 C        2.918    -0.037    28.929     8.820
    78   6 C        2.982     0.004    27.917     8.667
    79   6 C        2.923    -0.032    28.801     8.801
    80   6 C        2.920    -0.048    29.187     8.859
    81   6 C        2.922    -0.047    29.167     8.856
    82   6 C        2.919    -0.030    28.740     8.791
    83   1 H        0.926     0.033     2.543     2.494
    84   1 H        0.926     0.035     2.522     2.483
    85   1 H        0.926     0.033     2.544     2.494
    86   1 H        0.926     0.033     2.545     2.495
    87   1 H        0.926     0.035     2.523     2.484
    88   1 H        0.926     0.033     2.543     2.494
    89   1 H        0.926     0.034     2.525     2.485
    90   1 H        0.926     0.032     2.558     2.501
    91   1 H        0.926     0.034     2.529     2.487
    92   1 H        0.926     0.035     2.520     2.482
    93   1 H        0.926     0.031     2.576     2.510
    94   1 H        0.926     0.028     2.611     2.527
    95   1 H        0.926     0.028     2.622     2.532
    96   1 H        0.926     0.030     2.591     2.517
    97   1 H        0.925     0.027     2.636     2.539
    98   1 H        0.926     0.028     2.619     2.531
    99   1 H        0.926     0.027     2.635     2.538
   100   1 H        0.926     0.027     2.636     2.539
   101   1 H        0.926     0.030     2.587     2.515
   102   1 H        0.926     0.026     2.641     2.541
   103   1 H        0.926     0.027     2.627     2.534
   104   1 H        0.926     0.031     2.573     2.509
   105   1 H        0.926     0.037     2.485     2.465
   106   1 H        0.926     0.036     2.505     2.475
   107   1 H        0.926     0.035     2.517     2.481
   108   1 H        0.926     0.037     2.493     2.469
   109   1 H        0.926     0.035     2.510     2.478
   110   1 H        0.926     0.037     2.491     2.468
   111   1 H        0.926     0.035     2.514     2.479
   112   1 H        0.926     0.035     2.514     2.480
   113   1 H        0.926     0.037     2.491     2.468
   114   1 H        0.926     0.035     2.511     2.478
   115   1 H        0.926     0.037     2.494     2.469
   116   1 H        0.926     0.035     2.517     2.481
   117   1 H        0.926     0.036     2.505     2.475
   118   1 H        0.926     0.037     2.486     2.466
   119   1 H        0.926     0.031     2.566     2.505
   120   1 H        0.926     0.027     2.625     2.533
   121   1 H        0.926     0.026     2.650     2.546
   122   1 H        0.926     0.027     2.632     2.537
   123   1 H        0.925     0.028     2.608     2.525
   124   1 H        0.926     0.028     2.621     2.532
   125   1 H        0.925     0.026     2.640     2.541
   126   1 H        0.926     0.025     2.652     2.547
   127   1 H        0.926     0.028     2.620     2.531
   128   1 H        0.926     0.027     2.628     2.535
   129   1 H        0.926     0.028     2.610     2.526
   130   1 H        0.926     0.031     2.571     2.507
   131   1 H        0.926     0.035     2.522     2.483
   132   1 H        0.926     0.034     2.531     2.488
   133   1 H        0.926     0.032     2.557     2.501
   134   1 H        0.926     0.034     2.524     2.484

molecular dipole:
                 x           y           z       tot (Debye)
 q only:        1.206      -0.069      -0.011
   full:        1.189      -0.068      -0.018       3.028

 projected vibrational frequencies (cm⁻¹)
eigval :       -0.00    -0.00    -0.00    -0.00     0.00     0.00
eigval :        3.46     3.88     6.87     9.02    11.25    13.04
eigval :       17.86    19.38    28.07    29.71    34.71    37.46
eigval :       41.17    46.57    50.66    51.65    57.56    60.50
eigval :       69.04    70.25    71.46    74.37    78.50    79.33
eigval :       87.53    96.98   101.73   103.31   112.76   119.97
eigval :      133.55   139.85   146.00   154.23   164.61   175.95
eigval :      183.26   186.33   188.64   190.15   201.04   205.05
eigval :      211.75   225.26   231.33   232.93   236.90   240.54
eigval :      251.47   273.94   287.70   291.53   314.68   316.35
eigval :      318.97   320.33   335.90   346.55   353.91   357.13
eigval :      370.82   372.90   376.29   376.39   378.50   381.78
eigval :      383.63   387.33   388.64   390.11   391.76   397.57
eigval :      401.19   405.72   408.42   411.05   412.45   418.74
eigval :      425.44   437.14   439.89   454.01   460.07   463.10
eigval :      468.32   474.01   484.19   485.82   487.40   489.58
eigval :      494.30   500.51   506.01   508.04   517.25   527.78
eigval :      555.61   560.54   575.63   577.59   579.10   581.61
eigval :      583.34   584.60   587.39   588.26   591.63   592.07
eigval :      596.64   601.79   603.62   605.09   611.98   623.09
eigval :      628.77   637.72   642.63   646.65   650.19   652.48
eigval :      658.58   659.67   664.20   665.25   674.74   682.04
eigval :      682.55   687.21   689.33   692.07   695.03   698.21
eigval :      722.59   727.85   733.11   736.24   740.89   751.67
eigval :      756.25   756.41   756.54   760.14   761.98   765.49
eigval :      768.82   772.18   796.48   803.08   803.65   810.64
eigval :      816.75   816.85   835.78   837.25   853.83   857.92
eigval :      868.29   869.47   870.34   871.34   872.12   874.11
eigval :      875.00   878.12   889.56   890.35   892.60   894.52
eigval :      895.03   896.53   897.17   897.70   899.11   901.34
eigval :      907.34   907.92   908.99   909.23   909.82   911.14
eigval :      912.75   913.13   913.77   917.41   921.11   921.91
eigval :      923.60   923.96   925.77   926.39   926.89   927.01
eigval :      928.50   928.64   929.70   930.37   932.76   933.48
eigval :      934.04   934.53   940.87   941.52   943.80   985.25
eigval :      985.90   995.40  1003.18  1003.44  1017.58  1023.28
eigval :     1030.83  1077.82  1080.36  1081.37  1081.52  1082.79
eigval :     1085.57  1094.78  1101.02  1101.96  1111.50  1118.90
eigval :     1119.07  1121.33  1121.87  1123.68  1127.29  1133.38
eigval :     1137.44  1141.86  1147.22  1154.50  1163.46  1176.81
eigval :     1179.04  1179.54  1179.69  1180.66  1181.28  1181.72
eigval :     1182.18  1183.65  1184.73  1185.97  1191.11  1192.16
eigval :     1192.32  1194.12  1198.71  1201.42  1204.46  1206.14
eigval :     1215.30  1219.62  1224.12  1227.48  1229.27  1234.72
eigval :     1239.92  1243.65  1257.51  1258.13  1265.27  1268.95
eigval :     1271.20  1275.24  1277.03  1278.44  1280.11  1298.07
eigval :     1300.21  1303.98  1307.05  1309.78  1311.93  1312.95
eigval :     1313.18  1316.96  1320.26  1321.32  1323.10  1324.01
eigval :     1325.04  1330.20  1339.87  1342.79  1346.49  1349.26
eigval :     1357.84  1366.62  1377.24  1383.76  1386.33  1388.32
eigval :     1397.73  1403.86  1406.47  1408.80  1409.29  1417.22
eigval :     1417.54  1421.22  1431.56  1432.98  1434.02  1435.48
eigval :     1439.58  1441.34  1446.57  1465.64  1466.67  1467.62
eigval :     1468.19  1468.93  1470.53  1474.49  1483.51  1488.37
eigval :     1489.51  1497.08  1509.31  1516.17  1516.61  1518.33
eigval :     1524.66  1530.37  1536.95  1538.58  1549.34  1555.37
eigval :     1559.91  1569.45  1573.05  1574.28  1576.08  1578.17
eigval :     1578.52  1587.26  1587.52  1589.41  1593.40  1593.78
eigval :     1596.92  1609.50  3061.37  3061.63  3064.28  3065.76
eigval :     3066.68  3066.86  3068.67  3069.36  3071.66  3072.34
eigval :     3072.62  3072.93  3073.83  3073.87  3074.02  3074.52
eigval :     3074.59  3074.66  3074.91  3074.99  3075.06  3075.56
eigval :     3076.09  3077.01  3077.44  3078.17  3081.74  3082.44
eigval :     3083.38  3083.76  3083.92  3084.53  3084.71  3084.74
eigval :     3085.56  3086.00  3086.72  3087.00  3087.14  3087.66
eigval :     3088.07  3089.08  3090.30  3090.62  3091.55  3092.08
eigval :     3093.66  3094.02  3094.14  3095.40  3095.59  3096.09

   temp. (K)  partition function   enthalpy   heat capacity  entropy
                                   cal/mol     cal/K/mol   cal/K/mol   J/K/mol
 298.15  VIB  0.718E+33            38816.147    244.283    246.170
         ROT  0.555E+09              888.752      2.981     42.993
         INT  0.398E+42            39704.899    247.264    289.163
         TR   0.325E+29             1481.254      4.968     46.681
         TOT                       41186.1531   252.2318   335.8441  1405.1716

       T/K    H(0)-H(T)+PV         H(T)/Eh          T*S/Eh         G(T)/Eh
   ------------------------------------------------------------------------
    298.15    0.656343E-01    0.109882E+01    0.159570E+00    0.939250E+00
   ------------------------------------------------------------------------

         :::::::::::::::::::::::::::::::::::::::::::::::::::::
         ::                  THERMODYNAMIC                  ::
         :::::::::::::::::::::::::::::::::::::::::::::::::::::
         :: total free energy        -202.817138590168 Eh   ::
         ::.................................................::
         :: total energy             -203.756388202567 Eh   ::
         :: zero point energy           1.033185652974 Eh   ::
         :: G(RRHO) w/o ZPVE           -0.093936040576 Eh   ::
         :: G(RRHO) contrib.            0.939249612399 Eh   ::
         :::::::::::::::::::::::::::::::::::::::::::::::::::::

           -------------------------------------------------
          | TOTAL ENERGY             -203.756388202567 Eh   |
          | TOTAL ENTHALPY           -202.657568236814 Eh   |
          | TOTAL FREE ENERGY        -202.817138590168 Eh   |
          | GRADIENT NORM               0.000082824617 Eh/α |
          | HOMO-LUMO GAP               0.220179052835 eV   |
           -------------------------------------------------

 * finished run on 2025/09/12 at 07:25:18.285
