   * xtb version 6.7.1 (edcfbbe) compiled by 'albert@albert-system' on 2024-07-22

   ID    Z sym.   atoms
    1    6 C      1-4, 6-43, 45-82
    2    7 N      5, 44
    3    1 H      83-134

          program call               : xtb data2507/toluene/TPA–DAP–TPA/TPA–DAP–TPA.xyz --gfn 2 --gbsa toluene --ohess vtight --parallel 40 --molden --ceasefiles --namespace data2507/toluene/TPA–DAP–TPA/TPA–DAP–TPA_toluene_S0_preOpt
      * Solvation model:               GBSA
        Solvent                        toluene
        Solvent mass                       9.2140E+01 g/mol
          :  Hamiltonian                  GFN2-xTB          :
 * total energy  :  -203.7741363 Eh     change       -0.3430557E-08 Eh
 * total energy  :  -203.8027781 Eh     change       -0.2864177E-01 Eh
 * total energy  :  -203.8139907 Eh     change       -0.1121261E-01 Eh
 * total energy  :  -203.8166453 Eh     change       -0.2654593E-02 Eh
 * total energy  :  -203.8177946 Eh     change       -0.1149316E-02 Eh
 * total energy  :  -203.8183457 Eh     change       -0.5511252E-03 Eh
 * total energy  :  -203.8187193 Eh     change       -0.3736333E-03 Eh
 * total energy  :  -203.8189784 Eh     change       -0.2590866E-03 Eh
 * total energy  :  -203.8191110 Eh     change       -0.1325938E-03 Eh
 * total energy  :  -203.8191893 Eh     change       -0.7825838E-04 Eh
 * total energy  :  -203.8199478 Eh     change       -0.1239828E-05 Eh
 * total energy  :  -203.8199491 Eh     change       -0.1305936E-05 Eh
 * total energy  :  -203.8199501 Eh     change       -0.1044720E-05 Eh
 * total energy  :  -203.8199508 Eh     change       -0.6777481E-06 Eh
 * total energy  :  -203.8199514 Eh     change       -0.6048597E-06 Eh
 * total energy  :  -203.8199520 Eh     change       -0.5591498E-06 Eh
 * total energy  :  -203.8199524 Eh     change       -0.4491224E-06 Eh
 * total energy  :  -203.8199529 Eh     change       -0.4540762E-06 Eh
 * total energy  :  -203.8199529 Eh     change       -0.4947481E-08 Eh
   *** GEOMETRY OPTIMIZATION CONVERGED AFTER 152 ITERATIONS ***

 final structure:
================
134
 xtb: 6.7.1 (edcfbbe)
C          -14.30598916290275        2.82971679199071       -2.89779632830437
C          -14.81282612235065        1.54219329588065       -2.82320490257469
C          -14.26315401348431        0.62228779851479       -1.95107719511536
C          -13.19569400044585        0.98335463478457       -1.12870641499218
N          -12.63680127803466        0.05687940918831       -0.23983807624006
C          -13.45757081672019       -0.85675133194463        0.43180544434914
C          -14.72463602846552       -0.47808248654188        0.87616394723388
C          -15.53168958300008       -1.38524483788513        1.53540596830808
C          -15.08962277151918       -2.67702076890546        1.77204530459411
C          -13.83029569761300       -3.05739136588096        1.33683098129298
C          -13.02009875076233       -2.16037811608216        0.66778954802380
C          -11.25422809467180        0.04619291376416       -0.02231350782843
C          -10.73640968988550       -0.19825784119426        1.25010150297432
C           -9.37238110418982       -0.21298759933802        1.45874510825083
C           -8.48640869481676        0.02908246735503        0.41200656023883
C           -7.02664104915090        0.02342013766596        0.64163876213776
C           -6.37091055507436       -1.17941259775352        0.94468797601896
C           -7.06384320188556       -2.41740222200452        1.00810776645899
C           -6.41410928521949       -3.57756063086021        1.29897723901290
C           -5.02462414894327       -3.57632643903144        1.53763011624527
C           -4.31955579310976       -2.41446675331525        1.47100560468380
C           -4.95935132812871       -1.18231157450017        1.17252305819874
C           -4.23645034999703        0.01407472128319        1.08343604924426
C           -2.77637216804335        0.01326213451928        1.33612041383981
C           -2.31140962637522        0.11689946896982        2.64212671641429
C           -0.95907794463807        0.12924948301353        2.92061426962911
C           -0.01849164351461        0.03725271419926        1.89321316307657
C            1.38489550594674        0.05050463352676        2.14341964995527
C            2.28050716583483       -0.03538352057312        1.13320908316076
C            1.85528103099181       -0.14502301538806       -0.22445886700496
C            2.77022209772455       -0.23011267785310       -1.28561987871941
C            4.23075791646171       -0.19070491217171       -1.03714579981377
C            4.89272168326820        1.04304902477280       -0.98714600164941
C            4.19209496453801        2.26924395310800       -1.13595297546392
C            4.84188591825834        3.46337802181854       -1.07690224228901
C            6.23441789442413        3.50469295669746       -0.85959176839508
C            6.94202268680051        2.35152809302062       -0.71156311337314
C            6.30605270219166        1.08339132314172       -0.77565264027515
C            7.02299269784019       -0.11188374754171       -0.62272689780142
C            8.48678128418742       -0.06734879245700       -0.40893881499325
C            9.34859481845317        0.21875001660940       -1.46389065835628
C           10.71373350193859        0.27284656836545       -1.26767024037480
C           11.25504076510535        0.03933487709924       -0.00329371865525
N           12.63879531215422        0.09956064160027        0.20182549326916
C           13.51161225077874       -0.39313459110625       -0.77572227553233
C           14.71629372660674        0.25729187393491       -1.04418824321552
C           15.57611540203117       -0.23723481999618       -2.00594146135425
C           15.24872704561749       -1.37804036631149       -2.72121016863396
C           14.05080216479726       -2.02478000818765       -2.46300644370042
C           13.18849831028702       -1.54274042415263       -1.49712772672569
C           13.14622190979608        0.66107397981055        1.37952278399298
C           14.28263062652407        0.12631104658450        1.98705867666423
C           14.78498225940271        0.68991791909462        3.14412442461280
C           14.16163121528046        1.78519371555785        3.72034931702709
C           13.02836196776444        2.31600169485657        3.12543616610304
C           12.52370645307023        1.76480576926611        1.96339541456817
C           10.39355864276610       -0.25254461840998        1.05448106598833
C            9.02927537226316       -0.30353119226766        0.85100071381254
C            6.35920560248338       -1.34563008454073       -0.67132650130549
C            7.05547951940677       -2.57639715433318       -0.53973238525693
C            6.39864292601334       -3.76750934569374       -0.58631033241979
C            5.00106553199017       -3.80423944747166       -0.77054600740404
C            4.29766894420265       -2.64833462843053       -0.91458801833400
C            4.94506140199999       -1.38497158778978       -0.87840422364236
C            2.30563741285730       -0.34345641558576       -2.59097212662286
C            0.95328266124467       -0.36974117180077       -2.86843555630362
C            0.01254162695820       -0.27995104852489       -1.84099102484653
C           -1.39081873722116       -0.29771700521510       -2.09085331574665
C           -2.28648612618811       -0.20537427366868       -1.08127098271127
C           -1.86160665921056       -0.08685921326795        0.27590584647717
C           -0.47202800459403       -0.07299525839288        0.55529982383812
C            0.46573408325884       -0.16731025987059       -0.50320289668051
C           -4.88876633070358        1.21529818739798        0.77624972886985
C           -4.17907328702272        2.44180571709870        0.68365699456129
C           -4.82085722493920        3.60732053476918        0.39882975046762
C           -6.21655764217273        3.61858553089092        0.20051408457472
C           -6.93251482644729        2.46365099641584        0.28022043121624
C           -6.30139374016285        1.22171613650324        0.55616869851879
C           -9.00634814093357        0.27879467806022       -0.85547773155398
C          -10.36873283838373        0.28100941964884       -1.07471272324123
C          -12.69197735087748        2.28211635152443       -1.20545014653413
C          -13.24254741913540        3.19236891891874       -2.08692036316521
H          -14.73621625823715        3.54492347354843       -3.58274330690269
H          -15.63786433609196        1.24812343044889       -3.45579211608564
H          -14.65503270936085       -0.38335551404223       -1.90187053296619
H          -15.06891820130516        0.53124228943141        0.70268532264456
H          -16.51020423100273       -1.07734074463799        1.87473389513428
H          -15.72165696726712       -3.38186612995882        2.29118368902452
H          -13.47866168537367       -4.06408269065519        1.51112059584318
H          -12.04332794570448       -2.46399311543145        0.31987321107055
H          -11.41246366835330       -0.37377945160219        2.07427858695384
H           -8.98334674123785       -0.39722199993213        2.45004748690117
H           -8.12624639947615       -2.42304478866223        0.81453708453241
H           -6.95725258064269       -4.51063236438994        1.34321778837559
H           -4.52528378692549       -4.50697662543239        1.76575809687707
H           -3.25238949896840       -2.41025967464419        1.64006852116303
H           -3.02911907992354        0.19095188365942        3.44736647105641
H           -0.61868039866954        0.21218542202946        3.94305664570258
H            1.71774404827468        0.13276974486523        3.16871088745390
H            3.34207194862675       -0.02311187521518        1.33441057597490
H            3.12407356286520        2.23429697285089       -1.29516598887547
H            4.29619311986860        4.38886966616323       -1.19137496428368
H            6.73341215910144        4.46182820807762       -0.80925266815149
H            8.00782734530588        2.38309048804848       -0.53926056426734
H            8.93955318581999        0.40573179591070       -2.44659838049773
H           11.37151336631493        0.50187456203852       -2.09352609012166
H           14.97037165681570        1.15244963952000       -0.49515101687626
H           16.50487711157370        0.27801719653140       -2.20434580900964
H           15.92168114578217       -1.75992664021099       -3.47424762069661
H           13.78891494946607       -2.91783407824972       -3.01191590176507
H           12.25988505779515       -2.05533524033086       -1.29194753288124
H           14.76591993347408       -0.73335612112404        1.54574107445858
H           15.66566485727854        0.26483323000163        3.60366304037654
H           14.55563550106464        2.22107774994250        4.62620461583421
H           12.53740988623661        3.17261908320795        3.56444646823760
H           11.64514526019064        2.18762307723248        1.49796789951630
H           10.80235563031604       -0.44044990173775        2.03670471288895
H            8.37132120771925       -0.53105403353245        1.67760935538014
H            8.12636388505389       -2.54779909851819       -0.40180140176205
H            6.94265535883243       -4.69550864515360       -0.48414658170024
H            4.49585764309561       -4.75893347729934       -0.79945842171836
H            3.22722179503736       -2.67193612000032       -1.05973273197180
H            3.02347735925351       -0.40862451651346       -3.39682076653152
H            0.61299741002712       -0.45742183147749       -3.89051993839096
H           -1.72370902209664       -0.38754419610789       -3.11549612488288
H           -3.34789884219366       -0.22049002404958       -1.28291324879299
H           -3.11121325600914        2.43067896977609        0.84727318288733
H           -4.26823412970925        4.53326060813116        0.33054120449265
H           -6.71304807697873        4.55483464816857       -0.01067537705250
H           -8.00305658740109        2.47650479204920        0.13862244438493
H           -8.33044845125290        0.45644203851368       -1.67977633791580
H          -10.75752968211583        0.46388942166009       -2.06593784456617
H          -11.86971265563154        2.57142006088977       -0.56712773478293
H          -12.84381296565582        4.19547604125510       -2.13399080483655

          :  Hamiltonian                  GFN2-xTB          :
         :: gradient norm              0.000057026673 Eh/a0 ::
         :: HOMO-LUMO gap              1.890978500073 eV    ::
         :: SCC energy              -207.772015414947 Eh    ::
         :: -> dispersion             -0.204577965756 Eh    ::
         :: -> Gsolv                  -0.080744963159 Eh    ::
         :: repulsion energy           3.952062520350 Eh    ::

    * Orbital Energies and Occupations

         #    Occupation            Energy/Eh            Energy/eV
      -------------------------------------------------------------
         1        2.0000           -0.6643701             -18.0784
       ...           ...                  ...                  ...
       179        2.0000           -0.4039344             -10.9916
       180        2.0000           -0.4024588             -10.9515
       181        2.0000           -0.4006972             -10.9035
       182        2.0000           -0.4000205             -10.8851
       183        2.0000           -0.3982913             -10.8381
       184        2.0000           -0.3981268             -10.8336
       185        2.0000           -0.3966453             -10.7933
       186        2.0000           -0.3910118             -10.6400
       187        2.0000           -0.3624866              -9.8638
       188        2.0000           -0.3587487              -9.7620
       189        2.0000           -0.3583192              -9.7504
       190        2.0000           -0.3486695              -9.4878
       191        2.0000           -0.3480874              -9.4719 (HOMO)
       192                         -0.2785952              -7.5810 (LUMO)
       193                         -0.2783006              -7.5729
       194                         -0.2754018              -7.4941
       195                         -0.2420671              -6.5870
       196                         -0.2308723              -6.2824
       197                         -0.2307728              -6.2796
       198                         -0.2303897              -6.2692
       199                         -0.2302348              -6.2650
       200                         -0.2300792              -6.2608
       201                         -0.2299765              -6.2580
       202                         -0.2274181              -6.1884
       ...                                ...                  ...
       380                          0.7297531              19.8576
      -------------------------------------------------------------
                  HL-Gap            0.0694922 Eh            1.8910 eV

     #   Z          covCN         q      C6AA      α(0)
     1   6 C        2.919    -0.040    28.982     8.828
     2   6 C        2.919    -0.030    28.757     8.794
     3   6 C        2.922    -0.048    29.195     8.861
     4   6 C        2.923     0.066    26.528     8.446
     5   7 N        2.752    -0.081    22.806     7.093
     6   6 C        2.923     0.066    26.528     8.446
     7   6 C        2.922    -0.048    29.201     8.862
     8   6 C        2.919    -0.030    28.757     8.794
     9   6 C        2.919    -0.040    28.986     8.829
    10   6 C        2.919    -0.030    28.758     8.794
    11   6 C        2.922    -0.048    29.197     8.861
    12   6 C        2.923     0.064    26.568     8.453
    13   6 C        2.921    -0.049    29.208     8.863
    14   6 C        2.923    -0.033    28.816     8.803
    15   6 C        2.976     0.007    27.864     8.659
    16   6 C        2.976    -0.006    28.166     8.705
    17   6 C        2.983     0.005    27.909     8.666
    18   6 C        2.917    -0.035    28.872     8.811
    19   6 C        2.914    -0.031    28.778     8.797
    20   6 C        2.914    -0.031    28.774     8.796
    21   6 C        2.917    -0.034    28.847     8.808
    22   6 C        2.984     0.005    27.895     8.664
    23   6 C        2.978    -0.004    28.124     8.699
    24   6 C        2.977     0.008    27.837     8.654
    25   6 C        2.919    -0.034    28.848     8.808
    26   6 C        2.918    -0.039    28.961     8.825
    27   6 C        2.982     0.008    27.837     8.655
    28   6 C        2.913    -0.037    28.922     8.819
    29   6 C        2.913    -0.034    28.849     8.808
    30   6 C        2.984     0.006    27.878     8.661
    31   6 C        2.977     0.008    27.838     8.655
    32   6 C        2.978    -0.004    28.119     8.698
    33   6 C        2.984     0.006    27.890     8.663
    34   6 C        2.917    -0.034    28.840     8.806
    35   6 C        2.914    -0.031    28.771     8.796
    36   6 C        2.914    -0.031    28.773     8.796
    37   6 C        2.917    -0.035    28.865     8.810
    38   6 C        2.984     0.005    27.908     8.666
    39   6 C        2.976    -0.006    28.161     8.705
    40   6 C        2.976     0.007    27.854     8.657
    41   6 C        2.923    -0.033    28.816     8.803
    42   6 C        2.921    -0.048    29.201     8.862
    43   6 C        2.923     0.064    26.569     8.453
    44   7 N        2.752    -0.081    22.817     7.094
    45   6 C        2.923     0.066    26.527     8.446
    46   6 C        2.922    -0.048    29.200     8.861
    47   6 C        2.919    -0.030    28.758     8.794
    48   6 C        2.919    -0.040    28.986     8.829
    49   6 C        2.919    -0.030    28.758     8.794
    50   6 C        2.922    -0.048    29.198     8.861
    51   6 C        2.923     0.066    26.527     8.446
    52   6 C        2.922    -0.048    29.202     8.862
    53   6 C        2.919    -0.030    28.759     8.794
    54   6 C        2.919    -0.040    28.988     8.829
    55   6 C        2.919    -0.030    28.759     8.794
    56   6 C        2.922    -0.048    29.201     8.862
    57   6 C        2.921    -0.048    29.201     8.862
    58   6 C        2.923    -0.033    28.817     8.803
    59   6 C        2.983     0.005    27.907     8.666
    60   6 C        2.917    -0.035    28.863     8.810
    61   6 C        2.914    -0.031    28.773     8.796
    62   6 C        2.914    -0.031    28.771     8.796
    63   6 C        2.917    -0.034    28.841     8.806
    64   6 C        2.984     0.005    27.892     8.663
    65   6 C        2.919    -0.034    28.847     8.808
    66   6 C        2.918    -0.039    28.960     8.825
    67   6 C        2.982     0.008    27.836     8.654
    68   6 C        2.913    -0.037    28.922     8.819
    69   6 C        2.913    -0.034    28.849     8.807
    70   6 C        2.984     0.006    27.878     8.661
    71   6 C        2.995     0.001    27.991     8.679
    72   6 C        2.995     0.001    27.991     8.679
    73   6 C        2.984     0.006    27.890     8.663
    74   6 C        2.917    -0.034    28.843     8.807
    75   6 C        2.914    -0.031    28.773     8.796
    76   6 C        2.914    -0.031    28.778     8.797
    77   6 C        2.917    -0.035    28.873     8.811
    78   6 C        2.983     0.005    27.911     8.666
    79   6 C        2.923    -0.033    28.815     8.803
    80   6 C        2.921    -0.049    29.209     8.863
    81   6 C        2.922    -0.048    29.192     8.860
    82   6 C        2.919    -0.030    28.757     8.794
    83   1 H        0.926     0.031     2.566     2.505
    84   1 H        0.926     0.033     2.546     2.495
    85   1 H        0.926     0.031     2.571     2.508
    86   1 H        0.926     0.031     2.574     2.509
    87   1 H        0.926     0.033     2.549     2.497
    88   1 H        0.926     0.031     2.568     2.506
    89   1 H        0.926     0.033     2.547     2.496
    90   1 H        0.926     0.030     2.580     2.512
    91   1 H        0.926     0.032     2.554     2.499
    92   1 H        0.926     0.033     2.545     2.495
    93   1 H        0.926     0.031     2.566     2.505
    94   1 H        0.926     0.030     2.592     2.518
    95   1 H        0.926     0.029     2.597     2.520
    96   1 H        0.926     0.029     2.600     2.522
    97   1 H        0.926     0.029     2.599     2.521
    98   1 H        0.926     0.033     2.547     2.496
    99   1 H        0.926     0.031     2.569     2.507
   100   1 H        0.926     0.029     2.597     2.520
   101   1 H        0.926     0.029     2.602     2.523
   102   1 H        0.926     0.029     2.594     2.519
   103   1 H        0.926     0.030     2.589     2.516
   104   1 H        0.926     0.031     2.577     2.510
   105   1 H        0.926     0.032     2.553     2.498
   106   1 H        0.926     0.032     2.554     2.499
   107   1 H        0.926     0.031     2.573     2.509
   108   1 H        0.926     0.033     2.549     2.496
   109   1 H        0.926     0.031     2.569     2.506
   110   1 H        0.926     0.033     2.547     2.496
   111   1 H        0.926     0.030     2.579     2.512
   112   1 H        0.926     0.031     2.574     2.509
   113   1 H        0.926     0.033     2.550     2.497
   114   1 H        0.926     0.031     2.570     2.507
   115   1 H        0.926     0.033     2.549     2.497
   116   1 H        0.926     0.030     2.582     2.513
   117   1 H        0.926     0.032     2.552     2.498
   118   1 H        0.926     0.032     2.554     2.499
   119   1 H        0.926     0.031     2.576     2.510
   120   1 H        0.926     0.030     2.589     2.516
   121   1 H        0.926     0.030     2.593     2.518
   122   1 H        0.926     0.029     2.598     2.521
   123   1 H        0.926     0.029     2.599     2.521
   124   1 H        0.926     0.033     2.547     2.496
   125   1 H        0.926     0.031     2.570     2.507
   126   1 H        0.926     0.029     2.598     2.520
   127   1 H        0.926     0.029     2.605     2.524
   128   1 H        0.926     0.029     2.598     2.521
   129   1 H        0.926     0.030     2.592     2.517
   130   1 H        0.926     0.031     2.566     2.505
   131   1 H        0.926     0.033     2.546     2.495
   132   1 H        0.926     0.032     2.555     2.500
   133   1 H        0.926     0.030     2.580     2.512
   134   1 H        0.926     0.033     2.545     2.495

molecular dipole:
                 x           y           z       tot (Debye)
 q only:       -0.049       0.004      -0.015
   full:       -0.047       0.010      -0.016       0.128

 projected vibrational frequencies (cm⁻¹)
eigval :       -0.00    -0.00    -0.00     0.00     0.00     0.00
eigval :        5.87     7.18     8.39    10.39    11.69    12.06
eigval :       18.18    20.72    23.18    31.80    34.72    40.92
eigval :       42.46    47.43    48.59    53.65    58.19    60.12
eigval :       66.88    70.39    71.48    72.84    76.55    81.75
eigval :       82.35    97.36    99.27   106.36   109.27   109.33
eigval :      115.39   138.89   144.54   148.03   156.41   173.84
eigval :      179.97   183.65   185.35   189.57   201.62   205.16
eigval :      211.10   214.28   230.12   232.47   232.81   237.97
eigval :      238.18   270.21   287.30   291.70   316.94   318.15
eigval :      320.04   324.10   337.43   346.67   350.94   360.11
eigval :      375.10   376.48   377.83   378.68   379.19   385.11
eigval :      386.46   387.90   390.58   392.46   397.11   398.57
eigval :      406.06   408.80   410.71   411.72   415.45   419.12
eigval :      429.68   444.80   448.43   458.61   460.40   463.31
eigval :      475.67   478.36   484.57   485.80   487.23   488.40
eigval :      494.17   500.51   501.80   508.54   518.65   528.60
eigval :      556.98   563.04   578.33   579.71   583.17   584.56
eigval :      585.08   585.38   587.61   588.67   592.95   595.61
eigval :      597.34   604.94   605.37   607.34   615.31   628.33
eigval :      640.16   647.55   651.66   653.23   653.48   654.34
eigval :      659.89   660.11   664.98   666.29   678.41   682.71
eigval :      688.24   692.62   693.35   693.71   694.92   701.87
eigval :      724.51   734.31   737.91   741.76   744.72   754.44
eigval :      754.89   759.10   760.33   761.14   772.21   774.71
eigval :      774.81   776.15   798.61   805.15   813.48   815.17
eigval :      816.05   821.69   843.22   849.99   869.09   870.75
eigval :      871.93   872.64   872.74   874.59   875.10   875.16
eigval :      877.16   878.50   889.01   889.68   891.14   891.56
eigval :      896.55   896.69   897.04   897.20   909.28   909.41
eigval :      912.47   913.84   914.98   915.61   916.57   916.85
eigval :      917.85   918.54   920.63   920.73   922.86   923.20
eigval :      923.65   925.97   926.53   926.86   927.12   927.80
eigval :      928.20   928.82   928.85   929.50   929.80   931.24
eigval :      931.74   932.04   933.21   942.04   942.67   986.30
eigval :      986.71   995.35  1003.86  1004.02  1016.64  1026.59
eigval :     1031.39  1078.04  1079.50  1079.83  1080.63  1082.14
eigval :     1082.37  1083.19  1083.39  1108.63  1110.55  1121.10
eigval :     1121.56  1123.30  1123.69  1134.16  1134.47  1140.38
eigval :     1141.28  1152.92  1156.43  1164.46  1178.41  1178.87
eigval :     1178.98  1179.55  1179.64  1179.92  1180.33  1182.54
eigval :     1183.66  1186.14  1186.60  1194.61  1194.90  1195.01
eigval :     1195.27  1196.28  1200.99  1207.02  1207.34  1220.92
eigval :     1222.45  1226.67  1226.86  1227.65  1228.18  1246.99
eigval :     1255.52  1258.84  1261.19  1261.53  1266.57  1271.86
eigval :     1273.03  1277.77  1278.23  1280.50  1281.49  1301.46
eigval :     1306.94  1307.75  1308.54  1313.50  1314.15  1314.41
eigval :     1315.10  1321.05  1321.39  1324.92  1325.06  1329.61
eigval :     1330.57  1348.92  1348.99  1353.32  1369.78  1378.35
eigval :     1380.79  1384.35  1384.54  1386.47  1405.93  1406.77
eigval :     1407.86  1415.92  1418.89  1423.29  1428.08  1428.31
eigval :     1434.20  1434.46  1441.00  1441.35  1445.45  1446.27
eigval :     1450.86  1470.54  1470.89  1473.41  1473.65  1475.41
eigval :     1476.27  1494.96  1495.89  1499.69  1503.27  1524.93
eigval :     1525.02  1528.42  1529.66  1531.77  1541.85  1542.57
eigval :     1554.77  1555.66  1562.63  1563.67  1575.45  1575.49
eigval :     1579.45  1579.47  1591.58  1591.72  1592.89  1594.12
eigval :     1600.16  1601.06  1604.09  1606.55  1607.37  1607.40
eigval :     1621.67  1621.84  3064.72  3064.93  3066.41  3066.66
eigval :     3068.16  3068.19  3068.35  3068.52  3069.90  3070.56
eigval :     3070.71  3071.09  3071.58  3071.90  3072.15  3072.58
eigval :     3072.87  3073.22  3073.89  3074.13  3074.37  3074.72
eigval :     3074.85  3075.37  3077.12  3077.57  3080.51  3081.44
eigval :     3081.70  3082.41  3082.64  3082.81  3083.31  3083.72
eigval :     3083.82  3083.97  3084.04  3084.74  3084.97  3085.42
eigval :     3085.54  3086.27  3087.72  3088.52  3089.11  3090.28
eigval :     3091.02  3092.14  3092.96  3093.33  3093.96  3094.45

   temp. (K)  partition function   enthalpy   heat capacity  entropy
                                   cal/mol     cal/K/mol   cal/K/mol   J/K/mol
 298.15  VIB  0.225E+33            38762.215    243.239    245.233
         ROT  0.551E+09              888.752      2.981     42.979
         INT  0.124E+42            39650.967    246.220    288.212
         TR   0.325E+29             1481.254      4.968     46.681
         TOT                       41132.2213   251.1882   334.8931  1401.1929

       T/K    H(0)-H(T)+PV         H(T)/Eh          T*S/Eh         G(T)/Eh
   ------------------------------------------------------------------------
    298.15    0.655484E-01    0.110234E+01    0.159119E+00    0.943221E+00
   ------------------------------------------------------------------------

         :::::::::::::::::::::::::::::::::::::::::::::::::::::
         ::                  THERMODYNAMIC                  ::
         :::::::::::::::::::::::::::::::::::::::::::::::::::::
         :: total free energy        -202.876732173123 Eh   ::
         ::.................................................::
         :: total energy             -203.819952892784 Eh   ::
         :: zero point energy           1.036790886456 Eh   ::
         :: G(RRHO) w/o ZPVE           -0.093570166795 Eh   ::
         :: G(RRHO) contrib.            0.943220719661 Eh   ::
         :::::::::::::::::::::::::::::::::::::::::::::::::::::

           -------------------------------------------------
          | TOTAL ENERGY             -203.819952892784 Eh   |
          | TOTAL ENTHALPY           -202.717613639340 Eh   |
          | TOTAL FREE ENERGY        -202.876732173123 Eh   |
          | GRADIENT NORM               0.000057031005 Eh/α |
          | HOMO-LUMO GAP               1.890978231012 eV   |
           -------------------------------------------------

 * finished run on 2025/09/12 at 06:56:20.069
