   * xtb version 6.7.1 (edcfbbe) compiled by 'albert@albert-system' on 2024-07-22

   ID    Z sym.   atoms
    1    6 C      1-4, 6-43, 45-82
    2    7 N      5, 44
    3    1 H      83-134

          program call               : xtb data2507/toluene/TPA–DAP–TPA/TPA–DAP–TPA_toluene_T1_crest.xyz --gfn 2 --uhf 2 --gbsa toluene --ohess vtight --parallel 40 --molden --ceasefiles --namespace data2507/toluene/TPA–DAP–TPA/TPA–DAP–TPA_toluene_T1_finalOpt
      * Solvation model:               GBSA
        Solvent                        toluene
        Solvent mass                       9.2140E+01 g/mol
          :  Hamiltonian                  GFN2-xTB          :
 * total energy  :  -203.7561935 Eh     change       -0.1053067E-07 Eh
 * total energy  :  -203.7562493 Eh     change       -0.5577681E-04 Eh
 * total energy  :  -203.7562780 Eh     change       -0.2871638E-04 Eh
 * total energy  :  -203.7562915 Eh     change       -0.1349240E-04 Eh
 * total energy  :  -203.7563051 Eh     change       -0.1363029E-04 Eh
 * total energy  :  -203.7563094 Eh     change       -0.4267086E-05 Eh
 * total energy  :  -203.7563149 Eh     change       -0.5497616E-05 Eh
 * total energy  :  -203.7563199 Eh     change       -0.5042022E-05 Eh
 * total energy  :  -203.7563253 Eh     change       -0.5421741E-05 Eh
 * total energy  :  -203.7563321 Eh     change       -0.6709143E-05 Eh
 * total energy  :  -203.7565339 Eh     change       -0.6763222E-06 Eh
 * total energy  :  -203.7565347 Eh     change       -0.7685983E-06 Eh
 * total energy  :  -203.7565356 Eh     change       -0.9400489E-06 Eh
 * total energy  :  -203.7565368 Eh     change       -0.1151266E-05 Eh
 * total energy  :  -203.7565381 Eh     change       -0.1278441E-05 Eh
 * total energy  :  -203.7565395 Eh     change       -0.1439722E-05 Eh
 * total energy  :  -203.7565411 Eh     change       -0.1557296E-05 Eh
 * total energy  :  -203.7565427 Eh     change       -0.1691705E-05 Eh
 * total energy  :  -203.7565427 Eh     change       -0.5120768E-08 Eh
   *** GEOMETRY OPTIMIZATION CONVERGED AFTER 94 ITERATIONS ***

 final structure:
================
134
 xtb: 6.7.1 (edcfbbe)
C          -14.27973318315253        3.78305449043362       -1.73505564237832
C          -14.82618600104419        2.56365994535169       -2.10311294008832
C          -14.29863563100867        1.38421232007710       -1.61396474573006
C          -13.21407868100436        1.41097487186237       -0.73662061028637
N          -12.68281125531022        0.21803071691970       -0.23018378158452
C          -13.54113598962985       -0.84117575362420        0.09377713045783
C          -14.77957147875579       -0.59107319601384        0.68534020116588
C          -15.62597449766430       -1.63836233573249        0.99465314737666
C          -15.25195377852627       -2.94577363938862        0.72687413505661
C          -14.02118546380369       -3.19947277485083        0.14241778984263
C          -13.17023124630228       -2.15878130912072       -0.17634511870082
C          -11.30761904473947        0.08085033829901       -0.05445333764144
C          -10.79488538368891       -0.65819249241585        1.01651927296529
C           -9.43610642069709       -0.80372607261978        1.18015150118002
C           -8.52977092036267       -0.20562362571695        0.29652911250348
C           -7.08815688761362       -0.35859837897427        0.47142681246490
C           -6.51045271958162       -1.65666939371187        0.50899057210957
C           -7.28560315986288       -2.81183293389108        0.29479777949176
C           -6.72173421313095       -4.06968122158342        0.27195911838095
C           -5.34655092192237       -4.21384513282808        0.40735687485958
C           -4.55262844078163       -3.09752813218647        0.57512814483569
C           -5.10044745923975       -1.80692973499291        0.66662461934214
C           -4.26504174022906       -0.65562736704461        0.78897145699624
C           -2.84123627768375       -0.81928390534732        0.98855741322934
C           -2.39043818247345       -1.58857519436264        2.07553060542256
C           -1.06180561319911       -1.68466118133465        2.39023461503916
C           -0.07978847549129       -1.05611479432375        1.59647995781740
C            1.29427885153994       -1.12061085775201        1.90956969858700
C            2.23212988052407       -0.53535631636788        1.10928137676277
C            1.86213535370512        0.14236030442660       -0.07822769910498
C            2.82083673487526        0.73617926109177       -0.93392135739840
C            4.26562248888344        0.58867494884935       -0.70238239280639
C            5.04366089344787        1.72124973158056       -0.39836441378693
C            4.45204264749637        2.99238003920565       -0.18960440000918
C            5.21103367193988        4.09414307244600        0.07555031095276
C            6.61159431799934        3.98750484867905        0.14306222791234
C            7.21611417583191        2.77576516672505       -0.01658577166153
C            6.46114747127231        1.59974479825931       -0.25959110163173
C            7.07066564027884        0.33959811855681       -0.38406148638454
C            8.53387569996586        0.21055808672605       -0.24703371945361
C            9.31511013057349       -0.17779091947515       -1.33427142933470
C           10.68471407745833       -0.29287625802434       -1.21951734707752
C           11.31628629885888       -0.03686175210691       -0.00135929114845
N           12.70382904527028       -0.16389471147504        0.12056062009077
C           13.42258021949335        0.73242286657419        0.92013011426600
C           13.06164156931547        2.07915074991774        0.97368719673331
C           13.77253216864539        2.95978097011229        1.76598926878435
C           14.85634588197137        2.51866124286482        2.50832928707041
C           15.22136314668353        1.18279756487745        2.45631761553468
C           14.51105047960062        0.29264044465477        1.67419491301294
C           13.37292155116979       -1.18934944378602       -0.55870768705203
C           14.63108394084348       -0.96518216272902       -1.11833213412507
C           15.28926488986098       -1.98276955653327       -1.78177895852977
C           14.70507681625858       -3.23326041723095       -1.90614210804088
C           13.45301033764961       -3.45972311046700       -1.35716229476697
C           12.79065357589169       -2.45103559795470       -0.68453008229768
C           10.53732506071474        0.34566576769821        1.09169978035975
C            9.16945308782294        0.47378571687628        0.96491382029219
C            6.29128682195433       -0.79897578650936       -0.65378189247496
C            6.86674700580781       -2.09299681085041       -0.73492269011164
C            6.11385920370093       -3.18732937803670       -1.04174933737580
C            4.73764888972248       -3.04926370348482       -1.29616061631696
C            4.14102215220632       -1.82727314657465       -1.19626820476066
C            4.87994127889706       -0.67132942069482       -0.83908548952890
C            2.38999468501051        1.46517179806046       -2.04282369860079
C            1.05595481169518        1.56622272978514       -2.36187222962999
C            0.07685970518427        0.95662215737710       -1.55806488481380
C           -1.29889407280938        1.00242174959265       -1.87990634139400
C           -2.23470152311082        0.43005553540790       -1.06929184537990
C           -1.87126438498481       -0.21456289355293        0.13603721523381
C           -0.49269710595356       -0.33600124302484        0.44691734082984
C            0.48290720666220        0.25734442807960       -0.39416479710066
C           -4.85432936520218        0.64631922843124        0.77382466902885
C           -4.09292586766770        1.79514696311734        1.04559424110834
C           -4.66129073260128        3.05065291483704        1.08729644347806
C           -6.03072055727707        3.19629329314523        0.89870137998188
C           -6.81573364423188        2.08395087316270        0.68635040427412
C           -6.26298797104141        0.79151584922071        0.60720118285297
C           -9.05185425049789        0.54310139533244       -0.76504333264133
C          -10.40956336438249        0.67753538759576       -0.94506344245508
C          -12.66954009070617        2.64121350163045       -0.36654568206575
C          -13.19924802538045        3.81465958693307       -0.86768116725078
H          -14.69293520863090        4.70244622080631       -2.12164838489327
H          -15.66447688093585        2.52951393520033       -2.78350894340576
H          -14.71877960540609        0.43432804099830       -1.91074271289715
H          -15.06853897666807        0.42672903930093        0.90312175026885
H          -16.58125363177336       -1.43242303796527        1.45494871143442
H          -15.91535263605016       -3.76150620157299        0.97165504228057
H          -13.72464548096825       -4.21503062612509       -0.07566335304898
H          -12.21664058811068       -2.35732681091914       -0.64355012037366
H          -11.47563918392733       -1.10512475929450        1.72635691909369
H           -9.05729153354668       -1.35458246956993        2.02890902801994
H           -8.34619120872503       -2.70747614087753        0.12575610542093
H           -7.34667235602730       -4.93784676315051        0.11993561328113
H           -4.89371769528096       -5.19336898874869        0.35740527820287
H           -3.48090922163036       -3.21775054598512        0.62016719347084
H           -3.12813321418741       -2.04798739104767        2.71902063680365
H           -0.74937874352398       -2.22985326405060        3.26972183245067
H            1.59539949644658       -1.64825240252237        2.80404564218833
H            3.27881931028126       -0.58898526745168        1.37053252257606
H            3.37637080186235        3.07495660749610       -0.24034030576507
H            4.74162271099809        5.05471861069048        0.23211687214883
H            7.20377569191469        4.87195590486903        0.32952093358620
H            8.29142268741777        2.69617928175828        0.04054173863932
H            8.83899682362298       -0.37115676265741       -2.28491704069076
H           11.27768761620380       -0.57905090698312       -2.07600665487283
H           12.22486787490176        2.42829600462226        0.38627393765593
H           13.48334037013016        4.00036005403724        1.79628447281375
H           15.41237469301084        3.21056495271916        3.12293562244460
H           16.06116851819651        0.82847875541447        3.03629419103686
H           14.79200201472872       -0.75011256501027        1.64348190972647
H           15.08493443704587        0.01132465676844       -1.03102596805900
H           16.26242427729158       -1.79500344126686       -2.21173134268087
H           15.22158593793297       -4.02526518805493       -2.42730092179241
H           12.99137349742623       -4.43259502161490       -1.44498300866536
H           11.81950012490300       -2.63358155677169       -0.24786681810247
H           11.01301171321218        0.53611236181488        2.04280748643268
H            8.57722687314109        0.76140182890469        1.82188543483398
H            7.92415297504746       -2.19998115332168       -0.54365136011925
H            6.56998356397899       -4.16532846311939       -1.09748120647513
H            4.15537930111119       -3.91850526471451       -1.56614732238278
H            3.08292270776984       -1.72682103728794       -1.38668589592146
H            3.13293245542827        1.92493994725910       -2.68035014680202
H            0.74724851769548        2.10481265203275       -3.24647017205600
H           -1.59922723669265        1.50071942974144       -2.79108614155087
H           -3.27906690557783        0.46696285011000       -1.34217959333434
H           -3.03539946468918        1.69108687622916        1.23451685029903
H           -4.04330042901238        3.91421557806062        1.28556299377719
H           -6.48424659007558        4.17591100326732        0.94307265666453
H           -7.88487025156730        2.20253736977865        0.59981185324226
H           -8.37338283315002        0.98741129819792       -1.47875103675481
H          -10.79034523091563        1.23404797248837       -1.78899466606177
H          -11.83647887329652        2.66873045550020        0.32066481085411
H          -12.77113710152729        4.76096229064127       -0.57079859379971

          :  Hamiltonian                  GFN2-xTB          :
         :: gradient norm              0.000058790231 Eh/a0 ::
         :: HOMO-LUMO gap              0.231221741051 eV    ::
         :: SCC energy              -207.687368666800 Eh    ::
         :: -> dispersion             -0.205750315618 Eh    ::
         :: -> Gsolv                  -0.080720914822 Eh    ::
         :: repulsion energy           3.930825918202 Eh    ::

    * Orbital Energies and Occupations

         #    Occupation            Energy/Eh            Energy/eV
      -------------------------------------------------------------
         1        2.0000           -0.6713584             -18.2686
       ...           ...                  ...                  ...
       180        2.0000           -0.4000525             -10.8860
       181        2.0000           -0.3993119             -10.8658
       182        2.0000           -0.3985140             -10.8441
       183        2.0000           -0.3973899             -10.8135
       184        2.0000           -0.3958753             -10.7723
       185        2.0000           -0.3939742             -10.7206
       186        2.0000           -0.3869677             -10.5299
       187        2.0000           -0.3627365              -9.8706
       188        2.0000           -0.3579774              -9.7411
       189        1.9999           -0.3542981              -9.6409
       190        1.9530           -0.3483104              -9.4780
       191        1.0471           -0.3425953              -9.3225
       192        0.9887           -0.2863828              -7.7929 (HOMO)
       193        0.0113           -0.2778857              -7.5617 (LUMO)
       194        0.0000           -0.2676150              -7.2822
       195                         -0.2358306              -6.4173
       196                         -0.2352895              -6.4026
       197                         -0.2351791              -6.3995
       198                         -0.2317496              -6.3062
       199                         -0.2316071              -6.3023
       200                         -0.2313206              -6.2946
       201                         -0.2286871              -6.2229
       202                         -0.2272215              -6.1830
       203                         -0.2260251              -6.1505
       ...                                ...                  ...
       380                          0.7246580              19.7189
      -------------------------------------------------------------
                  HL-Gap            0.0084971 Eh            0.2312 eV

     #   Z          covCN         q      C6AA      α(0)
     1   6 C        2.919    -0.036    28.898     8.815
     2   6 C        2.919    -0.029    28.715     8.787
     3   6 C        2.922    -0.046    29.132     8.851
     4   6 C        2.924     0.065    26.553     8.450
     5   7 N        2.752    -0.063    22.454     7.038
     6   6 C        2.925     0.065    26.553     8.450
     7   6 C        2.922    -0.045    29.125     8.850
     8   6 C        2.919    -0.029    28.714     8.787
     9   6 C        2.919    -0.036    28.894     8.815
    10   6 C        2.919    -0.029    28.716     8.788
    11   6 C        2.922    -0.045    29.117     8.849
    12   6 C        2.924     0.063    26.580     8.455
    13   6 C        2.919    -0.047    29.177     8.858
    14   6 C        2.922    -0.032    28.788     8.799
    15   6 C        2.973     0.011    27.766     8.643
    16   6 C        2.973    -0.014    28.359     8.735
    17   6 C        2.978     0.006    27.873     8.660
    18   6 C        2.921    -0.041    29.022     8.834
    19   6 C        2.914    -0.033    28.818     8.803
    20   6 C        2.914    -0.034    28.855     8.809
    21   6 C        2.921    -0.038    28.953     8.824
    22   6 C        2.978     0.005    27.904     8.665
    23   6 C        2.973    -0.007    28.193     8.710
    24   6 C        2.972     0.003    27.962     8.674
    25   6 C        2.917    -0.034    28.844     8.807
    26   6 C        2.915    -0.043    29.079     8.843
    27   6 C        2.981     0.006    27.881     8.661
    28   6 C        2.914    -0.041    29.007     8.832
    29   6 C        2.914    -0.037    28.928     8.820
    30   6 C        2.981     0.005    27.915     8.667
    31   6 C        2.975     0.003    27.963     8.674
    32   6 C        2.976    -0.006    28.158     8.704
    33   6 C        2.983     0.004    27.923     8.668
    34   6 C        2.918    -0.036    28.884     8.813
    35   6 C        2.914    -0.033    28.820     8.803
    36   6 C        2.914    -0.032    28.805     8.801
    37   6 C        2.918    -0.037    28.927     8.820
    38   6 C        2.982     0.005    27.916     8.667
    39   6 C        2.976    -0.009    28.246     8.718
    40   6 C        2.975     0.008    27.829     8.653
    41   6 C        2.923    -0.032    28.801     8.801
    42   6 C        2.920    -0.048    29.196     8.861
    43   6 C        2.923     0.064    26.574     8.454
    44   7 N        2.752    -0.075    22.694     7.075
    45   6 C        2.923     0.066    26.533     8.447
    46   6 C        2.922    -0.047    29.172     8.857
    47   6 C        2.919    -0.030    28.743     8.792
    48   6 C        2.919    -0.038    28.957     8.824
    49   6 C        2.919    -0.030    28.744     8.792
    50   6 C        2.922    -0.047    29.178     8.858
    51   6 C        2.924     0.066    26.533     8.447
    52   6 C        2.922    -0.047    29.174     8.857
    53   6 C        2.919    -0.030    28.743     8.792
    54   6 C        2.919    -0.038    28.953     8.824
    55   6 C        2.919    -0.030    28.743     8.792
    56   6 C        2.922    -0.047    29.167     8.857
    57   6 C        2.920    -0.048    29.199     8.861
    58   6 C        2.923    -0.032    28.805     8.801
    59   6 C        2.982     0.004    27.924     8.668
    60   6 C        2.918    -0.037    28.920     8.819
    61   6 C        2.914    -0.032    28.808     8.801
    62   6 C        2.914    -0.032    28.810     8.802
    63   6 C        2.918    -0.035    28.862     8.810
    64   6 C        2.982     0.005    27.897     8.664
    65   6 C        2.917    -0.034    28.848     8.808
    66   6 C        2.916    -0.043    29.076     8.842
    67   6 C        2.981     0.006    27.882     8.662
    68   6 C        2.915    -0.041    29.017     8.833
    69   6 C        2.914    -0.037    28.908     8.817
    70   6 C        2.980     0.004    27.921     8.668
    71   6 C        2.993    -0.000    28.025     8.684
    72   6 C        2.995    -0.001    28.038     8.686
    73   6 C        2.978     0.006    27.873     8.660
    74   6 C        2.921    -0.037    28.910     8.817
    75   6 C        2.915    -0.034    28.839     8.806
    76   6 C        2.914    -0.033    28.824     8.804
    77   6 C        2.921    -0.041    29.014     8.833
    78   6 C        2.978     0.006    27.886     8.662
    79   6 C        2.923    -0.032    28.787     8.799
    80   6 C        2.919    -0.047    29.177     8.858
    81   6 C        2.922    -0.045    29.123     8.850
    82   6 C        2.919    -0.029    28.717     8.788
    83   1 H        0.926     0.035     2.510     2.477
    84   1 H        0.926     0.037     2.490     2.467
    85   1 H        0.926     0.035     2.512     2.478
    86   1 H        0.926     0.036     2.508     2.477
    87   1 H        0.926     0.037     2.487     2.466
    88   1 H        0.926     0.036     2.506     2.476
    89   1 H        0.926     0.037     2.489     2.467
    90   1 H        0.926     0.035     2.514     2.480
    91   1 H        0.926     0.036     2.501     2.473
    92   1 H        0.926     0.038     2.475     2.460
    93   1 H        0.926     0.032     2.562     2.503
    94   1 H        0.926     0.027     2.623     2.533
    95   1 H        0.926     0.026     2.639     2.540
    96   1 H        0.926     0.031     2.579     2.511
    97   1 H        0.925     0.029     2.598     2.521
    98   1 H        0.926     0.028     2.618     2.530
    99   1 H        0.925     0.026     2.638     2.540
   100   1 H        0.926     0.026     2.651     2.546
   101   1 H        0.926     0.029     2.601     2.522
   102   1 H        0.926     0.027     2.625     2.534
   103   1 H        0.926     0.028     2.616     2.529
   104   1 H        0.926     0.030     2.582     2.513
   105   1 H        0.926     0.034     2.533     2.489
   106   1 H        0.926     0.033     2.538     2.491
   107   1 H        0.926     0.032     2.561     2.502
   108   1 H        0.926     0.034     2.528     2.487
   109   1 H        0.926     0.033     2.547     2.496
   110   1 H        0.926     0.034     2.527     2.486
   111   1 H        0.926     0.032     2.551     2.498
   112   1 H        0.926     0.033     2.549     2.497
   113   1 H        0.926     0.034     2.524     2.485
   114   1 H        0.926     0.033     2.545     2.494
   115   1 H        0.926     0.034     2.527     2.486
   116   1 H        0.926     0.032     2.561     2.502
   117   1 H        0.926     0.034     2.537     2.491
   118   1 H        0.926     0.034     2.530     2.487
   119   1 H        0.926     0.030     2.585     2.514
   120   1 H        0.926     0.028     2.615     2.529
   121   1 H        0.926     0.027     2.632     2.537
   122   1 H        0.926     0.027     2.625     2.534
   123   1 H        0.925     0.026     2.640     2.541
   124   1 H        0.926     0.028     2.616     2.529
   125   1 H        0.926     0.027     2.629     2.536
   126   1 H        0.926     0.027     2.628     2.535
   127   1 H        0.926     0.027     2.629     2.536
   128   1 H        0.926     0.026     2.647     2.544
   129   1 H        0.926     0.028     2.622     2.532
   130   1 H        0.926     0.032     2.561     2.502
   131   1 H        0.926     0.038     2.479     2.462
   132   1 H        0.926     0.036     2.500     2.472
   133   1 H        0.926     0.035     2.514     2.480
   134   1 H        0.926     0.037     2.491     2.468

molecular dipole:
                 x           y           z       tot (Debye)
 q only:       -1.682       0.039      -0.069
   full:       -1.655       0.035      -0.068       4.212

 projected vibrational frequencies (cm⁻¹)
eigval :       -0.00    -0.00     0.00     0.00     0.00     0.00
eigval :        3.72     5.02     6.34    10.55    12.02    16.02
eigval :       19.78    21.97    30.57    30.96    33.72    39.44
eigval :       46.59    47.04    49.69    53.76    59.45    61.99
eigval :       68.95    70.74    72.06    74.68    78.53    79.30
eigval :       87.08    96.24   101.34   104.95   114.25   118.86
eigval :      126.64   139.36   145.09   154.25   165.19   176.13
eigval :      184.60   186.44   191.14   193.54   202.76   207.65
eigval :      217.41   223.77   231.38   232.51   235.52   244.28
eigval :      251.81   272.89   287.66   291.57   314.95   316.26
eigval :      319.40   319.60   337.22   349.44   350.36   355.34
eigval :      370.74   373.91   376.53   377.02   377.52   380.84
eigval :      384.48   385.63   387.57   389.59   392.82   398.53
eigval :      400.55   403.94   407.52   410.07   412.77   417.98
eigval :      425.51   441.04   446.04   454.90   459.37   462.04
eigval :      469.80   474.25   484.09   485.17   486.84   489.57
eigval :      493.92   500.25   503.60   508.48   517.41   527.14
eigval :      555.29   560.69   575.86   577.73   578.97   581.81
eigval :      583.84   584.86   587.52   588.27   591.53   592.88
eigval :      596.64   601.55   603.23   605.86   612.48   620.40
eigval :      630.92   639.34   644.15   645.77   651.20   652.37
eigval :      658.61   659.90   663.89   665.24   673.04   676.32
eigval :      685.39   687.53   689.14   690.81   695.58   698.55
eigval :      722.39   726.73   733.12   737.50   741.54   752.88
eigval :      755.20   756.10   757.52   759.09   759.49   766.74
eigval :      771.33   772.29   795.61   802.97   803.31   810.64
eigval :      813.53   815.78   835.84   837.76   856.48   861.15
eigval :      866.79   869.27   870.67   871.56   872.06   872.21
eigval :      872.70   874.34   889.20   889.93   891.06   895.08
eigval :      895.48   896.27   896.49   898.29   898.60   901.87
eigval :      907.72   908.54   909.08   909.17   909.77   910.92
eigval :      912.54   913.50   914.05   915.56   918.69   923.29
eigval :      923.50   924.66   924.83   925.34   926.47   926.55
eigval :      927.27   928.03   928.21   928.46   929.18   929.26
eigval :      932.44   933.87   940.55   941.71   943.43   985.36
eigval :      986.16   995.62  1003.40  1003.52  1016.95  1022.62
eigval :     1030.44  1080.72  1081.00  1081.89  1082.29  1082.53
eigval :     1084.62  1103.25  1104.99  1107.97  1117.85  1119.63
eigval :     1120.39  1120.51  1122.66  1122.82  1127.74  1133.07
eigval :     1137.87  1137.90  1148.23  1154.32  1164.98  1178.94
eigval :     1179.00  1179.26  1179.64  1180.39  1181.12  1182.29
eigval :     1182.67  1183.62  1184.36  1186.72  1189.67  1192.06
eigval :     1192.14  1193.55  1199.00  1201.30  1203.99  1205.95
eigval :     1215.25  1219.92  1223.95  1228.14  1229.54  1237.57
eigval :     1242.93  1249.37  1258.08  1259.63  1264.93  1266.02
eigval :     1270.16  1275.48  1276.40  1278.91  1279.39  1296.98
eigval :     1299.70  1303.69  1306.94  1309.52  1312.04  1312.49
eigval :     1313.53  1317.23  1320.28  1321.13  1323.14  1324.08
eigval :     1324.89  1329.21  1338.39  1342.30  1345.88  1348.82
eigval :     1357.27  1368.37  1377.21  1384.09  1386.47  1389.41
eigval :     1397.38  1400.35  1405.61  1409.29  1410.21  1416.47
eigval :     1417.07  1422.33  1433.30  1433.72  1433.73  1437.20
eigval :     1440.18  1440.79  1447.20  1465.38  1466.50  1467.09
eigval :     1468.42  1469.69  1470.84  1473.33  1484.15  1488.90
eigval :     1490.04  1502.21  1510.68  1517.42  1518.06  1519.64
eigval :     1525.25  1528.92  1537.02  1539.53  1550.24  1555.93
eigval :     1559.93  1569.65  1573.30  1574.32  1575.57  1578.20
eigval :     1578.40  1587.23  1587.92  1589.77  1593.36  1595.30
eigval :     1597.37  1611.17  3061.01  3061.54  3064.16  3065.87
eigval :     3066.58  3066.80  3068.75  3068.83  3071.80  3072.23
eigval :     3072.49  3073.00  3073.33  3073.86  3074.16  3074.22
eigval :     3074.35  3074.47  3074.62  3074.88  3075.00  3075.07
eigval :     3075.53  3076.19  3077.92  3078.24  3081.85  3082.90
eigval :     3083.86  3083.94  3084.73  3085.10  3085.49  3085.58
eigval :     3086.02  3086.47  3086.71  3086.98  3087.38  3087.58
eigval :     3088.28  3088.35  3091.08  3092.38  3092.60  3093.61
eigval :     3093.83  3094.01  3095.55  3095.89  3096.14  3097.21

   temp. (K)  partition function   enthalpy   heat capacity  entropy
                                   cal/mol     cal/K/mol   cal/K/mol   J/K/mol
 298.15  VIB  0.210E+33            38771.873    244.565    245.157
         ROT  0.554E+09              888.752      2.981     42.991
         INT  0.117E+42            39660.626    247.546    288.148
         TR   0.325E+29             1481.254      4.968     46.681
         TOT                       41141.8797   252.5143   334.8290  1400.9246

       T/K    H(0)-H(T)+PV         H(T)/Eh          T*S/Eh         G(T)/Eh
   ------------------------------------------------------------------------
    298.15    0.655638E-01    0.109891E+01    0.159088E+00    0.939824E+00
   ------------------------------------------------------------------------

         :::::::::::::::::::::::::::::::::::::::::::::::::::::
         ::                  THERMODYNAMIC                  ::
         :::::::::::::::::::::::::::::::::::::::::::::::::::::
         :: total free energy        -202.816718809681 Eh   ::
         ::.................................................::
         :: total energy             -203.756542745959 Eh   ::
         :: zero point energy           1.033348247513 Eh   ::
         :: G(RRHO) w/o ZPVE           -0.093524311235 Eh   ::
         :: G(RRHO) contrib.            0.939823936278 Eh   ::
         :::::::::::::::::::::::::::::::::::::::::::::::::::::

           -------------------------------------------------
          | TOTAL ENERGY             -203.756542745959 Eh   |
          | TOTAL ENTHALPY           -202.657630739863 Eh   |
          | TOTAL FREE ENERGY        -202.816718809681 Eh   |
          | GRADIENT NORM               0.000058788269 Eh/α |
          | HOMO-LUMO GAP               0.231217393575 eV   |
           -------------------------------------------------

 * finished run on 2025/09/12 at 07:56:27.959
