   * xtb version 6.7.1 (edcfbbe) compiled by 'albert@albert-system' on 2024-07-22

   ID    Z sym.   atoms
    1    6 C      1-4, 6-43, 45-82
    2    7 N      5, 44
    3    1 H      83-134

          program call               : xtb data2507/toluene/TPA–DAP–TPA/TPA–DAP–TPA_toluene_S0_crest.xyz --gfn 2 --gbsa toluene --ohess vtight --parallel 40 --molden --ceasefiles --namespace data2507/toluene/TPA–DAP–TPA/TPA–DAP–TPA_toluene_S0_finalOpt
      * Solvation model:               GBSA
        Solvent                        toluene
        Solvent mass                       9.2140E+01 g/mol
          :  Hamiltonian                  GFN2-xTB          :
 * total energy  :  -203.8197124 Eh     change       -0.4144340E-08 Eh
 * total energy  :  -203.8197672 Eh     change       -0.5476855E-04 Eh
 * total energy  :  -203.8198046 Eh     change       -0.3739364E-04 Eh
 * total energy  :  -203.8198250 Eh     change       -0.2045249E-04 Eh
 * total energy  :  -203.8198448 Eh     change       -0.1978289E-04 Eh
 * total energy  :  -203.8198494 Eh     change       -0.4578363E-05 Eh
 * total energy  :  -203.8198573 Eh     change       -0.7915572E-05 Eh
 * total energy  :  -203.8198652 Eh     change       -0.7837220E-05 Eh
 * total energy  :  -203.8198725 Eh     change       -0.7371414E-05 Eh
 * total energy  :  -203.8198796 Eh     change       -0.7086551E-05 Eh
 * total energy  :  -203.8200881 Eh     change       -0.6451953E-06 Eh
 * total energy  :  -203.8200886 Eh     change       -0.5486063E-06 Eh
 * total energy  :  -203.8200891 Eh     change       -0.4778158E-06 Eh
 * total energy  :  -203.8200896 Eh     change       -0.4595412E-06 Eh
 * total energy  :  -203.8200900 Eh     change       -0.4629487E-06 Eh
 * total energy  :  -203.8200905 Eh     change       -0.4873608E-06 Eh
 * total energy  :  -203.8200910 Eh     change       -0.4711190E-06 Eh
 * total energy  :  -203.8200915 Eh     change       -0.5345068E-06 Eh
 * total energy  :  -203.8200915 Eh     change       -0.6097792E-08 Eh
   *** GEOMETRY OPTIMIZATION CONVERGED AFTER 68 ITERATIONS ***

 final structure:
================
134
 xtb: 6.7.1 (edcfbbe)
C          -14.62830603987175        3.35132906411871       -1.54782182166393
C          -15.03072996662730        2.10774503008955       -2.00792164628975
C          -14.37722761239420        0.96257164673273       -1.59493333967450
C          -13.31009087103651        1.04530580931220       -0.70009866950200
N          -12.64867429756709       -0.11220269172773       -0.27285120496137
C          -13.37031920691682       -1.28959576111806       -0.04101718550949
C          -14.64602576896800       -1.24069566847373        0.52141890939787
C          -15.35417436160264       -2.40586417734728        0.74466711015345
C          -14.80335377109103       -3.63574422323242        0.42190084321892
C          -13.53432213986213       -3.69067281004042       -0.13175085641136
C          -12.82228743250546       -2.53040288104428       -0.36739483078642
C          -11.26494818432933       -0.08944240625950       -0.06368331177027
C          -10.69559809963126       -0.79256843576463        0.99853926757016
C           -9.33071899477750       -0.76931377208579        1.20050694309636
C           -8.49645817244631       -0.03432903215550        0.36220147814417
C           -7.03677251287747       -0.00166637716466        0.59220741685215
C           -6.26670457650928       -1.15108105615539        0.35969260745082
C           -6.84361525414072       -2.35252972277304       -0.13070851107991
C           -6.08791588414391       -3.46427832635329       -0.34382298856535
C           -4.70348216984415       -3.44549690291889       -0.07888228733374
C           -4.10787308348412       -2.30960503520394        0.37574620462675
C           -4.85733101165234       -1.12407210871267        0.59833412434577
C           -4.24780892042820        0.05792659443661        1.04202926011340
C           -2.79142249836685        0.08110690677490        1.30836453159982
C           -2.34104201158180        0.00458769783487        2.62193066273910
C           -0.99245530021068        0.00463710417151        2.91685726605683
C           -0.03988938284998        0.08024400944915        1.89909468454230
C            1.36010819864138        0.07863264362375        2.16660858268516
C            2.26797388606608        0.14212156045824        1.16568600720725
C            1.85988948808479        0.21344339733777       -0.19989823449229
C            2.78751964216006        0.26589843775568       -1.25310202095963
C            4.24420213284723        0.20645332529816       -0.99383732013817
C            5.01336167190199        1.37574832323944       -1.05947368824106
C            4.42017038615980        2.64022732046679       -1.31640724870151
C            5.17568576231681        3.76825723798671       -1.40724440712906
C            6.57548360685312        3.69828387901087       -1.25517701578552
C            7.17998036773040        2.50812812397825       -0.98906962202496
C            6.42768864671054        1.31048969756516       -0.85931022240359
C            7.03537313545185        0.07981429114589       -0.56717194164575
C            8.49620383518685        0.00899374853497       -0.36025007084790
C            9.30717663534585       -0.66691571551623       -1.26896373201911
C           10.67349776792861       -0.73167103893436       -1.08816398001961
C           11.26888174381198       -0.12845108862398        0.02017828960881
N           12.65416427871957       -0.19632661534221        0.20916029527341
C           13.34525510214094        0.91316396826182        0.71020031558058
C           12.97243283464553        2.20531675663463        0.33882055765929
C           13.65471763178213        3.29823226383860        0.83755393292648
C           14.72173278979197        3.12452127680828        1.70431984869208
C           15.09870855678331        1.84327303067454        2.07382829771739
C           14.41623781748455        0.74450485860806        1.58817591691285
C           13.34527334142816       -1.37105165110376       -0.11069120614541
C           14.61983487607165       -1.31357802491476       -0.67497733995896
C           15.29940884115985       -2.47679872614194       -0.98150236552768
C           14.72062811781303       -3.71280160752012       -0.74173809740526
C           13.45202466833932       -3.77590215970256       -0.18803416052829
C           12.76838159959400       -2.61834321392106        0.13037257004261
C           10.45872854682452        0.54330927608100        0.93621508270906
C            9.09417903718037        0.61437360067835        0.74228827934041
C            6.26076392937445       -1.08743665161246       -0.48056236444347
C            6.83187816679569       -2.34369374166747       -0.14515020872847
C            6.07307048739266       -3.47194478407064       -0.08197613177005
C            4.69073298310323       -3.41630669928653       -0.35192837476273
C            4.09945457516351       -2.22883746632066       -0.65506125632969
C            4.85147752924312       -1.02559022496858       -0.71326372881260
C            2.33663592207094        0.36103366281772       -2.56533544788539
C            0.98800020893570        0.39381837772236       -2.85787325258775
C            0.03561851318854        0.32812676061864       -1.83931977052994
C           -1.36443983748603        0.35130093759303       -2.10546302542674
C           -2.27224553560312        0.27663380342537       -1.10527123489586
C           -1.86366209429767        0.17108241529139        0.25786461188748
C           -0.47734489224577        0.16467076840373        0.55404805290406
C            0.47341665940570        0.23770256927560       -0.49477384619484
C           -5.01391348616687        1.21076466835641        1.26013117330644
C           -4.41979331925756        2.42849266229976        1.68567878907321
C           -5.17287380972158        3.53839267052956        1.91508894337957
C           -6.57090089006753        3.49653027078471        1.73821476992719
C           -7.17656963920157        2.35315677169995        1.31596983943722
C           -6.42682390537053        1.17829577968789        1.04309556080262
C           -9.06761411201340        0.66947947912871       -0.69492864741279
C          -10.43003336353621        0.63808996816019       -0.91253690755343
C          -12.91208348576404        2.29981984777941       -0.23697598572502
C          -13.56508615794575        3.44006720351829       -0.66371102648221
H          -15.13932649359434        4.24424041207987       -1.87545451611833
H          -15.85495738375818        2.02857804116139       -2.70196466996865
H          -14.68754248413337       -0.00437215202132       -1.96378653361923
H          -15.07459672942092       -0.28430557239447        0.78400905001113
H          -16.34059180104950       -2.35277107516574        1.18236478325427
H          -15.35849051550352       -4.54432277399543        0.60101291401243
H          -13.09810646227898       -4.64451548293919       -0.39124393994271
H          -11.83712677308602       -2.57652664571169       -0.80861209666936
H          -11.33208917571929       -1.35464761731935        1.66641085569272
H           -8.90177793996066       -1.31357046477915        2.02981176963437
H           -7.90347347051748       -2.36667528446621       -0.33743463857653
H           -6.54254486747968       -4.37007922799542       -0.71849984758232
H           -4.11976262621056       -4.33929421379855       -0.24564946017468
H           -3.04586302662722       -2.29168944108048        0.57218192932524
H           -3.06794077901758       -0.06061116416598        3.41974983345603
H           -0.66395746729922       -0.05737563042822        3.94467584476542
H            1.68072199568586        0.02459703729845        3.19767113013079
H            3.32650742878628        0.14024675485657        1.38197860530902
H            3.34783380213060        2.68832034183017       -1.43833510769309
H            4.71070500311707        4.72376259217019       -1.60296013428912
H            7.16359504336807        4.59972451889109       -1.35060787870732
H            8.25258300206591        2.45725136925303       -0.87523588734151
H            8.85850561408399       -1.13104810044691       -2.13572880541103
H           11.29118754537902       -1.24908908037436       -1.80784149123391
H           12.14871679532296        2.34403997980605       -0.34637018085857
H           13.35635320609079        4.29287900696844        0.53905584712060
H           15.25559809448486        3.98073459849284        2.08848488626488
H           15.92541377258553        1.69750731897538        2.75398938024427
H           14.70649090969141       -0.25248668947922        1.88662239535633
H           15.07059943564380       -0.35175140421635       -0.87229734288496
H           16.28545503286261       -2.41653415087055       -1.41910094491503
H           15.25379812416443       -4.61963727834349       -0.98498072532086
H           12.99385615501596       -4.73482493156539        0.00689725590705
H           11.78358150056557       -2.67216083269930        0.57144317569025
H           10.90758454952388        1.00727525942299        1.80253629078853
H            8.47650159646751        1.13125538428575        1.46293088955149
H            7.89008776481564       -2.38824360235479        0.06537101392008
H            6.52422527630416       -4.41931352940709        0.17594736915283
H            4.10531391215993       -4.32346853765835       -0.30989481154859
H            3.03878206343739       -2.18270035148789       -0.85408993723351
H            3.06326721200764        0.40316039573619       -3.36490460489944
H            0.65927974234511        0.46552135206600       -3.88498775459255
H           -1.68504745168483        0.43035402640345       -3.13490290901371
H           -3.33085450890568        0.29583124039047       -1.32027804377297
H           -3.34891611976114        2.45590055795967        1.82517002357930
H           -4.70691684787474        4.45824230994642        2.23804618623479
H           -7.15655582068808        4.38159292676883        1.94131155663452
H           -8.24783030598414        2.32186311880343        1.18321081281004
H           -8.43078140646860        1.23412038207310       -1.36096920307451
H          -10.85811326106530        1.17864022240007       -1.74420272618545
H          -12.09134767800085        2.37208833212786        0.46188480001054
H          -13.24683704634551        4.40447862841565       -0.29484206518407

          :  Hamiltonian                  GFN2-xTB          :
         :: gradient norm              0.000059448110 Eh/a0 ::
         :: HOMO-LUMO gap              1.836014936213 eV    ::
         :: SCC energy              -207.771317940884 Eh    ::
         :: -> dispersion             -0.205034175077 Eh    ::
         :: -> Gsolv                  -0.080544873253 Eh    ::
         :: repulsion energy           3.951226399498 Eh    ::

    * Orbital Energies and Occupations

         #    Occupation            Energy/Eh            Energy/eV
      -------------------------------------------------------------
         1        2.0000           -0.6644007             -18.0793
       ...           ...                  ...                  ...
       179        2.0000           -0.4035915             -10.9823
       180        2.0000           -0.4017773             -10.9329
       181        2.0000           -0.4006805             -10.9031
       182        2.0000           -0.3999420             -10.8830
       183        2.0000           -0.3981103             -10.8331
       184        2.0000           -0.3980331             -10.8310
       185        2.0000           -0.3963276             -10.7846
       186        2.0000           -0.3907727             -10.6335
       187        2.0000           -0.3638925              -9.9020
       188        2.0000           -0.3586487              -9.7593
       189        2.0000           -0.3574343              -9.7263
       190        2.0000           -0.3481720              -9.4742
       191        2.0000           -0.3480198              -9.4701 (HOMO)
       192                         -0.2805475              -7.6341 (LUMO)
       193                         -0.2784967              -7.5783
       194                         -0.2734535              -7.4410
       195                         -0.2419868              -6.5848
       196                         -0.2309358              -6.2841
       197                         -0.2308644              -6.2821
       198                         -0.2302757              -6.2661
       199                         -0.2302086              -6.2643
       200                         -0.2300973              -6.2613
       201                         -0.2300513              -6.2600
       202                         -0.2274228              -6.1885
       ...                                ...                  ...
       380                          0.7301500              19.8684
      -------------------------------------------------------------
                  HL-Gap            0.0674723 Eh            1.8360 eV

     #   Z          covCN         q      C6AA      α(0)
     1   6 C        2.919    -0.040    28.986     8.829
     2   6 C        2.919    -0.030    28.757     8.794
     3   6 C        2.922    -0.048    29.200     8.861
     4   6 C        2.923     0.066    26.528     8.446
     5   7 N        2.752    -0.080    22.804     7.092
     6   6 C        2.923     0.066    26.528     8.446
     7   6 C        2.922    -0.048    29.196     8.861
     8   6 C        2.919    -0.030    28.757     8.794
     9   6 C        2.919    -0.040    28.983     8.828
    10   6 C        2.919    -0.030    28.757     8.794
    11   6 C        2.922    -0.048    29.192     8.860
    12   6 C        2.923     0.064    26.568     8.453
    13   6 C        2.921    -0.049    29.209     8.863
    14   6 C        2.923    -0.033    28.815     8.803
    15   6 C        2.976     0.007    27.864     8.659
    16   6 C        2.976    -0.006    28.165     8.705
    17   6 C        2.983     0.005    27.912     8.666
    18   6 C        2.917    -0.035    28.871     8.811
    19   6 C        2.914    -0.031    28.778     8.797
    20   6 C        2.914    -0.031    28.774     8.796
    21   6 C        2.917    -0.034    28.841     8.807
    22   6 C        2.984     0.006    27.886     8.662
    23   6 C        2.978    -0.004    28.128     8.700
    24   6 C        2.977     0.008    27.843     8.655
    25   6 C        2.919    -0.034    28.845     8.807
    26   6 C        2.918    -0.039    28.963     8.825
    27   6 C        2.982     0.008    27.835     8.654
    28   6 C        2.913    -0.037    28.924     8.819
    29   6 C        2.912    -0.034    28.848     8.807
    30   6 C        2.984     0.006    27.875     8.661
    31   6 C        2.976     0.008    27.842     8.655
    32   6 C        2.978    -0.004    28.129     8.700
    33   6 C        2.984     0.005    27.898     8.664
    34   6 C        2.917    -0.034    28.854     8.809
    35   6 C        2.914    -0.031    28.777     8.797
    36   6 C        2.914    -0.031    28.781     8.797
    37   6 C        2.917    -0.035    28.876     8.812
    38   6 C        2.983     0.005    27.909     8.666
    39   6 C        2.976    -0.006    28.168     8.706
    40   6 C        2.976     0.007    27.864     8.659
    41   6 C        2.923    -0.033    28.813     8.803
    42   6 C        2.920    -0.049    29.206     8.862
    43   6 C        2.924     0.064    26.566     8.452
    44   7 N        2.752    -0.080    22.805     7.092
    45   6 C        2.923     0.066    26.528     8.446
    46   6 C        2.922    -0.048    29.197     8.861
    47   6 C        2.919    -0.030    28.757     8.794
    48   6 C        2.919    -0.040    28.985     8.829
    49   6 C        2.919    -0.030    28.757     8.794
    50   6 C        2.922    -0.048    29.199     8.861
    51   6 C        2.923     0.066    26.528     8.446
    52   6 C        2.922    -0.048    29.199     8.861
    53   6 C        2.919    -0.030    28.757     8.794
    54   6 C        2.919    -0.040    28.985     8.829
    55   6 C        2.919    -0.030    28.758     8.794
    56   6 C        2.922    -0.048    29.196     8.861
    57   6 C        2.920    -0.049    29.207     8.862
    58   6 C        2.923    -0.033    28.815     8.803
    59   6 C        2.983     0.005    27.913     8.666
    60   6 C        2.917    -0.035    28.875     8.812
    61   6 C        2.914    -0.031    28.780     8.797
    62   6 C        2.914    -0.031    28.775     8.796
    63   6 C        2.917    -0.034    28.843     8.807
    64   6 C        2.984     0.006    27.886     8.662
    65   6 C        2.919    -0.034    28.845     8.807
    66   6 C        2.918    -0.039    28.963     8.825
    67   6 C        2.982     0.008    27.835     8.654
    68   6 C        2.913    -0.037    28.924     8.819
    69   6 C        2.913    -0.034    28.849     8.807
    70   6 C        2.984     0.006    27.875     8.661
    71   6 C        2.995     0.001    27.993     8.679
    72   6 C        2.995     0.001    27.993     8.679
    73   6 C        2.984     0.005    27.897     8.664
    74   6 C        2.917    -0.034    28.854     8.808
    75   6 C        2.914    -0.031    28.776     8.796
    76   6 C        2.914    -0.031    28.779     8.797
    77   6 C        2.917    -0.035    28.871     8.811
    78   6 C        2.983     0.005    27.909     8.666
    79   6 C        2.923    -0.033    28.816     8.803
    80   6 C        2.921    -0.049    29.208     8.863
    81   6 C        2.922    -0.048    29.197     8.861
    82   6 C        2.919    -0.030    28.758     8.794
    83   1 H        0.926     0.031     2.568     2.506
    84   1 H        0.926     0.033     2.548     2.496
    85   1 H        0.926     0.031     2.573     2.508
    86   1 H        0.926     0.031     2.572     2.508
    87   1 H        0.926     0.033     2.547     2.496
    88   1 H        0.926     0.031     2.566     2.505
    89   1 H        0.926     0.033     2.545     2.495
    90   1 H        0.926     0.031     2.578     2.511
    91   1 H        0.926     0.032     2.555     2.500
    92   1 H        0.926     0.033     2.548     2.496
    93   1 H        0.926     0.031     2.569     2.507
    94   1 H        0.926     0.030     2.592     2.518
    95   1 H        0.926     0.029     2.600     2.521
    96   1 H        0.926     0.029     2.604     2.524
    97   1 H        0.925     0.029     2.595     2.519
    98   1 H        0.926     0.033     2.548     2.496
    99   1 H        0.926     0.031     2.570     2.507
   100   1 H        0.926     0.029     2.594     2.519
   101   1 H        0.926     0.030     2.593     2.518
   102   1 H        0.926     0.029     2.597     2.520
   103   1 H        0.926     0.029     2.594     2.518
   104   1 H        0.926     0.032     2.564     2.504
   105   1 H        0.926     0.033     2.543     2.494
   106   1 H        0.926     0.032     2.554     2.499
   107   1 H        0.926     0.030     2.582     2.513
   108   1 H        0.926     0.033     2.546     2.495
   109   1 H        0.926     0.031     2.567     2.506
   110   1 H        0.926     0.033     2.548     2.496
   111   1 H        0.926     0.031     2.572     2.508
   112   1 H        0.926     0.031     2.573     2.508
   113   1 H        0.926     0.033     2.548     2.496
   114   1 H        0.926     0.031     2.568     2.506
   115   1 H        0.926     0.033     2.546     2.495
   116   1 H        0.926     0.030     2.581     2.512
   117   1 H        0.926     0.032     2.553     2.499
   118   1 H        0.926     0.033     2.540     2.492
   119   1 H        0.926     0.032     2.565     2.504
   120   1 H        0.926     0.030     2.593     2.518
   121   1 H        0.926     0.029     2.601     2.522
   122   1 H        0.926     0.029     2.606     2.525
   123   1 H        0.925     0.029     2.596     2.520
   124   1 H        0.926     0.033     2.549     2.496
   125   1 H        0.926     0.031     2.571     2.507
   126   1 H        0.926     0.029     2.594     2.518
   127   1 H        0.926     0.030     2.592     2.518
   128   1 H        0.926     0.029     2.596     2.520
   129   1 H        0.926     0.030     2.593     2.518
   130   1 H        0.926     0.031     2.571     2.507
   131   1 H        0.926     0.033     2.548     2.496
   132   1 H        0.926     0.032     2.553     2.499
   133   1 H        0.926     0.030     2.581     2.512
   134   1 H        0.926     0.033     2.547     2.496

molecular dipole:
                 x           y           z       tot (Debye)
 q only:        0.004      -0.010       0.001
   full:        0.002      -0.017      -0.001       0.044

 projected vibrational frequencies (cm⁻¹)
eigval :       -0.00    -0.00    -0.00     0.00     0.00     0.00
eigval :        4.94     5.20     8.91    10.28    11.41    14.06
eigval :       18.23    18.99    21.36    33.37    35.41    38.76
eigval :       43.44    47.52    49.36    51.43    58.12    59.84
eigval :       67.85    70.63    72.49    72.97    77.61    79.91
eigval :       81.62    97.73    99.23   105.64   110.23   112.74
eigval :      116.42   138.60   145.73   150.93   155.80   174.14
eigval :      181.63   183.44   184.80   187.95   200.22   206.63
eigval :      213.01   215.76   232.28   233.38   234.40   237.34
eigval :      239.51   270.31   286.84   291.09   316.47   316.90
eigval :      319.79   320.17   337.28   350.55   351.78   363.58
eigval :      374.82   377.02   378.47   379.29   380.47   386.97
eigval :      387.61   388.00   390.22   393.33   395.01   397.94
eigval :      406.32   407.26   410.86   411.52   414.88   418.73
eigval :      430.86   447.34   448.97   458.83   458.93   463.22
eigval :      475.86   477.60   484.47   485.98   487.41   488.20
eigval :      494.73   499.59   502.32   508.67   519.05   528.28
eigval :      556.93   562.94   579.13   579.96   582.54   584.33
eigval :      584.85   585.39   587.51   588.75   592.06   595.74
eigval :      596.52   604.59   605.13   606.59   614.23   628.32
eigval :      640.21   648.06   650.87   652.54   653.00   653.53
eigval :      659.64   660.09   665.04   666.43   678.52   682.59
eigval :      688.43   693.40   693.48   693.73   694.02   701.78
eigval :      724.19   733.78   738.05   741.61   744.45   755.81
eigval :      757.09   759.66   759.86   761.31   773.40   773.48
eigval :      774.55   777.60   798.87   804.44   811.08   813.64
eigval :      815.49   821.75   843.22   849.85   868.72   870.44
eigval :      873.15   873.33   873.63   874.68   875.43   877.01
eigval :      877.13   877.95   889.15   889.73   891.03   891.52
eigval :      896.43   896.54   896.76   897.16   909.39   909.45
eigval :      913.13   913.61   914.34   914.51   915.11   917.27
eigval :      918.11   919.42   919.73   920.21   922.43   925.29
eigval :      925.98   926.71   926.92   927.15   927.62   928.33
eigval :      928.99   929.44   929.90   931.08   931.40   931.70
eigval :      932.27   933.21   935.26   941.98   942.54   986.39
eigval :      986.88   994.84  1003.70  1003.93  1016.40  1025.61
eigval :     1030.72  1077.83  1078.22  1080.04  1080.41  1081.89
eigval :     1082.07  1083.00  1083.58  1108.67  1109.38  1120.28
eigval :     1120.91  1122.61  1124.05  1133.81  1133.85  1136.33
eigval :     1137.93  1152.25  1155.88  1163.12  1177.98  1178.14
eigval :     1178.55  1178.89  1179.08  1179.55  1180.48  1181.41
eigval :     1182.69  1185.25  1185.68  1192.09  1193.18  1194.53
eigval :     1195.03  1195.90  1199.73  1206.09  1206.77  1219.35
eigval :     1221.14  1225.64  1225.80  1225.93  1226.12  1245.42
eigval :     1254.46  1257.91  1260.32  1260.75  1266.23  1268.87
eigval :     1269.41  1276.86  1277.44  1279.89  1280.52  1301.80
eigval :     1307.30  1307.50  1307.72  1312.72  1313.74  1314.06
eigval :     1314.24  1321.20  1321.28  1324.81  1324.94  1328.64
eigval :     1328.98  1348.37  1348.44  1352.63  1369.10  1377.65
eigval :     1380.35  1383.47  1384.00  1385.91  1405.49  1405.70
eigval :     1407.20  1415.12  1418.32  1422.67  1427.62  1427.76
eigval :     1433.87  1434.21  1440.61  1440.97  1444.43  1444.87
eigval :     1450.54  1470.42  1470.50  1473.24  1473.41  1474.47
eigval :     1475.31  1493.50  1494.19  1497.79  1501.64  1524.63
eigval :     1524.78  1526.63  1527.53  1531.69  1540.88  1541.26
eigval :     1554.07  1554.16  1561.93  1563.05  1575.26  1575.40
eigval :     1579.23  1579.38  1591.60  1591.66  1592.14  1592.49
eigval :     1599.75  1599.89  1603.57  1605.96  1607.27  1607.33
eigval :     1621.46  1621.48  3064.35  3064.81  3066.08  3066.56
eigval :     3066.77  3066.85  3067.30  3067.42  3070.08  3071.00
eigval :     3071.06  3071.17  3071.31  3071.70  3071.85  3072.26
eigval :     3072.56  3072.82  3073.10  3073.77  3073.85  3074.16
eigval :     3074.22  3074.84  3076.71  3077.42  3080.91  3081.22
eigval :     3081.31  3081.60  3081.77  3082.65  3083.44  3083.58
eigval :     3083.75  3084.34  3084.49  3084.84  3084.98  3085.10
eigval :     3085.76  3086.54  3086.89  3087.30  3089.59  3089.76
eigval :     3091.41  3092.08  3093.09  3093.30  3094.06  3094.23

   temp. (K)  partition function   enthalpy   heat capacity  entropy
                                   cal/mol     cal/K/mol   cal/K/mol   J/K/mol
 298.15  VIB  0.329E+33            38751.198    243.242    245.481
         ROT  0.553E+09              888.752      2.981     42.984
         INT  0.182E+42            39639.950    246.223    288.465
         TR   0.325E+29             1481.254      4.968     46.681
         TOT                       41121.2038   251.1911   335.1459  1402.2506

       T/K    H(0)-H(T)+PV         H(T)/Eh          T*S/Eh         G(T)/Eh
   ------------------------------------------------------------------------
    298.15    0.655308E-01    0.110212E+01    0.159239E+00    0.942877E+00
   ------------------------------------------------------------------------

         :::::::::::::::::::::::::::::::::::::::::::::::::::::
         ::                  THERMODYNAMIC                  ::
         :::::::::::::::::::::::::::::::::::::::::::::::::::::
         :: total free energy        -202.877214565695 Eh   ::
         ::.................................................::
         :: total energy             -203.820091532158 Eh   ::
         :: zero point energy           1.036584809324 Eh   ::
         :: G(RRHO) w/o ZPVE           -0.093707842861 Eh   ::
         :: G(RRHO) contrib.            0.942876966463 Eh   ::
         :::::::::::::::::::::::::::::::::::::::::::::::::::::

           -------------------------------------------------
          | TOTAL ENERGY             -203.820091532158 Eh   |
          | TOTAL ENTHALPY           -202.717975913388 Eh   |
          | TOTAL FREE ENERGY        -202.877214565695 Eh   |
          | GRADIENT NORM               0.000059438959 Eh/α |
          | HOMO-LUMO GAP               1.836014976368 eV   |
           -------------------------------------------------

 * finished run on 2025/09/12 at 07:24:20.264
