   * xtb version 6.7.1 (edcfbbe) compiled by 'albert@albert-system' on 2024-07-22

   ID    Z sym.   atoms
    1    7 N      1, 7, 16
    2    6 C      2-6, 8-12, 14, 15, 17-32
    3   35 Br     13
    4    1 H      33-48

          program call               : xtb data2507/gas/PICNAnCz/PICNAnCz_gas_S0_finalOpt.xtbopt.xyz --gfn 2 --spinpol --tblite --uhf 2 --ohess vtight --parallel 40 --molden --ceasefiles --namespace data2507/gas/PICNAnCz/PICNAnCz_gas_T1_preOpt
 * total energy  :   -80.8807498 Eh     change       -0.2858044E-08 Eh
 * total energy  :   -80.8871022 Eh     change       -0.6352413E-02 Eh
 * total energy  :   -80.8896056 Eh     change       -0.2503443E-02 Eh
 * total energy  :   -80.8899100 Eh     change       -0.3043199E-03 Eh
 * total energy  :   -80.8905428 Eh     change       -0.6328415E-03 Eh
 * total energy  :   -80.8909662 Eh     change       -0.4233644E-03 Eh
 * total energy  :   -80.8913534 Eh     change       -0.3872463E-03 Eh
 * total energy  :   -80.8915222 Eh     change       -0.1687821E-03 Eh
 * total energy  :   -80.8916903 Eh     change       -0.1681298E-03 Eh
 * total energy  :   -80.8918226 Eh     change       -0.1322517E-03 Eh
 * total energy  :   -80.8920702 Eh     change       -0.3302625E-05 Eh
 * total energy  :   -80.8920724 Eh     change       -0.2199767E-05 Eh
 * total energy  :   -80.8920713 Eh     change        0.1052766E-05 Eh
 * total energy  :   -80.8920735 Eh     change       -0.2142496E-05 Eh
 * total energy  :   -80.8920739 Eh     change       -0.4253467E-06 Eh
 * total energy  :   -80.8920743 Eh     change       -0.4055014E-06 Eh
 * total energy  :   -80.8920748 Eh     change       -0.5173381E-06 Eh
 * total energy  :   -80.8920750 Eh     change       -0.1480350E-06 Eh
 * total energy  :   -80.8920750 Eh     change       -0.5779383E-07 Eh
   *** GEOMETRY OPTIMIZATION CONVERGED AFTER 29 ITERATIONS ***

 final structure:
================
48
 xtb: 6.7.1 (edcfbbe)
N            1.86966552222259       -6.58204054448881       -0.09113519263327
C            1.42021840646096       -5.52506494973497       -0.06869737809655
C            0.86599567456613       -4.23169057236352       -0.04304590185146
C            1.19908191839721       -3.34145200472915        0.98657649108388
C            0.65928472785593       -2.07761741976477        1.00790403353600
C           -0.23651501149703       -1.67665730541600        0.00646721202737
N           -0.76935834637477       -0.39061700851737        0.02773600935731
C           -0.01292229738746        0.80775974157968        0.12399485556642
C            1.37600301978207        0.96416924613095        0.03240390043586
C            2.29182811240350       -0.01750957021065       -0.44410170311742
C            3.63478092650441        0.24238529373254       -0.49447559309624
C            4.12496580132818        1.48195645915371       -0.07928627121628
Br           5.98947001489195        1.81679718416184       -0.12779421286787
C            3.25067809906715        2.48781288849797        0.34900812293867
C            1.90973600683684        2.23903661900642        0.39286858209682
N           -0.83665373791498        1.87838299636845        0.21331754613352
C           -2.06663109318918        1.42828355215955        0.09616067678360
C           -3.26913747835956        2.19151052153106        0.03642945042558
C           -3.22507820142339        3.58718708047483        0.03607617629517
C           -4.38745147652322        4.32026469717114       -0.08096737371852
C           -5.59707979186788        3.65310522547078       -0.21069260757488
C           -5.64999077588927        2.27029894245766       -0.20179658783051
C           -4.49498310565257        1.49516479529114       -0.06416981530567
C           -4.51936888482522        0.03915219064270        0.00617103497336
C           -5.71984459909234       -0.66283542488926        0.05801751812735
C           -5.76750975327767       -2.04019411149286        0.18013543887145
C           -4.58489749786665       -2.77018216786386        0.28654506604815
C           -3.37852234905774       -2.12529672782315        0.23116890058894
C           -3.29861200171593       -0.71977184757943        0.06491828407290
C           -2.09203223517831       -0.01124640543642        0.00676853898631
C           -0.56841249637498       -2.56727758210045       -1.02405953426716
C           -0.02185733863653       -3.82796824588010       -1.05063365128613
H            1.87790186579788       -3.65866755544431        1.76386020985261
H            0.91037504002850       -1.38647166483607        1.79842837745700
H            1.93106638204000       -0.95827738146735       -0.82364058824000
H            4.31897992708279       -0.50558226543680       -0.86563672251375
H            3.64435587487776        3.44884978616249        0.64241918684109
H            1.21522313452564        2.99491615211518        0.72046376405407
H           -2.26057928034365        4.06277299610522        0.11984317582744
H           -4.35723296266653        5.39902257903745       -0.08087312199501
H           -6.51268460010449        4.21587946366079       -0.31867878874387
H           -6.61451409938055        1.80107846248365       -0.31046573776923
H           -6.65588510246751       -0.12959021034092        0.01831401351048
H           -6.72088866913536       -2.54458275820617        0.21332943427718
H           -4.61938471510946       -3.84098683620734        0.41890771455756
H           -2.47076692139367       -2.69359184560485        0.34470191924733
H           -1.24484528131631       -2.24598604532114       -1.80259848342037
H           -0.26439314744459       -4.51185872678104       -1.85021352763485

 projected vibrational frequencies (cm⁻¹)
eigval :       -0.00    -0.00    -0.00     0.00     0.00     0.00
eigval :       16.29    20.60    28.52    44.34    49.80    53.06
eigval :       73.54    88.57   114.40   119.71   121.41   146.35
eigval :      157.92   176.64   182.92   201.39   227.19   248.61
eigval :      262.36   264.59   284.73   313.27   354.48   367.96
eigval :      374.54   385.07   393.23   397.88   409.96   419.01
eigval :      424.58   437.36   469.41   481.67   512.97   521.57
eigval :      530.54   537.51   570.88   579.58   581.22   592.84
eigval :      613.62   635.27   644.39   653.97   661.41   664.25
eigval :      666.64   677.94   721.78   726.33   749.76   771.74
eigval :      774.68   786.75   796.10   814.27   822.56   844.93
eigval :      860.77   864.15   894.08   900.78   908.51   909.46
eigval :      910.94   912.87   914.90   922.47   924.24   932.77
eigval :      955.92   985.41   999.81  1038.03  1062.98  1078.11
eigval :     1086.75  1102.24  1128.84  1131.68  1132.77  1149.51
eigval :     1171.04  1177.33  1178.32  1182.74  1193.68  1200.44
eigval :     1233.82  1243.27  1246.87  1253.85  1259.40  1282.30
eigval :     1297.85  1315.99  1320.82  1327.27  1334.12  1351.44
eigval :     1380.40  1383.76  1388.07  1406.10  1413.16  1422.01
eigval :     1431.05  1442.69  1461.26  1470.79  1479.58  1496.03
eigval :     1503.23  1534.09  1545.98  1553.65  1558.13  1571.10
eigval :     1586.72  2344.01  3081.02  3083.82  3086.12  3088.21
eigval :     3093.76  3093.81  3095.62  3096.29  3096.99  3099.49
eigval :     3102.83  3109.58  3113.17  3120.27  3127.34  3129.02

   temp. (K)  partition function   enthalpy   heat capacity  entropy
                                   cal/mol     cal/K/mol   cal/K/mol   J/K/mol
 298.15  VIB  0.459E+11            14457.220     91.697     88.868
         ROT  0.376E+08              888.752      2.981     37.642
         INT  0.172E+19            15345.972     94.678    126.510
         TR   0.100E+29             1481.254      4.968     44.338
         TOT                       16827.2262    99.6464   170.8481   714.8285

       T/K    H(0)-H(T)+PV         H(T)/Eh          T*S/Eh         G(T)/Eh
   ------------------------------------------------------------------------
    298.15    0.268159E-01    0.372716E+00    0.811754E-01    0.291540E+00
   ------------------------------------------------------------------------

         :::::::::::::::::::::::::::::::::::::::::::::::::::::
         ::                  THERMODYNAMIC                  ::
         :::::::::::::::::::::::::::::::::::::::::::::::::::::
         :: total free energy         -80.600534657668 Eh   ::
         ::.................................................::
         :: total energy              -80.892075054496 Eh   ::
         :: zero point energy           0.345899954096 Eh   ::
         :: G(RRHO) w/o ZPVE           -0.054359557268 Eh   ::
         :: G(RRHO) contrib.            0.291540396828 Eh   ::
         :::::::::::::::::::::::::::::::::::::::::::::::::::::

           -------------------------------------------------
          | TOTAL ENERGY              -80.892075054496 Eh   |
          | TOTAL ENTHALPY            -80.519359208591 Eh   |
          | TOTAL FREE ENERGY         -80.600534657668 Eh   |
          | GRADIENT NORM               0.000045348939 Eh/α |
           -------------------------------------------------

 * finished run on 2025/07/18 at 16:13:32.534
