   * xtb version 6.7.1 (edcfbbe) compiled by 'albert@albert-system' on 2024-07-22

   ID    Z sym.   atoms
    1    7 N      1, 7, 16
    2    6 C      2-6, 8-12, 14, 15, 17-32
    3   35 Br     13
    4    1 H      33-48

          program call               : xtb data2507/gas/PICNAnCz/PICNAnCz.xyz --gfn 2 --ohess vtight --parallel 40 --molden --ceasefiles --namespace data2507/gas/PICNAnCz/PICNAnCz_gas_S0_preOpt
          :  Hamiltonian                  GFN2-xTB          :
 * total energy  :   -80.9624740 Eh     change       -0.1031978E-08 Eh
 * total energy  :   -80.9713806 Eh     change       -0.8906689E-02 Eh
 * total energy  :   -80.9734574 Eh     change       -0.2076745E-02 Eh
 * total energy  :   -80.9738980 Eh     change       -0.4406330E-03 Eh
 * total energy  :   -80.9741956 Eh     change       -0.2975543E-03 Eh
 * total energy  :   -80.9744086 Eh     change       -0.2130491E-03 Eh
 * total energy  :   -80.9746729 Eh     change       -0.2642733E-03 Eh
 * total energy  :   -80.9749851 Eh     change       -0.3121747E-03 Eh
 * total energy  :   -80.9752816 Eh     change       -0.2965323E-03 Eh
 * total energy  :   -80.9755562 Eh     change       -0.2746287E-03 Eh
 * total energy  :   -80.9767191 Eh     change       -0.8264961E-06 Eh
 * total energy  :   -80.9767199 Eh     change       -0.7527163E-06 Eh
 * total energy  :   -80.9767199 Eh     change        0.1839796E-07 Eh
 * total energy  :   -80.9767204 Eh     change       -0.5098956E-06 Eh
 * total energy  :   -80.9767206 Eh     change       -0.2456322E-06 Eh
 * total energy  :   -80.9767209 Eh     change       -0.2242243E-06 Eh
 * total energy  :   -80.9767213 Eh     change       -0.4263013E-06 Eh
 * total energy  :   -80.9767216 Eh     change       -0.3157780E-06 Eh
 * total energy  :   -80.9767216 Eh     change       -0.4171240E-07 Eh
   *** GEOMETRY OPTIMIZATION CONVERGED AFTER 50 ITERATIONS ***

 final structure:
================
48
 xtb: 6.7.1 (edcfbbe)
N            4.93580036256241       -5.04101284597990       -0.25331116832361
C            4.17545896805368       -4.18501211832537       -0.20616050123839
C            3.23458572203096       -3.13013075064782       -0.15210456505464
C            3.23129133839107       -2.25365589987390        0.93378977255051
C            2.31186136925269       -1.22599399370293        0.98357422735620
C            1.39031104173692       -1.06736724050184       -0.04860468243126
N            0.48158643228064        0.00252094378961       -0.01088120253875
C            0.82752168907381        1.33988473094758       -0.02111281331321
C            2.18421934101591        1.85703451625775       -0.07582175044720
C            2.44247420525778        3.06673064941922        0.57296353569387
C            3.70434224985938        3.62329401589082        0.55415475796536
C            4.71997070685805        2.96924248174404       -0.12517155436075
Br           6.46990190275574        3.71951448460485       -0.14515962041916
C            4.48172458976399        1.78349060054334       -0.79902455916536
C            3.21478756479079        1.23234515992254       -0.77730780840347
N           -0.22402537948387        2.11737754517754        0.00624713438788
C           -1.30375591710240        1.29463105950873        0.02955549284085
C           -2.67881148713178        1.66080022953645        0.01989378427193
C           -3.07056954063194        3.00252736446647       -0.02571371297424
C           -4.40185902878187        3.33317665908962       -0.07158678842375
C           -5.35854011196426        2.32007551369526       -0.07676509132830
C           -4.98391561520024        0.99768595581237       -0.02591509303434
C           -3.63378932623196        0.61917495745632        0.03206045924663
C           -3.20552456515002       -0.76620312553289        0.12471872678598
C           -4.13074328756171       -1.81493230656046        0.22453802499271
C           -3.73769536322060       -3.12513674308143        0.36143633356568
C           -2.38555542184099       -3.44530332438619        0.42515970242380
C           -1.44662232702285       -2.44883373233934        0.32196034574692
C           -1.82547854320117       -1.10997284365450        0.14882943998179
C           -0.89586912884172       -0.03787024386893        0.03276281327777
C            1.39458329170352       -1.94131550655757       -1.13576212668141
C            2.31087941571029       -2.97045645428670       -1.18739664756705
H            3.94702682968233       -2.38640347919683        1.73087184457474
H            2.29903499891531       -0.54046248687002        1.81749177372048
H            1.63322228947829        3.55856530656129        1.08870547777124
H            3.90209221932979        4.55490258067548        1.06145297320006
H            5.27758694153089        1.29832680556275       -1.34301803273965
H            3.03213512826020        0.32663704651822       -1.33466998238275
H           -2.29719952280786        3.75472187175733       -0.03141088766398
H           -4.71001861470592        4.36737074008837       -0.10903334559318
H           -6.40735559750683        2.57530364368575       -0.12119454667066
H           -5.76006809388735        0.24922615286194       -0.03546045694029
H           -5.18684952508443       -1.60080226788565        0.20540307687161
H           -4.48020450815746       -3.90563961482872        0.43533428048714
H           -2.07451838902133       -4.47043891092361        0.56035520072148
H           -0.40063013424939       -2.70131847320800        0.39580846266223
H            0.67499988361403       -1.80475516201006       -1.92949986818489
H            2.32219794688061       -3.65154449135260       -2.02497983522073

          :  Hamiltonian                  GFN2-xTB          :
         :: gradient norm              0.000162525260 Eh/a0 ::
         :: HOMO-LUMO gap              2.194456688793 eV    ::
         :: SCC energy               -82.449611268402 Eh    ::
         :: -> dispersion             -0.069254145283 Eh    ::
         :: repulsion energy           1.472889627725 Eh    ::

    * Orbital Energies and Occupations

         #    Occupation            Energy/Eh            Energy/eV
      -------------------------------------------------------------
         1        2.0000           -0.8416849             -22.9034
       ...           ...                  ...                  ...
        63        2.0000           -0.4380474             -11.9199
        64        2.0000           -0.4362338             -11.8705
        65        2.0000           -0.4361268             -11.8676
        66        2.0000           -0.4332356             -11.7889
        67        2.0000           -0.4288287             -11.6690
        68        2.0000           -0.4258279             -11.5874
        69        2.0000           -0.4183473             -11.3838
        70        2.0000           -0.4157567             -11.3133
        71        2.0000           -0.4116893             -11.2026
        72        2.0000           -0.4056468             -11.0382
        73        2.0000           -0.3927910             -10.6884
        74        2.0000           -0.3910274             -10.6404
        75        2.0000           -0.3767870             -10.2529 (HOMO)
        76                         -0.2961423              -8.0584 (LUMO)
        77                         -0.2774619              -7.5501
        78                         -0.2683145              -7.3012
        79                         -0.2586997              -7.0396
        80                         -0.2545892              -6.9277
        81                         -0.2536227              -6.9014
        82                         -0.2222284              -6.0471
        83                         -0.2210490              -6.0151
        84                         -0.2096517              -5.7049
        85                         -0.2019701              -5.4959
        86                         -0.1982368              -5.3943
       ...                                ...                  ...
       149                          1.1577565              31.5042
      -------------------------------------------------------------
                  HL-Gap            0.0806446 Eh            2.1945 eV

     #   Z          covCN         q      C6AA      α(0)
     1   7 N        0.911    -0.220    25.800     7.346
     2   6 C        1.912     0.112    28.325     8.595
     3   6 C        2.973     0.021    27.538     8.608
     4   6 C        2.926    -0.017    28.443     8.746
     5   6 C        2.920    -0.036    28.893     8.815
     6   6 C        2.912     0.076    26.304     8.410
     7   7 N        2.841    -0.046    22.118     6.985
     8   6 C        3.189     0.126    24.802     8.124
     9   6 C        2.973     0.003    27.956     8.673
    10   6 C        2.932    -0.026    28.654     8.779
    11   6 C        2.988    -0.032    28.796     8.803
    12   6 C        2.918     0.084    26.128     8.382
    13  35 Br       1.066    -0.162   189.526    22.197
    14   6 C        2.990    -0.035    28.854     8.811
    15   6 C        2.925    -0.034    28.842     8.807
    16   7 N        1.896    -0.284    28.202     7.873
    17   6 C        3.206     0.059    26.104     8.321
    18   6 C        2.986     0.003    27.946     8.672
    19   6 C        2.922    -0.030    28.755     8.794
    20   6 C        2.917    -0.029    28.717     8.788
    21   6 C        2.918    -0.031    28.773     8.796
    22   6 C        2.922    -0.034    28.844     8.807
    23   6 C        2.979    -0.000    28.029     8.684
    24   6 C        2.980     0.004    27.937     8.670
    25   6 C        2.922    -0.033    28.811     8.802
    26   6 C        2.917    -0.031    28.780     8.797
    27   6 C        2.917    -0.031    28.762     8.795
    28   6 C        2.919    -0.039    28.981     8.828
    29   6 C        2.978    -0.002    28.076     8.692
    30   6 C        3.071     0.021    27.464     8.593
    31   6 C        2.920    -0.034    28.852     8.808
    32   6 C        2.926    -0.019    28.476     8.751
    33   1 H        0.926     0.053     2.282     2.362
    34   1 H        0.926     0.048     2.348     2.396
    35   1 H        0.926     0.066     2.128     2.281
    36   1 H        0.926     0.060     2.200     2.319
    37   1 H        0.926     0.055     2.260     2.351
    38   1 H        0.926     0.035     2.513     2.479
    39   1 H        0.926     0.052     2.300     2.371
    40   1 H        0.926     0.034     2.535     2.490
    41   1 H        0.926     0.032     2.563     2.503
    42   1 H        0.926     0.033     2.540     2.492
    43   1 H        0.926     0.038     2.479     2.462
    44   1 H        0.926     0.033     2.546     2.495
    45   1 H        0.926     0.030     2.581     2.512
    46   1 H        0.926     0.022     2.706     2.572
    47   1 H        0.926     0.052     2.292     2.368
    48   1 H        0.926     0.053     2.284     2.363

molecular dipole:
                 x           y           z       tot (Debye)
 q only:       -1.258      -0.071       0.100
   full:       -1.904      -0.344       0.099       4.924

 projected vibrational frequencies (cm⁻¹)
eigval :       -0.00     0.00     0.00     0.00     0.00     0.00
eigval :       17.83    19.82    27.26    38.35    46.80    55.17
eigval :       77.59    89.19   101.01   115.64   121.81   141.63
eigval :      153.92   176.57   193.57   204.06   235.22   254.59
eigval :      264.70   282.00   287.81   347.52   362.24   369.97
eigval :      373.33   383.04   399.31   406.91   424.46   432.36
eigval :      460.42   464.99   487.72   514.49   522.69   532.28
eigval :      534.86   547.31   577.57   585.32   597.71   611.97
eigval :      638.45   649.01   664.47   669.49   674.45   680.79
eigval :      688.53   696.84   730.67   735.48   765.75   777.41
eigval :      783.00   806.29   811.24   825.48   862.25   866.38
eigval :      868.76   875.44   908.05   912.21   915.09   915.92
eigval :      923.16   924.45   926.58   928.21   939.08   951.91
eigval :      993.31  1013.08  1028.57  1068.59  1085.81  1093.92
eigval :     1108.70  1127.09  1131.08  1135.46  1151.80  1171.92
eigval :     1180.16  1182.79  1185.98  1195.20  1206.71  1230.06
eigval :     1254.00  1257.76  1259.58  1263.29  1283.56  1304.09
eigval :     1310.01  1320.89  1325.59  1338.52  1346.48  1374.42
eigval :     1396.71  1400.32  1406.60  1420.06  1429.85  1435.05
eigval :     1446.75  1482.62  1512.83  1513.95  1541.28  1551.20
eigval :     1560.25  1566.10  1569.18  1580.59  1584.89  1594.43
eigval :     1604.79  2377.48  3076.00  3079.85  3087.17  3089.65
eigval :     3090.42  3092.76  3094.37  3099.66  3100.08  3101.45
eigval :     3103.29  3105.39  3105.99  3111.12  3113.85  3113.95

   temp. (K)  partition function   enthalpy   heat capacity  entropy
                                   cal/mol     cal/K/mol   cal/K/mol   J/K/mol
 298.15  VIB  0.414E+11            14180.685     89.625     87.403
         ROT  0.366E+08              888.752      2.981     37.590
         INT  0.151E+19            15069.437     92.606    124.993
         TR   0.100E+29             1481.254      4.968     44.338
         TOT                       16550.6912    97.5744   169.3315   708.4829

       T/K    H(0)-H(T)+PV         H(T)/Eh          T*S/Eh         G(T)/Eh
   ------------------------------------------------------------------------
    298.15    0.263752E-01    0.376357E+00    0.804548E-01    0.295902E+00
   ------------------------------------------------------------------------

         :::::::::::::::::::::::::::::::::::::::::::::::::::::
         ::                  THERMODYNAMIC                  ::
         :::::::::::::::::::::::::::::::::::::::::::::::::::::
         :: total free energy         -80.680819537238 Eh   ::
         ::.................................................::
         :: total energy              -80.976721640672 Eh   ::
         :: zero point energy           0.349981742368 Eh   ::
         :: G(RRHO) w/o ZPVE           -0.054079638933 Eh   ::
         :: G(RRHO) contrib.            0.295902103434 Eh   ::
         :::::::::::::::::::::::::::::::::::::::::::::::::::::

           -------------------------------------------------
          | TOTAL ENERGY              -80.976721640672 Eh   |
          | TOTAL ENTHALPY            -80.600364693004 Eh   |
          | TOTAL FREE ENERGY         -80.680819537238 Eh   |
          | GRADIENT NORM               0.000162451546 Eh/α |
          | HOMO-LUMO GAP               2.194452236242 eV   |
           -------------------------------------------------

 * finished run on 2025/07/18 at 16:12:09.122
