   * xtb version 6.7.1 (edcfbbe) compiled by 'albert@albert-system' on 2024-07-22

   ID    Z sym.   atoms
    1    7 N      1, 7, 16
    2    6 C      2-6, 8-12, 14, 15, 17-32
    3   35 Br     13
    4    1 H      33-48

          program call               : xtb data2507/gas/PICNAnCz/PICNAnCz_gas_S0_crest.xyz --gfn 2 --ohess vtight --parallel 40 --molden --ceasefiles --namespace data2507/gas/PICNAnCz/PICNAnCz_gas_S0_finalOpt
          :  Hamiltonian                  GFN2-xTB          :
 * total energy  :   -80.9767191 Eh     change       -0.2525795E-08 Eh
 * total energy  :   -80.9767190 Eh     change        0.7612489E-07 Eh
 * total energy  :   -80.9767197 Eh     change       -0.6771499E-06 Eh
 * total energy  :   -80.9767200 Eh     change       -0.2797956E-06 Eh
 * total energy  :   -80.9767204 Eh     change       -0.3725525E-06 Eh
 * total energy  :   -80.9767207 Eh     change       -0.3649245E-06 Eh
 * total energy  :   -80.9767210 Eh     change       -0.3181759E-06 Eh
 * total energy  :   -80.9767213 Eh     change       -0.2604959E-06 Eh
 * total energy  :   -80.9767215 Eh     change       -0.1989137E-06 Eh
 * total energy  :   -80.9767217 Eh     change       -0.1620310E-06 Eh
 * total energy  :   -80.9767218 Eh     change       -0.1561037E-06 Eh
 * total energy  :   -80.9767220 Eh     change       -0.1587834E-06 Eh
 * total energy  :   -80.9767221 Eh     change       -0.1309328E-06 Eh
 * total energy  :   -80.9767221 Eh     change       -0.1864862E-07 Eh
   *** GEOMETRY OPTIMIZATION CONVERGED AFTER 14 ITERATIONS ***

 final structure:
================
48
 xtb: 6.7.1 (edcfbbe)
N            1.98790512505776       -6.44624700887628       -0.07124577001474
C            1.51266264992513       -5.40367962196803       -0.05398527985558
C            0.92434940243216       -4.11744461987688       -0.03502042761996
C            1.15263674989298       -3.26238322684163        1.04392427109004
C            0.57715139807439       -2.00842146815714        1.05961002152630
C           -0.22979073973502       -1.60072767648011        0.00014085234895
N           -0.78294602662499       -0.31005762435619        0.00477228223945
C           -0.05779335896067        0.86576582947314       -0.00362328723480
C            1.39194734818716        0.95869329420718       -0.02789372894313
C            2.20675632448993        0.04660128693484       -0.69771543836945
C            3.58015498698010        0.19846561434851       -0.69226536282585
C            4.14375759339136        1.27146751179164       -0.02303099085111
Br           6.03724234362534        1.47144716085765       -0.00613348528999
C            3.35244910829872        2.20700170097835        0.62455743922556
C            1.98232753283331        2.04825568738301        0.61655352618268
N           -0.83365612860811        1.91886582461075       -0.00764592127409
C           -2.10825736261468        1.45119930390655       -0.00816473059772
C           -3.31363575368504        2.20613638526410       -0.05468512849455
C           -3.29134520040065        3.60318934303568       -0.11394247162606
C           -4.46454926212481        4.31096020208523       -0.19435966444487
C           -5.67697362764660        3.62474532244263       -0.22088042703240
C           -5.71007952489850        2.25125181626008       -0.15703256967511
C           -4.53330439763950        1.49231393987746       -0.06402901112282
C           -4.53495397687053        0.04327403017135        0.04326758731806
C           -5.73041331235850       -0.68546043548484        0.11859221433591
C           -5.74471537365335       -2.05176797180673        0.26974906773163
C           -4.54917406410502       -2.75507153756997        0.37381076647203
C           -3.35593864970224       -2.08041118476923        0.29510451358326
C           -3.31863957782434       -0.69141552703017        0.10713073290755
C           -2.11167086246349        0.05779510202027        0.01234721980504
C           -0.45622405203361       -2.45360105018249       -1.08013179304126
C            0.11587433793415       -3.70812111444950       -1.09773426628872
H            1.77667809870681       -3.58814920851119        1.86226750759174
H            0.74638906592743       -1.33682672826501        1.88777240821444
H            1.77678439372801       -0.77362333468880       -1.25147646842617
H            4.20836560496187       -0.50903617449478       -1.21137867325637
H            3.80586957818560        3.04676599260626        1.12809281177387
H            1.34385998794933        2.76531733716012        1.10743640530325
H           -2.33076378123296        4.09416867074938       -0.10183490629115
H           -4.45316213001302        5.38962563689699       -0.24203534979455
H           -6.60265864499157        4.17715485818282       -0.29209197949821
H           -6.67199686665161        1.76474867023511       -0.18373089563678
H           -6.67568681164627       -0.17024498138379        0.06793174704606
H           -6.68594562661867       -2.57824797385805        0.32325459401837
H           -4.55762572412391       -3.82479184869463        0.52052844461449
H           -2.43326070844530       -2.62894855152993        0.39991520461528
H           -1.08287702893358       -2.12303441786899       -1.89529990727213
H           -0.05350334977482       -4.37504053743487       -1.92964167606662

          :  Hamiltonian                  GFN2-xTB          :
         :: gradient norm              0.000067424294 Eh/a0 ::
         :: HOMO-LUMO gap              2.194173980092 eV    ::
         :: SCC energy               -82.449616000207 Eh    ::
         :: -> dispersion             -0.069257556382 Eh    ::
         :: repulsion energy           1.472893867852 Eh    ::

    * Orbital Energies and Occupations

         #    Occupation            Energy/Eh            Energy/eV
      -------------------------------------------------------------
         1        2.0000           -0.8416764             -22.9032
       ...           ...                  ...                  ...
        63        2.0000           -0.4380450             -11.9198
        64        2.0000           -0.4362314             -11.8705
        65        2.0000           -0.4361236             -11.8675
        66        2.0000           -0.4332431             -11.7891
        67        2.0000           -0.4288284             -11.6690
        68        2.0000           -0.4258304             -11.5874
        69        2.0000           -0.4183421             -11.3837
        70        2.0000           -0.4157469             -11.3130
        71        2.0000           -0.4116915             -11.2027
        72        2.0000           -0.4056426             -11.0381
        73        2.0000           -0.3927924             -10.6884
        74        2.0000           -0.3910296             -10.6405
        75        2.0000           -0.3767875             -10.2529 (HOMO)
        76                         -0.2961533              -8.0587 (LUMO)
        77                         -0.2774974              -7.5511
        78                         -0.2683226              -7.3014
        79                         -0.2587091              -7.0398
        80                         -0.2545936              -6.9278
        81                         -0.2536117              -6.9011
        82                         -0.2222105              -6.0467
        83                         -0.2210579              -6.0153
        84                         -0.2096411              -5.7046
        85                         -0.2019555              -5.4955
        86                         -0.1982337              -5.3942
       ...                                ...                  ...
       149                          1.1577368              31.5036
      -------------------------------------------------------------
                  HL-Gap            0.0806342 Eh            2.1942 eV

     #   Z          covCN         q      C6AA      α(0)
     1   7 N        0.911    -0.220    25.800     7.346
     2   6 C        1.912     0.112    28.325     8.595
     3   6 C        2.973     0.021    27.538     8.608
     4   6 C        2.926    -0.017    28.442     8.746
     5   6 C        2.920    -0.036    28.893     8.815
     6   6 C        2.912     0.076    26.304     8.410
     7   7 N        2.841    -0.046    22.118     6.985
     8   6 C        3.188     0.126    24.803     8.125
     9   6 C        2.973     0.003    27.956     8.673
    10   6 C        2.925    -0.034    28.843     8.807
    11   6 C        2.990    -0.035    28.854     8.811
    12   6 C        2.918     0.084    26.128     8.382
    13  35 Br       1.066    -0.162   189.526    22.197
    14   6 C        2.988    -0.032    28.797     8.803
    15   6 C        2.932    -0.026    28.654     8.779
    16   7 N        1.896    -0.283    28.201     7.873
    17   6 C        3.206     0.059    26.105     8.321
    18   6 C        2.986     0.003    27.946     8.672
    19   6 C        2.922    -0.030    28.755     8.794
    20   6 C        2.917    -0.029    28.717     8.788
    21   6 C        2.918    -0.031    28.773     8.796
    22   6 C        2.922    -0.034    28.844     8.807
    23   6 C        2.979    -0.000    28.029     8.684
    24   6 C        2.980     0.004    27.937     8.670
    25   6 C        2.922    -0.033    28.811     8.802
    26   6 C        2.917    -0.031    28.779     8.797
    27   6 C        2.917    -0.031    28.763     8.795
    28   6 C        2.919    -0.040    28.982     8.828
    29   6 C        2.978    -0.002    28.076     8.692
    30   6 C        3.071     0.021    27.463     8.593
    31   6 C        2.920    -0.034    28.852     8.808
    32   6 C        2.926    -0.019    28.476     8.751
    33   1 H        0.926     0.053     2.282     2.362
    34   1 H        0.926     0.048     2.348     2.396
    35   1 H        0.926     0.035     2.513     2.479
    36   1 H        0.926     0.055     2.260     2.351
    37   1 H        0.926     0.060     2.200     2.319
    38   1 H        0.926     0.066     2.128     2.281
    39   1 H        0.926     0.052     2.300     2.371
    40   1 H        0.926     0.034     2.535     2.490
    41   1 H        0.926     0.032     2.563     2.503
    42   1 H        0.926     0.033     2.540     2.492
    43   1 H        0.926     0.038     2.479     2.462
    44   1 H        0.926     0.033     2.546     2.495
    45   1 H        0.926     0.030     2.581     2.512
    46   1 H        0.926     0.022     2.706     2.572
    47   1 H        0.926     0.052     2.292     2.368
    48   1 H        0.926     0.053     2.284     2.363

molecular dipole:
                 x           y           z       tot (Debye)
 q only:       -1.225       0.305       0.066
   full:       -1.923       0.234       0.049       4.925

 projected vibrational frequencies (cm⁻¹)
eigval :       -0.00    -0.00    -0.00     0.00     0.00     0.00
eigval :       17.94    19.81    27.26    38.42    46.94    55.13
eigval :       77.52    89.19   100.96   115.80   121.74   141.73
eigval :      154.08   176.61   193.54   204.05   235.26   254.62
eigval :      264.70   282.05   287.76   347.53   361.91   370.00
eigval :      373.40   383.09   399.32   406.96   424.41   432.33
eigval :      460.41   464.95   487.68   514.47   522.69   532.29
eigval :      534.85   547.32   577.60   585.33   597.72   611.94
eigval :      638.51   649.01   664.45   669.37   674.46   680.79
eigval :      688.54   696.86   730.64   735.47   765.69   777.41
eigval :      782.96   806.29   811.17   825.50   862.14   866.33
eigval :      868.78   875.40   908.00   912.19   915.09   915.94
eigval :      923.15   924.42   926.63   928.21   939.09   951.90
eigval :      993.31  1013.06  1028.57  1068.56  1085.85  1093.79
eigval :     1108.78  1127.11  1131.07  1135.48  1151.78  1171.91
eigval :     1180.16  1182.81  1185.98  1195.25  1206.69  1230.08
eigval :     1254.06  1257.75  1259.58  1263.33  1283.59  1304.07
eigval :     1309.95  1320.85  1325.49  1338.51  1346.42  1374.43
eigval :     1396.66  1400.31  1406.64  1420.03  1429.85  1434.95
eigval :     1446.65  1482.62  1512.85  1513.91  1541.26  1551.23
eigval :     1560.24  1566.10  1569.12  1580.49  1584.92  1594.44
eigval :     1604.80  2377.42  3076.00  3079.96  3087.20  3089.78
eigval :     3090.46  3092.79  3094.49  3099.69  3100.16  3101.49
eigval :     3103.32  3105.51  3106.07  3111.55  3113.91  3114.00

   temp. (K)  partition function   enthalpy   heat capacity  entropy
                                   cal/mol     cal/K/mol   cal/K/mol   J/K/mol
 298.15  VIB  0.410E+11            14180.276     89.630     87.397
         ROT  0.366E+08              888.752      2.981     37.590
         INT  0.150E+19            15069.028     92.611    124.986
         TR   0.100E+29             1481.254      4.968     44.338
         TOT                       16550.2820    97.5789   169.3244   708.4535

       T/K    H(0)-H(T)+PV         H(T)/Eh          T*S/Eh         G(T)/Eh
   ------------------------------------------------------------------------
    298.15    0.263746E-01    0.376358E+00    0.804515E-01    0.295906E+00
   ------------------------------------------------------------------------

         :::::::::::::::::::::::::::::::::::::::::::::::::::::
         ::                  THERMODYNAMIC                  ::
         :::::::::::::::::::::::::::::::::::::::::::::::::::::
         :: total free energy         -80.680815831086 Eh   ::
         ::.................................................::
         :: total energy              -80.976722132367 Eh   ::
         :: zero point energy           0.349983255330 Eh   ::
         :: G(RRHO) w/o ZPVE           -0.054076954049 Eh   ::
         :: G(RRHO) contrib.            0.295906301281 Eh   ::
         :::::::::::::::::::::::::::::::::::::::::::::::::::::

           -------------------------------------------------
          | TOTAL ENERGY              -80.976722132367 Eh   |
          | TOTAL ENTHALPY            -80.600364323784 Eh   |
          | TOTAL FREE ENERGY         -80.680815831086 Eh   |
          | GRADIENT NORM               0.000067605850 Eh/α |
          | HOMO-LUMO GAP               2.194169081702 eV   |
           -------------------------------------------------

 * finished run on 2025/07/18 at 16:13:29.073
