   * xtb version 6.7.1 (edcfbbe) compiled by 'albert@albert-system' on 2024-07-22

   ID    Z sym.   atoms
    1    7 N      1, 7, 16
    2    6 C      2-6, 8-12, 14, 15, 17-32
    3   35 Br     13
    4    1 H      33-48

          program call               : xtb data2507/gas/PICNAnCz/PICNAnCz_gas_T1_crest.xyz --gfn 2 --spinpol --tblite --uhf 2 --ohess vtight --parallel 40 --molden --ceasefiles --namespace data2507/gas/PICNAnCz/PICNAnCz_gas_T1_finalOpt
 * total energy  :   -80.8920593 Eh     change       -0.3225253E-08 Eh
 * total energy  :   -80.8920678 Eh     change       -0.8506616E-05 Eh
 * total energy  :   -80.8920645 Eh     change        0.3292036E-05 Eh
 * total energy  :   -80.8920694 Eh     change       -0.4956803E-05 Eh
 * total energy  :   -80.8920725 Eh     change       -0.3038263E-05 Eh
 * total energy  :   -80.8920729 Eh     change       -0.4382496E-06 Eh
 * total energy  :   -80.8920736 Eh     change       -0.6473483E-06 Eh
 * total energy  :   -80.8920743 Eh     change       -0.7161476E-06 Eh
 * total energy  :   -80.8920744 Eh     change       -0.1628944E-06 Eh
 * total energy  :   -80.8920746 Eh     change       -0.1697141E-06 Eh
 * total energy  :   -80.8920750 Eh     change       -0.1686206E-06 Eh
 * total energy  :   -80.8920750 Eh     change        0.1045126E-07 Eh
 * total energy  :   -80.8920751 Eh     change       -0.1099608E-06 Eh
 * total energy  :   -80.8920752 Eh     change       -0.1095397E-06 Eh
 * total energy  :   -80.8920752 Eh     change        0.1924525E-07 Eh
 * total energy  :   -80.8920751 Eh     change        0.1204473E-06 Eh
 * total energy  :   -80.8920753 Eh     change       -0.1717199E-06 Eh
 * total energy  :   -80.8920753 Eh     change        0.1542261E-07 Eh
 * total energy  :   -80.8920753 Eh     change       -0.2344085E-07 Eh
   *** GEOMETRY OPTIMIZATION CONVERGED AFTER 21 ITERATIONS ***

 final structure:
================
48
 xtb: 6.7.1 (edcfbbe)
N            1.48666217264632       -6.72777809355803       -0.04195161480924
C            1.10035095814005       -5.64603416862121       -0.02679821337239
C            0.62320529307356       -4.32214237275323       -0.01019294090591
C            0.99626133518216       -3.45035006722581        1.02151128468055
C            0.53154795991244       -2.15690320776405        1.03410075331463
C           -0.32754477203878       -1.70656014801696        0.02158140005756
N           -0.78447217719319       -0.39147834107823        0.03466669586825
C            0.03964944412343        0.76080673918505        0.13753638173787
C            1.43618129044645        0.83603709094756        0.06032446822987
C            2.29859964189837       -0.19836755039012       -0.40413678163393
C            3.65472603348582       -0.01641913279402       -0.44166207152006
C            4.21144098605930        1.19418270487676       -0.02484462043388
Br           6.09248273263776        1.42111218915294       -0.05609028726730
C            3.39245701808336        2.24994929317484        0.39244520852537
C            2.03905325904940        2.07896705344023        0.42345295291923
N           -0.72103862815676        1.87784399503048        0.21735832691600
C           -1.97393811533501        1.50015647030593        0.08838823602933
C           -3.12915364078972        2.33231060185393        0.01693503521318
C           -3.00356670055184        3.72300668469159        0.01660821841116
C           -4.12003005653586        4.52269516273803       -0.11079697519480
C           -5.36540123736387        3.92728145480686       -0.25104008598099
C           -5.49910914386350        2.54993358535097       -0.24243106583543
C           -4.39263157962000        1.70871447402973       -0.09445017030990
C           -4.50266020864033        0.25667488505063       -0.02397825786062
C           -5.74256865357717       -0.37388783791265        0.01665251026780
C           -5.87188879649558       -1.74599609840340        0.13865686846225
C           -4.73502827564019       -2.54381789005261        0.25629500066316
C           -3.49254863948338       -1.97060756833067        0.21227916786425
C           -3.32894635554287       -0.57227401417265        0.04663873294327
C           -2.08249072837230        0.06443370990181        0.00001549837666
C           -0.69918496402544       -2.57870579330178       -1.01116842210895
C           -0.22750995444244       -3.86944795047662       -1.02893469103472
H            1.64610607888738       -3.80493546681557        1.80735836773470
H            0.81368645852118       -1.47967240468321        1.82620023020798
H            1.88806497061364       -1.11820329797714       -0.78442311719199
H            4.29834127136939       -0.80374797578655       -0.80390927111035
H            3.83794741839169        3.18757679312800        0.68750061801490
H            1.38611332992505        2.87455571373218        0.74239556125482
H           -2.01369749754960        4.14147733032030        0.10879336221710
H           -4.02681542912345        5.59784333776607       -0.11053986793096
H           -6.24558786428030        4.54253534372733       -0.36695912635847
H           -6.48843099922517        2.13782617992510       -0.35940010013713
H           -6.64539274831850        0.21315368439746       -0.03215417365162
H           -6.85340014619711       -2.19374730986586        0.16291340248139
H           -4.83331008327047       -3.61069776775560        0.38834836579480
H           -2.62073781263058       -2.59100426804695        0.33433912335634
H           -1.34642611232863       -2.22020478757130       -1.79823688864719
H           -0.50050978415458       -4.53993273287953       -1.83004577504658

 projected vibrational frequencies (cm⁻¹)
eigval :       -0.00    -0.00    -0.00    -0.00    -0.00     0.00
eigval :       16.30    20.60    28.77    44.14    49.76    52.48
eigval :       73.42    88.49   114.30   119.78   121.33   146.33
eigval :      157.77   176.83   182.89   201.33   227.16   248.59
eigval :      262.44   264.56   284.79   313.28   354.60   367.79
eigval :      374.79   385.01   393.23   397.69   409.86   418.98
eigval :      424.42   437.32   469.36   481.69   512.97   521.59
eigval :      530.49   537.42   570.87   579.60   581.20   592.80
eigval :      613.61   635.20   644.32   653.79   661.30   664.15
eigval :      666.57   678.07   721.35   726.34   749.70   771.69
eigval :      774.57   786.69   795.79   814.55   822.43   844.94
eigval :      860.78   864.11   894.04   900.73   908.56   909.41
eigval :      910.86   912.85   914.83   922.42   924.27   932.74
eigval :      955.63   985.27   999.52  1038.61  1063.02  1077.90
eigval :     1086.81  1102.25  1128.92  1131.51  1133.00  1149.54
eigval :     1170.80  1177.21  1178.33  1182.59  1194.12  1200.60
eigval :     1233.69  1243.18  1246.92  1253.70  1259.29  1282.23
eigval :     1297.82  1315.96  1320.90  1327.28  1334.19  1351.38
eigval :     1380.39  1383.81  1388.10  1406.19  1413.12  1422.01
eigval :     1431.23  1442.63  1461.21  1471.11  1479.52  1496.04
eigval :     1503.17  1534.18  1546.10  1553.66  1558.19  1571.03
eigval :     1586.74  2344.21  3081.19  3083.81  3086.31  3088.22
eigval :     3093.90  3094.04  3095.79  3096.46  3097.15  3099.64
eigval :     3103.19  3109.79  3113.42  3120.34  3127.39  3129.21

   temp. (K)  partition function   enthalpy   heat capacity  entropy
                                   cal/mol     cal/K/mol   cal/K/mol   J/K/mol
 298.15  VIB  0.463E+11            14458.994     91.688     88.876
         ROT  0.376E+08              888.752      2.981     37.642
         INT  0.174E+19            15347.746     94.669    126.519
         TR   0.100E+29             1481.254      4.968     44.338
         TOT                       16829.0003    99.6372   170.8569   714.8651

       T/K    H(0)-H(T)+PV         H(T)/Eh          T*S/Eh         G(T)/Eh
   ------------------------------------------------------------------------
    298.15    0.268187E-01    0.372718E+00    0.811796E-01    0.291539E+00
   ------------------------------------------------------------------------

         :::::::::::::::::::::::::::::::::::::::::::::::::::::
         ::                  THERMODYNAMIC                  ::
         :::::::::::::::::::::::::::::::::::::::::::::::::::::
         :: total free energy         -80.600536637050 Eh   ::
         ::.................................................::
         :: total energy              -80.892075278044 Eh   ::
         :: zero point energy           0.345899531074 Eh   ::
         :: G(RRHO) w/o ZPVE           -0.054360890080 Eh   ::
         :: G(RRHO) contrib.            0.291538640994 Eh   ::
         :::::::::::::::::::::::::::::::::::::::::::::::::::::

           -------------------------------------------------
          | TOTAL ENERGY              -80.892075278044 Eh   |
          | TOTAL ENTHALPY            -80.519357027886 Eh   |
          | TOTAL FREE ENERGY         -80.600536637050 Eh   |
          | GRADIENT NORM               0.000108847538 Eh/α |
           -------------------------------------------------

 * finished run on 2025/07/18 at 16:14:59.478
