   * xtb version 6.7.1 (edcfbbe) compiled by 'albert@albert-system' on 2024-07-22

   ID    Z sym.   atoms
    1    9 F      1, 5, 7, 42
    2    6 C      2, 4, 6, 8-21, 23-41
    3    7 N      3, 22
    4    1 H      43-62

          program call               : xtb data2507/toluene/3CzFTFP/3CzFTFP_toluene_S0_finalOpt.xtbopt.xyz --gfn 2 --uhf 2 --gbsa toluene --ohess vtight --parallel 40 --molden --ceasefiles --namespace data2507/toluene/3CzFTFP/3CzFTFP_toluene_T1_preOpt
      * Solvation model:               GBSA
        Solvent                        toluene
        Solvent mass                       9.2140E+01 g/mol
          :  Hamiltonian                  GFN2-xTB          :
 * total energy  :  -112.0388052 Eh     change       -0.2907271E-08 Eh
 * total energy  :  -112.0428291 Eh     change       -0.4023934E-02 Eh
 * total energy  :  -112.0441711 Eh     change       -0.1341969E-02 Eh
 * total energy  :  -112.0443749 Eh     change       -0.2037421E-03 Eh
 * total energy  :  -112.0445271 Eh     change       -0.1522042E-03 Eh
 * total energy  :  -112.0446104 Eh     change       -0.8329891E-04 Eh
 * total energy  :  -112.0447138 Eh     change       -0.1034054E-03 Eh
 * total energy  :  -112.0448078 Eh     change       -0.9404591E-04 Eh
 * total energy  :  -112.0448824 Eh     change       -0.7458168E-04 Eh
 * total energy  :  -112.0449518 Eh     change       -0.6939442E-04 Eh
 * total energy  :  -112.0452445 Eh     change       -0.7656383E-06 Eh
 * total energy  :  -112.0452451 Eh     change       -0.5990778E-06 Eh
 * total energy  :  -112.0452456 Eh     change       -0.5008903E-06 Eh
 * total energy  :  -112.0452459 Eh     change       -0.2933019E-06 Eh
 * total energy  :  -112.0452461 Eh     change       -0.2025565E-06 Eh
 * total energy  :  -112.0452462 Eh     change       -0.1495924E-06 Eh
 * total energy  :  -112.0452464 Eh     change       -0.1472583E-06 Eh
 * total energy  :  -112.0452465 Eh     change       -0.1101889E-06 Eh
 * total energy  :  -112.0452465 Eh     change       -0.2242581E-07 Eh
   *** GEOMETRY OPTIMIZATION CONVERGED AFTER 41 ITERATIONS ***

 final structure:
================
62
 xtb: 6.7.1 (edcfbbe)
F           -5.66303747374117       -2.58986316161614       -0.44029513794712
C           -4.46781986902922       -2.29452308930712        0.11538515883066
N           -4.11901888284576       -3.06148847743683        1.15345018362918
C           -2.92809680114704       -2.76673109012640        1.68376410013358
F           -2.55153986527178       -3.54315065654195        2.72318932292005
C           -2.09355198789325       -1.77885717941799        1.24059132999919
F           -0.90559122606976       -1.58820482989037        1.87717908608953
C           -2.43750989458330       -0.96242894335767        0.12719718726875
C           -1.66601062785149        0.29591118084859       -0.20201032890334
C           -0.17012663290933        0.12001054031952       -0.15983826224148
C            0.40799308045161       -1.06573498422572       -0.62974531249387
C            1.77361214546275       -1.25208902111041       -0.64493957064314
C            2.57720268914271       -0.21745202024224       -0.16986365801883
C            2.00642798370034        1.00748638577591        0.26325523195634
C            0.63698449890537        1.17708108562743        0.25961627515115
C            3.11058568688349        1.86140551842150        0.62932950729986
C            3.19461960490530        3.14492672256591        1.14037051727351
C            4.45256079277106        3.66558153018622        1.41415339005954
C            5.60423783286100        2.91651847109193        1.19766633750275
C            5.54272740632998        1.62888973058071        0.68957927348369
C            4.28821418096826        1.11334965381642        0.39085684087133
N            3.94353564244438       -0.13520386916799       -0.09237777889413
C            4.84518081647533       -1.15353113003849       -0.42978002006198
C            5.91806966998551       -0.88250436313335       -1.27756551582613
C            6.80618872175944       -1.89050782489145       -1.60303276905600
C            6.63454628862666       -3.16684139203419       -1.08908862213022
C            5.56671291042576       -3.43615701743554       -0.24648269930379
C            4.67076114783185       -2.43718944618282        0.08532849974837
C           -2.00601564355396        0.91009521808408       -1.54876044027851
C           -1.66313291039137        0.47442128282677       -2.80438521502707
C           -2.11282100428502        1.19472276412135       -3.90778130746007
C           -2.87652741785124        2.35540164148025       -3.74391377758490
C           -3.20654615306921        2.81764924340911       -2.49187733905624
C           -2.76764366956664        2.10074625019493       -1.36928671313566
C           -2.94248005533764        2.33403893712979        0.02070096236018
C           -3.64369617321082        3.33262486278595        0.71165253708299
C           -3.59173917650996        3.35179610416052        2.08324025654648
C           -2.85970998109556        2.38244412112247        2.79130548992229
C           -2.18577521780483        1.36887167510013        2.12711473158944
C           -2.22665145117703        1.33245937032605        0.74931453911864
C           -3.71195212787616       -1.28045784578935       -0.41017124659408
F           -4.20688426128875       -0.58776127724680       -1.46935578238944
H           -0.24052360342480       -1.85840800312627       -0.97306536778795
H            2.19989066864406       -2.16960038202685       -1.01878292602899
H            0.19038394975109        2.10417533756090        0.58354557796275
H            2.30258474515283        3.72205025825028        1.32707354130593
H            4.53857591104135        4.66526619015463        1.81195880772834
H            6.56658579814811        3.34340082424904        1.43512406107659
H            6.43907543231628        1.04678997125521        0.54484381748375
H            6.03056449265825        0.10581502137385       -1.69676878407444
H            7.63104906852321       -1.68087510210300       -2.26692397073005
H            7.33080185089761       -3.95080325937287       -1.34473386732441
H            5.43428388615844       -4.42692259512392        0.16116854504531
H            3.85330997105208       -2.63395727976099        0.76268162451349
H           -1.08118193821892       -0.42455463464308       -2.94169145239566
H           -1.88011288850381        0.84590663580639       -4.90215762975070
H           -3.20603890148333        2.89435539770355       -4.62001960871285
H           -3.78402215412404        3.72030399762249       -2.36524723910880
H           -4.20745944224398        4.07330607977829        0.16525472000326
H           -4.11669898528484        4.11707364557605        2.63509804929117
H           -2.83096529285157        2.42339358963015        3.86952568905026
H           -1.63701557813053        0.62605166852616        2.68664871670773

          :  Hamiltonian                  GFN2-xTB          :
         :: gradient norm              0.000083607625 Eh/a0 ::
         :: HOMO-LUMO gap              0.228816921030 eV    ::
         :: SCC energy              -113.791988126259 Eh    ::
         :: -> dispersion             -0.090743844574 Eh    ::
         :: -> Gsolv                  -0.057675964043 Eh    ::
         :: repulsion energy           1.746741605318 Eh    ::

    * Orbital Energies and Occupations

         #    Occupation            Energy/Eh            Energy/eV
      -------------------------------------------------------------
         1        2.0000           -0.8348916             -22.7186
       ...           ...                  ...                  ...
        90        2.0000           -0.4306426             -11.7184
        91        2.0000           -0.4287428             -11.6667
        92        2.0000           -0.4278546             -11.6425
        93        2.0000           -0.4264023             -11.6030
        94        2.0000           -0.4196265             -11.4186
        95        2.0000           -0.4180113             -11.3747
        96        2.0000           -0.4143537             -11.2751
        97        2.0000           -0.4126867             -11.2298
        98        2.0000           -0.4052744             -11.0281
        99        2.0000           -0.4035257             -10.9805
       100        1.9195           -0.3880357             -10.5590
       101        1.0805           -0.3834085             -10.4331
       102        0.9879           -0.2774198              -7.5490 (HOMO)
       103        0.0116           -0.2690111              -7.3202 (LUMO)
       104        0.0005           -0.2659349              -7.2365
       105                         -0.2528618              -6.8807
       106                         -0.2488136              -6.7706
       107                         -0.2460200              -6.6945
       108                         -0.2452922              -6.6747
       109                         -0.2333031              -6.3485
       110                         -0.2288648              -6.2277
       111                         -0.2155525              -5.8655
       112                         -0.2099193              -5.7122
       113                         -0.2006829              -5.4609
       ...                                ...                  ...
       188                          0.7187602              19.5585
      -------------------------------------------------------------
                  HL-Gap            0.0084087 Eh            0.2288 eV

     #   Z          covCN         q      C6AA      α(0)
     1   9 F        0.788    -0.222    11.461     3.999
     2   6 C        2.780     0.213    23.491     7.939
     3   7 N        1.837    -0.342    29.734     8.081
     4   6 C        2.779     0.214    23.476     7.936
     5   9 F        0.788    -0.220    11.447     3.997
     6   6 C        2.779     0.105    25.669     8.298
     7   9 F        0.786    -0.231    11.564     4.017
     8   6 C        2.983    -0.054    29.342     8.885
     9   6 C        3.941     0.032    19.974     6.351
    10   6 C        2.982     0.027    27.402     8.587
    11   6 C        2.924    -0.027    28.684     8.783
    12   6 C        2.908    -0.035    28.870     8.810
    13   6 C        3.072     0.049    26.820     8.491
    14   6 C        3.063    -0.003    28.046     8.684
    15   6 C        2.914    -0.027    28.680     8.782
    16   6 C        3.063    -0.006    28.100     8.693
    17   6 C        2.911    -0.022    28.558     8.763
    18   6 C        2.920    -0.025    28.622     8.773
    19   6 C        2.922    -0.026    28.659     8.779
    20   6 C        2.909    -0.035    28.872     8.811
    21   6 C        3.073     0.046    26.889     8.502
    22   7 N        2.804     0.015    20.997     6.806
    23   6 C        2.915     0.060    26.645     8.464
    24   6 C        2.921    -0.035    28.876     8.812
    25   6 C        2.919    -0.022    28.550     8.762
    26   6 C        2.919    -0.022    28.556     8.763
    27   6 C        2.919    -0.022    28.543     8.761
    28   6 C        2.921    -0.035    28.869     8.811
    29   6 C        3.057     0.013    27.676     8.627
    30   6 C        2.909    -0.031    28.763     8.794
    31   6 C        2.922    -0.026    28.650     8.778
    32   6 C        2.916    -0.025    28.622     8.773
    33   6 C        2.910    -0.032    28.788     8.798
    34   6 C        3.029     0.013    27.705     8.634
    35   6 C        3.029     0.001    27.978     8.676
    36   6 C        2.909    -0.029    28.735     8.790
    37   6 C        2.916    -0.032    28.803     8.801
    38   6 C        2.920    -0.029    28.713     8.787
    39   6 C        2.908    -0.033    28.810     8.801
    40   6 C        3.064    -0.002    28.001     8.677
    41   6 C        2.778     0.105    25.656     8.296
    42   9 F        0.786    -0.232    11.575     4.019
    43   1 H        0.926     0.044     2.399     2.422
    44   1 H        0.926     0.059     2.215     2.327
    45   1 H        0.926     0.056     2.251     2.346
    46   1 H        0.926     0.053     2.287     2.365
    47   1 H        0.926     0.053     2.286     2.364
    48   1 H        0.926     0.054     2.270     2.356
    49   1 H        0.926     0.057     2.235     2.338
    50   1 H        0.926     0.058     2.219     2.329
    51   1 H        0.926     0.056     2.247     2.344
    52   1 H        0.926     0.053     2.280     2.362
    53   1 H        0.926     0.053     2.283     2.363
    54   1 H        0.926     0.053     2.283     2.363
    55   1 H        0.926     0.039     2.463     2.454
    56   1 H        0.926     0.046     2.368     2.407
    57   1 H        0.926     0.047     2.363     2.404
    58   1 H        0.926     0.046     2.365     2.405
    59   1 H        0.926     0.045     2.389     2.417
    60   1 H        0.926     0.042     2.417     2.431
    61   1 H        0.926     0.041     2.429     2.437
    62   1 H        0.926     0.035     2.516     2.481

molecular dipole:
                 x           y           z       tot (Debye)
 q only:        7.610       3.448      -1.488
   full:        7.535       3.442      -1.500      21.398

 projected vibrational frequencies (cm⁻¹)
eigval :       -0.00    -0.00     0.00     0.00     0.00     0.00
eigval :       13.77    17.87    24.15    27.98    41.29    49.31
eigval :       59.40    64.77    67.48    78.77    93.64   100.29
eigval :      115.66   127.59   137.20   146.96   155.91   164.36
eigval :      184.35   198.07   212.71   227.82   240.48   255.91
eigval :      259.72   268.58   285.88   304.55   311.00   325.77
eigval :      336.58   350.03   367.08   378.90   387.11   399.98
eigval :      404.80   406.70   411.25   420.92   423.52   436.21
eigval :      455.73   473.93   476.46   481.92   493.23   497.30
eigval :      534.82   537.99   546.90   559.40   572.64   579.03
eigval :      579.62   589.08   603.39   605.66   617.92   629.20
eigval :      649.55   655.77   667.17   670.14   685.23   700.19
eigval :      708.82   716.14   728.31   736.94   752.62   754.90
eigval :      764.28   773.32   800.85   824.58   848.90   853.58
eigval :      864.81   866.37   875.43   878.02   882.34   897.77
eigval :      900.77   904.47   905.36   907.24   907.76   911.80
eigval :      919.50   922.22   923.67   934.75   936.44   945.24
eigval :      983.86   994.24   994.74  1008.43  1028.46  1053.26
eigval :     1057.11  1065.45  1076.53  1099.23  1112.56  1116.76
eigval :     1123.13  1130.34  1142.48  1158.34  1163.20  1170.02
eigval :     1175.72  1176.83  1179.57  1186.23  1195.77  1203.76
eigval :     1223.92  1229.08  1233.47  1242.26  1254.71  1261.21
eigval :     1267.21  1276.71  1288.72  1308.74  1314.86  1322.71
eigval :     1327.77  1339.26  1344.99  1356.35  1360.68  1370.15
eigval :     1373.43  1387.63  1399.61  1413.63  1417.90  1428.92
eigval :     1437.87  1450.73  1458.04  1469.62  1471.48  1483.08
eigval :     1486.44  1538.50  1540.94  1555.15  1559.00  1560.31
eigval :     1568.26  1573.65  1582.58  1597.87  3079.85  3080.49
eigval :     3083.59  3084.97  3085.61  3085.79  3088.13  3088.48
eigval :     3091.65  3093.45  3094.31  3095.02  3098.49  3098.62
eigval :     3099.35  3100.52  3102.77  3102.91  3104.42  3106.94

   temp. (K)  partition function   enthalpy   heat capacity  entropy
                                   cal/mol     cal/K/mol   cal/K/mol   J/K/mol
 298.15  VIB  0.165E+15            19250.758    122.228    118.502
         ROT  0.464E+08              888.752      2.981     38.060
         INT  0.763E+22            20139.510    125.209    156.562
         TR   0.127E+29             1481.254      4.968     44.814
         TOT                       21620.7639   130.1773   201.3762   842.5579

       T/K    H(0)-H(T)+PV         H(T)/Eh          T*S/Eh         G(T)/Eh
   ------------------------------------------------------------------------
    298.15    0.344549E-01    0.474671E+00    0.956803E-01    0.378991E+00
   ------------------------------------------------------------------------

         :::::::::::::::::::::::::::::::::::::::::::::::::::::
         ::                  THERMODYNAMIC                  ::
         :::::::::::::::::::::::::::::::::::::::::::::::::::::
         :: total free energy        -111.666255602406 Eh   ::
         ::.................................................::
         :: total energy             -112.045246521337 Eh   ::
         :: zero point energy           0.440216358246 Eh   ::
         :: G(RRHO) w/o ZPVE           -0.061225439315 Eh   ::
         :: G(RRHO) contrib.            0.378990918931 Eh   ::
         :::::::::::::::::::::::::::::::::::::::::::::::::::::

           -------------------------------------------------
          | TOTAL ENERGY             -112.045246521337 Eh   |
          | TOTAL ENTHALPY           -111.570575282590 Eh   |
          | TOTAL FREE ENERGY        -111.666255602406 Eh   |
          | GRADIENT NORM               0.000083125315 Eh/α |
          | HOMO-LUMO GAP               0.228812220463 eV   |
           -------------------------------------------------

 * finished run on 2025/07/16 at 12:11:29.911
