   * xtb version 6.7.1 (edcfbbe) compiled by 'albert@albert-system' on 2024-07-22

   ID    Z sym.   atoms
    1    9 F      1, 5, 7, 42
    2    6 C      2, 4, 6, 8-21, 23-41
    3    7 N      3, 22
    4    1 H      43-62

          program call               : xtb data2507/toluene/3CzFTFP/3CzFTFP_toluene_T1_crest.xyz --gfn 2 --uhf 2 --gbsa toluene --ohess vtight --parallel 40 --molden --ceasefiles --namespace data2507/toluene/3CzFTFP/3CzFTFP_toluene_T1_finalOpt
      * Solvation model:               GBSA
        Solvent                        toluene
        Solvent mass                       9.2140E+01 g/mol
          :  Hamiltonian                  GFN2-xTB          :
 * total energy  :  -112.0441859 Eh     change       -0.3485111E-07 Eh
 * total energy  :  -112.0447779 Eh     change       -0.5920447E-03 Eh
 * total energy  :  -112.0451605 Eh     change       -0.3825256E-03 Eh
 * total energy  :  -112.0451830 Eh     change       -0.2253912E-04 Eh
 * total energy  :  -112.0451930 Eh     change       -0.1000772E-04 Eh
 * total energy  :  -112.0451975 Eh     change       -0.4451480E-05 Eh
 * total energy  :  -112.0452037 Eh     change       -0.6260257E-05 Eh
 * total energy  :  -112.0452060 Eh     change       -0.2278806E-05 Eh
 * total energy  :  -112.0452075 Eh     change       -0.1502318E-05 Eh
 * total energy  :  -112.0452084 Eh     change       -0.8974260E-06 Eh
 * total energy  :  -112.0452114 Eh     change       -0.2191113E-06 Eh
 * total energy  :  -112.0452115 Eh     change       -0.1528207E-06 Eh
 * total energy  :  -112.0452117 Eh     change       -0.1519455E-06 Eh
 * total energy  :  -112.0452119 Eh     change       -0.1762879E-06 Eh
 * total energy  :  -112.0452121 Eh     change       -0.2377164E-06 Eh
 * total energy  :  -112.0452124 Eh     change       -0.2517637E-06 Eh
 * total energy  :  -112.0452123 Eh     change        0.4855110E-08 Eh
 * total energy  :  -112.0452123 Eh     change        0.9350856E-08 Eh
 * total energy  :  -112.0452123 Eh     change       -0.9018777E-08 Eh
   *** GEOMETRY OPTIMIZATION CONVERGED AFTER 24 ITERATIONS ***

 final structure:
================
62
 xtb: 6.7.1 (edcfbbe)
F           -5.62491646446493       -2.63255727964207       -0.66085736013148
C           -4.43980917606909       -2.36050677916607       -0.07260472144483
N           -4.09501770311393       -3.18754226475272        0.91960485566098
C           -2.91322614550737       -2.91535873965690        1.48138895175617
F           -2.53977945835575       -3.75301085015994        2.47332459493472
C           -2.08435490271172       -1.89307756347619        1.11168861801774
F           -0.90568876421806       -1.73166507402888        1.77300538616378
C           -2.42444152941463       -1.01119464005359        0.04814829580739
C           -1.66212670392719        0.27226453335407       -0.19298292324391
C           -0.16482602981364        0.10936377915192       -0.15011064773362
C            0.43038271531791       -1.04409412675687       -0.67552752382024
C            1.79816184702438       -1.21416796170757       -0.68901651068708
C            2.58644086829181       -0.19488860860449       -0.15824840486074
C            1.99836304461269        1.00136322770889        0.32865599560194
C            0.62698888883822        1.15394341556216        0.32626100168301
C            3.08995347018742        1.85087132234268        0.73954082648569
C            3.15505003083009        3.11210598768982        1.30582166884434
C            4.40488336189412        3.63664554995189        1.60770909950573
C            5.56693470366796        2.91197272838329        1.36547530735698
C            5.52419326252137        1.64645404154837        0.80281909227902
C            4.27800899438363        1.12862660824959        0.47459206034196
N            3.95130621468283       -0.10075841372840       -0.06729504166133
C            4.86559785322383       -1.09450082942395       -0.44165664729745
C            5.94548040299964       -0.77665740531263       -1.26394782866622
C            6.84497342163180       -1.76180928327378       -1.62595670749807
C            6.67735054282347       -3.06226196570914       -1.17506977497136
C            5.60239250394345       -3.37842506000524       -0.35819485869461
C            4.69565073529770       -2.40243273945857        0.01039024390474
C           -1.99587771221268        0.96895792417484       -1.50053956332091
C           -1.63816835683280        0.61745010582640       -2.77825285217323
C           -2.08447017324395        1.40324917732696       -3.83732199975083
C           -2.85888844321550        2.54535490674624       -3.60642209979588
C           -3.20291237661667        2.92428454689790       -2.33042162272849
C           -2.76826375423968        2.14012323596353       -1.25203920659308
C           -2.95665976576481        2.28258588090359        0.14835895975499
C           -3.67141780212577        3.22976088120761        0.89561647673539
C           -3.63080385319610        3.16167456518736        2.26602158304346
C           -2.89665471719292        2.15475227487455        2.91704563251892
C           -2.20897813145209        1.19087586759161        2.19536444858673
C           -2.23896394460797        1.24178519477960        0.81778821881136
C           -3.68884570093302       -1.30771363641419       -0.52394879245160
F           -4.17875201550817       -0.55487940707075       -1.54362432839012
H           -0.20616444024077       -1.82535026827478       -1.06440893493901
H            2.23730701618676       -2.10745988590882       -1.10429417758051
H            0.16698329587654        2.05789744077497        0.69385853939207
H            2.25470708952690        3.66926119808324        1.51229984296462
H            4.47636761684544        4.61975968032439        2.04749940212848
H            6.52264114612279        3.34025050179931        1.62605337511030
H            6.42881901863523        1.08269939890688        0.63843292922888
H            6.05488141437143        0.23039105777029       -1.63651810041777
H            7.67566765698438       -1.51500198982835       -2.26949247624649
H            7.38225595534767       -3.82826926065754       -1.45968292073433
H            5.47258416295929       -4.38828943575063        0.00046282263531
H            3.87227346366472       -2.63706397139701        0.66822545183049
H           -1.04734805949132       -0.26636263554579       -2.96720146437753
H           -1.84037997101958        1.12072900081761       -4.84984290353645
H           -3.18511065552702        3.13698444325507       -4.44915054144913
H           -3.78844335382422        3.81280668966119       -2.15159348918074
H           -4.23634046992336        3.99990419655915        0.39291456534222
H           -4.16622127755660        3.88629753810761        2.86107029836264
H           -2.87706445687597        2.12709513575577        3.99590349238937
H           -1.65882551959681        0.41814842272648        2.71129549359800

          :  Hamiltonian                  GFN2-xTB          :
         :: gradient norm              0.000125746878 Eh/a0 ::
         :: HOMO-LUMO gap              0.227355475654 eV    ::
         :: SCC energy              -113.791985863481 Eh    ::
         :: -> dispersion             -0.090737577714 Eh    ::
         :: -> Gsolv                  -0.057641929372 Eh    ::
         :: repulsion energy           1.746773515888 Eh    ::

    * Orbital Energies and Occupations

         #    Occupation            Energy/Eh            Energy/eV
      -------------------------------------------------------------
         1        2.0000           -0.8349096             -22.7190
       ...           ...                  ...                  ...
        90        2.0000           -0.4306586             -11.7188
        91        2.0000           -0.4287544             -11.6670
        92        2.0000           -0.4278322             -11.6419
        93        2.0000           -0.4264443             -11.6041
        94        2.0000           -0.4196004             -11.4179
        95        2.0000           -0.4180147             -11.3748
        96        2.0000           -0.4143486             -11.2750
        97        2.0000           -0.4127075             -11.2303
        98        2.0000           -0.4052830             -11.0283
        99        2.0000           -0.4035446             -10.9810
       100        1.9221           -0.3880621             -10.5597
       101        1.0779           -0.3833667             -10.4319
       102        0.9876           -0.2773965              -7.5483 (HOMO)
       103        0.0119           -0.2690409              -7.3210 (LUMO)
       104        0.0005           -0.2659616              -7.2372
       105                         -0.2529043              -6.8819
       106                         -0.2488357              -6.7712
       107                         -0.2459949              -6.6939
       108                         -0.2453023              -6.6750
       109                         -0.2333073              -6.3486
       110                         -0.2288760              -6.2280
       111                         -0.2155261              -5.8648
       112                         -0.2099003              -5.7117
       113                         -0.2006710              -5.4605
       ...                                ...                  ...
       188                          0.7188094              19.5598
      -------------------------------------------------------------
                  HL-Gap            0.0083556 Eh            0.2274 eV

     #   Z          covCN         q      C6AA      α(0)
     1   9 F        0.788    -0.222    11.461     3.999
     2   6 C        2.780     0.213    23.491     7.939
     3   7 N        1.837    -0.342    29.734     8.081
     4   6 C        2.779     0.214    23.477     7.936
     5   9 F        0.788    -0.220    11.447     3.997
     6   6 C        2.779     0.105    25.668     8.298
     7   9 F        0.786    -0.231    11.563     4.017
     8   6 C        2.982    -0.054    29.342     8.885
     9   6 C        3.941     0.032    19.974     6.351
    10   6 C        2.982     0.027    27.402     8.587
    11   6 C        2.924    -0.027    28.683     8.783
    12   6 C        2.908    -0.035    28.869     8.810
    13   6 C        3.072     0.049    26.821     8.491
    14   6 C        3.063    -0.003    28.047     8.684
    15   6 C        2.914    -0.027    28.680     8.782
    16   6 C        3.063    -0.006    28.100     8.693
    17   6 C        2.911    -0.022    28.559     8.763
    18   6 C        2.920    -0.025    28.622     8.773
    19   6 C        2.922    -0.026    28.659     8.779
    20   6 C        2.909    -0.035    28.873     8.811
    21   6 C        3.073     0.046    26.889     8.502
    22   7 N        2.803     0.015    20.996     6.805
    23   6 C        2.915     0.060    26.644     8.464
    24   6 C        2.921    -0.035    28.877     8.812
    25   6 C        2.919    -0.022    28.550     8.762
    26   6 C        2.919    -0.022    28.556     8.763
    27   6 C        2.919    -0.022    28.543     8.761
    28   6 C        2.921    -0.035    28.870     8.811
    29   6 C        3.057     0.013    27.674     8.627
    30   6 C        2.909    -0.031    28.761     8.794
    31   6 C        2.922    -0.026    28.650     8.778
    32   6 C        2.916    -0.025    28.621     8.773
    33   6 C        2.910    -0.032    28.789     8.798
    34   6 C        3.029     0.013    27.706     8.634
    35   6 C        3.029     0.001    27.979     8.676
    36   6 C        2.909    -0.029    28.736     8.790
    37   6 C        2.916    -0.032    28.802     8.801
    38   6 C        2.920    -0.029    28.713     8.787
    39   6 C        2.908    -0.032    28.809     8.801
    40   6 C        3.064    -0.002    28.001     8.677
    41   6 C        2.778     0.105    25.656     8.296
    42   9 F        0.786    -0.232    11.574     4.019
    43   1 H        0.926     0.044     2.400     2.423
    44   1 H        0.926     0.059     2.214     2.327
    45   1 H        0.926     0.056     2.252     2.347
    46   1 H        0.926     0.053     2.287     2.365
    47   1 H        0.926     0.053     2.286     2.365
    48   1 H        0.926     0.054     2.270     2.356
    49   1 H        0.926     0.057     2.234     2.337
    50   1 H        0.926     0.058     2.218     2.329
    51   1 H        0.926     0.056     2.248     2.344
    52   1 H        0.926     0.053     2.281     2.362
    53   1 H        0.926     0.053     2.283     2.363
    54   1 H        0.926     0.053     2.283     2.363
    55   1 H        0.926     0.039     2.466     2.456
    56   1 H        0.926     0.046     2.369     2.407
    57   1 H        0.926     0.047     2.363     2.404
    58   1 H        0.926     0.046     2.365     2.405
    59   1 H        0.926     0.045     2.389     2.417
    60   1 H        0.926     0.042     2.417     2.431
    61   1 H        0.926     0.041     2.429     2.437
    62   1 H        0.926     0.035     2.515     2.480

molecular dipole:
                 x           y           z       tot (Debye)
 q only:        7.589       3.618      -1.197
   full:        7.515       3.611      -1.210      21.413

 projected vibrational frequencies (cm⁻¹)
eigval :       -0.00    -0.00    -0.00     0.00     0.00     0.00
eigval :       11.50    16.25    23.52    27.36    39.37    48.04
eigval :       57.57    61.43    66.14    76.73    94.94    99.86
eigval :      115.52   128.37   137.32   146.63   155.21   164.27
eigval :      184.75   199.12   212.24   227.18   240.17   255.46
eigval :      259.70   267.73   285.72   303.88   310.51   324.89
eigval :      336.26   349.87   365.01   377.39   387.33   400.30
eigval :      404.68   406.50   411.05   420.65   423.42   435.18
eigval :      455.44   473.09   475.67   482.66   493.03   497.04
eigval :      534.48   537.09   547.15   558.96   571.26   578.90
eigval :      579.62   589.29   603.29   605.46   617.57   629.19
eigval :      649.48   655.51   665.97   669.50   684.54   700.31
eigval :      708.98   716.07   728.66   736.91   753.27   756.79
eigval :      761.33   771.19   800.77   826.82   849.98   852.80
eigval :      861.94   865.23   869.73   875.71   878.81   895.57
eigval :      901.18   903.61   906.85   907.35   911.33   914.23
eigval :      919.20   920.29   923.51   929.52   931.35   944.75
eigval :      983.73   994.17   994.70  1008.56  1028.31  1052.79
eigval :     1055.98  1065.83  1076.05  1099.50  1112.77  1115.97
eigval :     1122.78  1130.58  1141.95  1158.01  1163.44  1173.48
eigval :     1175.14  1176.46  1179.46  1185.70  1195.24  1203.07
eigval :     1223.74  1228.82  1233.33  1242.01  1254.47  1260.40
eigval :     1266.79  1275.98  1288.64  1308.92  1314.93  1322.75
eigval :     1327.79  1339.32  1344.81  1356.18  1360.52  1370.44
eigval :     1373.37  1387.59  1399.64  1413.63  1417.79  1428.63
eigval :     1438.21  1450.52  1457.53  1469.44  1471.38  1483.06
eigval :     1486.30  1538.37  1540.99  1555.05  1558.66  1560.25
eigval :     1568.03  1573.61  1582.38  1597.86  3079.18  3079.85
eigval :     3082.48  3083.65  3085.97  3086.06  3087.85  3088.75
eigval :     3091.65  3092.91  3094.67  3095.53  3097.92  3098.40
eigval :     3098.94  3100.65  3102.78  3102.98  3104.47  3107.24

   temp. (K)  partition function   enthalpy   heat capacity  entropy
                                   cal/mol     cal/K/mol   cal/K/mol   J/K/mol
 298.15  VIB  0.270E+15            19284.743    122.125    118.970
         ROT  0.464E+08              888.752      2.981     38.060
         INT  0.125E+23            20173.495    125.106    157.030
         TR   0.127E+29             1481.254      4.968     44.814
         TOT                       21654.7492   130.0742   201.8440   844.5154

       T/K    H(0)-H(T)+PV         H(T)/Eh          T*S/Eh         G(T)/Eh
   ------------------------------------------------------------------------
    298.15    0.345090E-01    0.474571E+00    0.959026E-01    0.378669E+00
   ------------------------------------------------------------------------

         :::::::::::::::::::::::::::::::::::::::::::::::::::::
         ::                  THERMODYNAMIC                  ::
         :::::::::::::::::::::::::::::::::::::::::::::::::::::
         :: total free energy        -111.666543660993 Eh   ::
         ::.................................................::
         :: total energy             -112.045212349110 Eh   ::
         :: zero point energy           0.440062263562 Eh   ::
         :: G(RRHO) w/o ZPVE           -0.061393575445 Eh   ::
         :: G(RRHO) contrib.            0.378668688117 Eh   ::
         :::::::::::::::::::::::::::::::::::::::::::::::::::::

           -------------------------------------------------
          | TOTAL ENERGY             -112.045212349110 Eh   |
          | TOTAL ENTHALPY           -111.570641046113 Eh   |
          | TOTAL FREE ENERGY        -111.666543660993 Eh   |
          | GRADIENT NORM               0.000126867216 Eh/α |
          | HOMO-LUMO GAP               0.227367734318 eV   |
           -------------------------------------------------

 * finished run on 2025/07/16 at 12:15:15.379
