   * xtb version 6.7.1 (edcfbbe) compiled by 'albert@albert-system' on 2024-07-22

   ID    Z sym.   atoms
    1    9 F      1, 5, 7, 42
    2    6 C      2, 4, 6, 8-21, 23-41
    3    7 N      3, 22
    4    1 H      43-62

          program call               : xtb data2507/toluene/3CzFTFP/3CzFTFP.xyz --gfn 2 --gbsa toluene --ohess vtight --parallel 40 --molden --ceasefiles --namespace data2507/toluene/3CzFTFP/3CzFTFP_toluene_S0_preOpt
      * Solvation model:               GBSA
        Solvent                        toluene
        Solvent mass                       9.2140E+01 g/mol
          :  Hamiltonian                  GFN2-xTB          :
 * total energy  :  -112.1207946 Eh     change       -0.2722686E-08 Eh
 * total energy  :  -112.1333059 Eh     change       -0.1251132E-01 Eh
 * total energy  :  -112.1365703 Eh     change       -0.3264423E-02 Eh
 * total energy  :  -112.1374009 Eh     change       -0.8305821E-03 Eh
 * total energy  :  -112.1377921 Eh     change       -0.3911956E-03 Eh
 * total energy  :  -112.1379452 Eh     change       -0.1530984E-03 Eh
 * total energy  :  -112.1380809 Eh     change       -0.1356989E-03 Eh
 * total energy  :  -112.1381844 Eh     change       -0.1034476E-03 Eh
 * total energy  :  -112.1382647 Eh     change       -0.8036933E-04 Eh
 * total energy  :  -112.1383219 Eh     change       -0.5715329E-04 Eh
 * total energy  :  -112.1384148 Eh     change       -0.2020031E-06 Eh
 * total energy  :  -112.1384149 Eh     change       -0.1714248E-06 Eh
 * total energy  :  -112.1384151 Eh     change       -0.1507267E-06 Eh
 * total energy  :  -112.1384152 Eh     change       -0.1463600E-06 Eh
 * total energy  :  -112.1384154 Eh     change       -0.1535558E-06 Eh
 * total energy  :  -112.1384155 Eh     change       -0.1517240E-06 Eh
 * total energy  :  -112.1384157 Eh     change       -0.1363338E-06 Eh
 * total energy  :  -112.1384158 Eh     change       -0.1165363E-06 Eh
 * total energy  :  -112.1384158 Eh     change       -0.6486829E-09 Eh
   *** GEOMETRY OPTIMIZATION CONVERGED AFTER 44 ITERATIONS ***

 final structure:
================
62
 xtb: 6.7.1 (edcfbbe)
F           -5.37197639524138       -4.20324659083787        0.70333214312094
C           -4.29734340952657       -3.52520213275894        1.09958182162199
N           -3.69453301802192       -3.96535483247319        2.17924133518661
C           -2.64138251995824       -3.30090205696014        2.59718177281355
F           -2.05557385653458       -3.75401912032798        3.70358992832911
C           -2.13280916343695       -2.17902436105058        1.95190691196502
F           -1.06980139594468       -1.56409201152124        2.48828713192004
C           -2.73797947213879       -1.70416805248409        0.78091487039825
C           -2.24801395127792       -0.46189252167674        0.08199993361382
C           -0.73272528089502       -0.33763506987532        0.09608647253277
C            0.04895798745918       -1.47146775053369       -0.15243547547647
C            1.42635505483025       -1.41132937024822       -0.20035865649168
C            2.03216136556871       -0.17930869629244        0.00245250831788
C            1.25237002904302        0.98233595340775        0.20937705560304
C           -0.13152341822312        0.89776945335456        0.25733456019832
C            2.17520747961385        2.07552391812794        0.32810022500339
C            2.02064425072403        3.43840050019776        0.55034116658026
C            3.15106321577863        4.22617817993763        0.63508394892603
C            4.42377018830127        3.66948794935878        0.51664017228912
C            4.60282208561480        2.31758400027963        0.29452593391814
C            3.46956296440212        1.52320000608789        0.18585219576360
N            3.36626460486191        0.16033509983779       -0.01165964499260
C            4.44023730991419       -0.73265806757044       -0.16982718088730
C            5.41866663272037       -0.48678787251161       -1.12808471672750
C            6.47868508343378       -1.36387852798120       -1.27157760410350
C            6.56505484710768       -2.49215390406200       -0.47234976603366
C            5.58723045643707       -2.74118041527937        0.47700172268516
C            4.52911776489354       -1.86450346756362        0.63494962736438
C           -2.70188560723318       -0.33047793669142       -1.36383114319452
C           -2.35208713898502       -1.10547390036610       -2.44837778723666
C           -2.86064677201071       -0.76836858547407       -3.69580688702835
C           -3.69530909769641        0.32749926101008       -3.85141999908674
C           -4.03958985365040        1.11646674738722       -2.76587298550716
C           -3.53683842860478        0.78434412633195       -1.51883006826818
C           -3.71672713384401        1.41666108126486       -0.22186653831740
C           -4.45484971411949        2.52826340937898        0.15171824282147
C           -4.44188544844114        2.92047197578236        1.48095348298914
C           -3.70265865627961        2.21952209263724        2.42166116830470
C           -2.96084952736733        1.10308404123738        2.05571491984595
C           -2.97073655732554        0.71263440315899        0.73365113352721
C           -3.87400704381581       -2.41320257580422        0.37623357454303
F           -4.59097819453997       -2.04466688431336       -0.69325267713022
H           -0.43456103405025       -2.42711397103427       -0.30119976444380
H            2.00857426984232       -2.29843457429814       -0.39732675181917
H           -0.72439864923416        1.78440490086994        0.41880607054552
H            1.03515462072712        3.86640230601450        0.65730484475339
H            3.05359221397916        5.28830605139976        0.80528869441606
H            5.28976378713867        4.30950098972244        0.60268887985189
H            5.59265198982447        1.89357105356736        0.21937423368961
H            5.33673046509754        0.38392653259133       -1.76153805901899
H            7.23635042777244       -1.16854795130043       -2.01605158783520
H            7.39196450069885       -3.17634679167085       -0.58929823339707
H            5.65222757846815       -3.61774104561943        1.10475218433086
H            3.77523903353515       -2.04318332512220        1.38746888655627
H           -1.70113136278099       -1.95982459067972       -2.33886915231796
H           -2.60087135774679       -1.36986224900057       -4.55418910307840
H           -4.07972396406539        0.56899168053720       -4.83138683353441
H           -4.68586031989955        1.97195118144275       -2.88957497453217
H           -5.02937556980241        3.07653447185089       -0.57892744036424
H           -5.01320461018161        3.78375495113007        1.78884496066796
H           -3.70055726195291        2.54210583870958        3.45206814899287
H           -2.37802302296109        0.57283804676951        2.79360116683486

          :  Hamiltonian                  GFN2-xTB          :
         :: gradient norm              0.000020362498 Eh/a0 ::
         :: HOMO-LUMO gap              1.512233859270 eV    ::
         :: SCC energy              -113.912800479986 Eh    ::
         :: -> dispersion             -0.091246060181 Eh    ::
         :: -> Gsolv                  -0.038010282497 Eh    ::
         :: repulsion energy           1.774384683675 Eh    ::

    * Orbital Energies and Occupations

         #    Occupation            Energy/Eh            Energy/eV
      -------------------------------------------------------------
         1        2.0000           -0.8716756             -23.7195
       ...           ...                  ...                  ...
        89        2.0000           -0.4291025             -11.6765
        90        2.0000           -0.4278616             -11.6427
        91        2.0000           -0.4272970             -11.6273
        92        2.0000           -0.4242893             -11.5455
        93        2.0000           -0.4220093             -11.4835
        94        2.0000           -0.4159688             -11.3191
        95        2.0000           -0.4138001             -11.2601
        96        2.0000           -0.4124833             -11.2242
        97        2.0000           -0.4106207             -11.1736
        98        2.0000           -0.4061973             -11.0532
        99        2.0000           -0.3911575             -10.6439
       100        2.0000           -0.3835206             -10.4361
       101        2.0000           -0.3658047              -9.9541 (HOMO)
       102                         -0.3102311              -8.4418 (LUMO)
       103                         -0.2930138              -7.9733
       104                         -0.2630996              -7.1593
       105                         -0.2513357              -6.8392
       106                         -0.2382028              -6.4818
       107                         -0.2361597              -6.4262
       108                         -0.2325282              -6.3274
       109                         -0.2325116              -6.3270
       110                         -0.2250489              -6.1239
       111                         -0.1997807              -5.4363
       112                         -0.1957504              -5.3266
       ...                                ...                  ...
       188                          0.7386805              20.1005
      -------------------------------------------------------------
                  HL-Gap            0.0555736 Eh            1.5122 eV

     #   Z          covCN         q      C6AA      α(0)
     1   9 F        0.789    -0.168    10.907     3.901
     2   6 C        2.786     0.236    23.069     7.867
     3   7 N        1.843    -0.235    26.996     7.700
     4   6 C        2.785     0.235    23.082     7.869
     5   9 F        0.789    -0.168    10.909     3.901
     6   6 C        2.783     0.136    25.024     8.194
     7   9 F        0.787    -0.180    11.031     3.923
     8   6 C        2.980     0.011    27.765     8.643
     9   6 C        3.944     0.027    20.053     6.363
    10   6 C        2.980     0.003    27.962     8.674
    11   6 C        2.927    -0.039    28.973     8.827
    12   6 C        2.909    -0.050    29.250     8.868
    13   6 C        3.080     0.047    26.851     8.495
    14   6 C        3.069    -0.016    28.348     8.730
    15   6 C        2.915    -0.038    28.941     8.822
    16   6 C        3.068    -0.018    28.379     8.735
    17   6 C        2.912    -0.033    28.831     8.805
    18   6 C        2.920    -0.041    29.028     8.835
    19   6 C        2.924    -0.034    28.835     8.806
    20   6 C        2.909    -0.051    29.254     8.869
    21   6 C        3.080     0.048    26.845     8.494
    22   7 N        2.802    -0.041    22.036     6.972
    23   6 C        2.913     0.063    26.589     8.455
    24   6 C        2.922    -0.042    29.032     8.836
    25   6 C        2.920    -0.027    28.688     8.783
    26   6 C        2.919    -0.032    28.800     8.800
    27   6 C        2.920    -0.028    28.689     8.783
    28   6 C        2.922    -0.042    29.041     8.837
    29   6 C        3.053     0.003    27.917     8.665
    30   6 C        2.914    -0.032    28.806     8.801
    31   6 C        2.923    -0.029    28.730     8.790
    32   6 C        2.921    -0.029    28.732     8.790
    33   6 C        2.915    -0.031    28.772     8.796
    34   6 C        3.033     0.004    27.894     8.663
    35   6 C        3.033     0.006    27.861     8.658
    36   6 C        2.915    -0.032    28.789     8.799
    37   6 C        2.920    -0.029    28.720     8.788
    38   6 C        2.923    -0.031    28.767     8.795
    39   6 C        2.913    -0.035    28.869     8.811
    40   6 C        3.054     0.001    27.948     8.670
    41   6 C        2.783     0.134    25.066     8.201
    42   9 F        0.787    -0.181    11.038     3.924
    43   1 H        0.925     0.021     2.722     2.580
    44   1 H        0.926     0.037     2.491     2.468
    45   1 H        0.926     0.038     2.477     2.461
    46   1 H        0.926     0.033     2.549     2.497
    47   1 H        0.926     0.031     2.574     2.509
    48   1 H        0.926     0.033     2.542     2.493
    49   1 H        0.926     0.033     2.542     2.493
    50   1 H        0.926     0.043     2.406     2.425
    51   1 H        0.926     0.042     2.424     2.435
    52   1 H        0.926     0.041     2.441     2.443
    53   1 H        0.926     0.041     2.438     2.442
    54   1 H        0.926     0.041     2.436     2.441
    55   1 H        0.926     0.033     2.550     2.497
    56   1 H        0.926     0.041     2.441     2.443
    57   1 H        0.926     0.042     2.422     2.434
    58   1 H        0.926     0.044     2.399     2.422
    59   1 H        0.926     0.046     2.375     2.410
    60   1 H        0.926     0.044     2.398     2.422
    61   1 H        0.926     0.042     2.422     2.434
    62   1 H        0.926     0.035     2.514     2.479

molecular dipole:
                 x           y           z       tot (Debye)
 q only:        1.310       1.303      -1.001
   full:        1.398       1.338      -1.074       5.625

 projected vibrational frequencies (cm⁻¹)
eigval :       -0.00    -0.00     0.00     0.00     0.00     0.00
eigval :       16.13    19.32    26.20    33.87    40.28    47.16
eigval :       58.78    63.05    67.87    85.81    96.80   105.33
eigval :      116.36   139.17   144.38   153.93   160.69   170.90
eigval :      200.80   209.69   218.46   233.37   242.92   261.15
eigval :      264.90   277.55   290.64   305.66   332.75   337.99
eigval :      346.64   359.90   379.45   385.80   396.46   403.32
eigval :      413.04   413.71   427.41   434.52   436.62   452.46
eigval :      465.24   480.06   498.65   505.41   534.23   536.71
eigval :      543.04   548.85   582.22   588.43   589.30   591.75
eigval :      607.37   609.80   612.71   626.81   644.03   659.67
eigval :      668.30   672.68   672.91   682.62   688.13   707.05
eigval :      719.76   726.55   744.60   752.55   765.22   775.37
eigval :      780.42   783.41   814.24   828.05   869.09   872.33
eigval :      872.81   878.13   883.15   885.20   893.56   902.67
eigval :      906.47   908.99   911.11   918.62   920.40   922.64
eigval :      926.15   927.23   930.96   934.88   935.59   967.80
eigval :      997.44  1003.38  1023.37  1046.67  1069.33  1076.33
eigval :     1078.68  1082.72  1099.53  1112.27  1116.90  1120.39
eigval :     1144.28  1154.55  1169.51  1172.60  1175.49  1179.49
eigval :     1180.94  1184.35  1195.66  1198.06  1204.67  1210.48
eigval :     1238.35  1240.71  1245.51  1258.92  1273.82  1282.03
eigval :     1285.17  1293.16  1310.16  1315.15  1323.54  1352.38
eigval :     1360.97  1364.52  1366.11  1379.78  1411.57  1419.20
eigval :     1426.05  1426.57  1428.93  1430.23  1435.13  1458.16
eigval :     1469.90  1474.64  1480.12  1486.29  1542.88  1553.53
eigval :     1567.61  1582.43  1583.89  1585.11  1592.57  1592.98
eigval :     1597.37  1598.21  1601.39  1614.29  3063.92  3073.95
eigval :     3077.20  3077.96  3078.79  3079.36  3079.55  3082.66
eigval :     3086.68  3086.74  3087.71  3089.66  3090.86  3092.30
eigval :     3094.17  3094.31  3096.66  3097.82  3099.02  3100.04

   temp. (K)  partition function   enthalpy   heat capacity  entropy
                                   cal/mol     cal/K/mol   cal/K/mol   J/K/mol
 298.15  VIB  0.490E+14            18750.847    119.653    114.993
         ROT  0.461E+08              888.752      2.981     38.049
         INT  0.226E+22            19639.599    122.634    153.041
         TR   0.127E+29             1481.254      4.968     44.814
         TOT                       21120.8528   127.6017   197.8559   827.8292

       T/K    H(0)-H(T)+PV         H(T)/Eh          T*S/Eh         G(T)/Eh
   ------------------------------------------------------------------------
    298.15    0.336582E-01    0.479543E+00    0.940077E-01    0.385536E+00
   ------------------------------------------------------------------------

         :::::::::::::::::::::::::::::::::::::::::::::::::::::
         ::                  THERMODYNAMIC                  ::
         :::::::::::::::::::::::::::::::::::::::::::::::::::::
         :: total free energy        -111.752880204928 Eh   ::
         ::.................................................::
         :: total energy             -112.138415795207 Eh   ::
         :: zero point energy           0.445885109371 Eh   ::
         :: G(RRHO) w/o ZPVE           -0.060349519092 Eh   ::
         :: G(RRHO) contrib.            0.385535590279 Eh   ::
         :::::::::::::::::::::::::::::::::::::::::::::::::::::

           -------------------------------------------------
          | TOTAL ENERGY             -112.138415795207 Eh   |
          | TOTAL ENTHALPY           -111.658872464444 Eh   |
          | TOTAL FREE ENERGY        -111.752880204928 Eh   |
          | GRADIENT NORM               0.000020362755 Eh/α |
          | HOMO-LUMO GAP               1.512233870458 eV   |
           -------------------------------------------------

 * finished run on 2025/07/16 at 12:08:40.459
