   * xtb version 6.7.1 (edcfbbe) compiled by 'albert@albert-system' on 2024-07-22

   ID    Z sym.   atoms
    1    9 F      1, 5, 7, 42
    2    6 C      2, 4, 6, 8-21, 23-41
    3    7 N      3, 22
    4    1 H      43-62

          program call               : xtb data2507/toluene/3CzFTFP/3CzFTFP_toluene_S0_crest.xyz --gfn 2 --gbsa toluene --ohess vtight --parallel 40 --molden --ceasefiles --namespace data2507/toluene/3CzFTFP/3CzFTFP_toluene_S0_finalOpt
      * Solvation model:               GBSA
        Solvent                        toluene
        Solvent mass                       9.2140E+01 g/mol
          :  Hamiltonian                  GFN2-xTB          :
 * total energy  :  -112.1384111 Eh     change       -0.2346241E-08 Eh
 * total energy  :  -112.1384385 Eh     change       -0.2738484E-04 Eh
 * total energy  :  -112.1384503 Eh     change       -0.1183011E-04 Eh
 * total energy  :  -112.1384548 Eh     change       -0.4430345E-05 Eh
 * total energy  :  -112.1384598 Eh     change       -0.5073812E-05 Eh
 * total energy  :  -112.1384653 Eh     change       -0.5493316E-05 Eh
 * total energy  :  -112.1384700 Eh     change       -0.4679168E-05 Eh
 * total energy  :  -112.1384720 Eh     change       -0.1982793E-05 Eh
 * total energy  :  -112.1384725 Eh     change       -0.5262287E-06 Eh
 * total energy  :  -112.1384725 Eh     change        0.5532996E-07 Eh
 * total energy  :  -112.1384729 Eh     change       -0.4481814E-06 Eh
 * total energy  :  -112.1384732 Eh     change       -0.3068692E-06 Eh
 * total energy  :  -112.1384735 Eh     change       -0.3105134E-06 Eh
 * total energy  :  -112.1384738 Eh     change       -0.2790753E-06 Eh
 * total energy  :  -112.1384738 Eh     change       -0.3119806E-07 Eh
   *** GEOMETRY OPTIMIZATION CONVERGED AFTER 15 ITERATIONS ***

 final structure:
================
62
 xtb: 6.7.1 (edcfbbe)
F           -5.50655728629052       -2.83718524499497       -0.50654049034264
C           -4.35169338231635       -2.48636815858186        0.05448550158843
N           -3.89703781828765       -3.27690722910534        0.99841542543801
C           -2.76631370284673       -2.94081855880398        1.57615796180056
F           -2.33229178120419       -3.74750233432003        2.54233440911975
C           -2.03146457561617       -1.81177280655704        1.23158349162274
F           -0.90620803684920       -1.55302635335041        1.91183708498894
C           -2.47804511023848       -0.96486022361189        0.20873566869862
C           -1.73827150715174        0.29649739410979       -0.15648884670728
C           -0.22809818692606        0.13020424276187       -0.10148513159845
C            0.35075429801020       -1.03544277763583       -0.61588916947699
C            1.71761245793159       -1.22030819589679       -0.64307185007318
C            2.52231641094674       -0.20523786801947       -0.14490411176603
C            1.95194927751253        0.99465604766760        0.34031974463252
C            0.57441121272511        1.15757349272800        0.36116184176675
C            3.04720622706916        1.83853359261272        0.72619264241654
C            3.12577272715843        3.11026750846904        1.28042786133268
C            4.37259134569850        3.63377001966373        1.55785770161769
C            5.53102696480764        2.90197926871732        1.30069419013438
C            5.47831576465988        1.63565225813544        0.75051570525027
C            4.22852286493672        1.11123521968183        0.45044048578035
N            3.89470488515805       -0.12116900382878       -0.07571466418684
C            4.80006521154298       -1.12792948946974       -0.45406976579202
C            5.84192978888358       -0.83776404443495       -1.32951698738815
C            6.73463911747887       -1.83049023327290       -1.69155490427243
C            6.59022680538534       -3.11533383150326       -1.19398175963843
C            5.54933519194405       -3.40624057473982       -0.32720101729856
C            4.65727778516159       -2.41792499498290        0.04794243486499
C           -2.08366415999782        0.85621161386059       -1.52800031286329
C           -1.81742002503138        0.31735452242802       -2.76812491519855
C           -2.18631346982122        1.03690226746969       -3.89705241929012
C           -2.80243364771160        2.27348198884264       -3.78263913772936
C           -3.06379421974490        2.82300673649856       -2.53795152820818
C           -2.69941067814027        2.10938288881545       -1.40827038406563
C           -2.83677179346804        2.42877347186080        0.00362630964504
C           -3.39262117669145        3.52956162310826        0.63549533382233
C           -3.38269908646024        3.57794979366917        2.02057006444208
C           -2.82361243752234        2.54935758224101        2.76359947729499
C           -2.26637099435691        1.44090619308922        2.13797857529025
C           -2.27559439273979        1.39070436323087        0.76041561178967
C           -3.69797704890109       -1.33214074606679       -0.36907302772133
F           -4.27861490242887       -0.59043810518860       -1.32121228124081
H           -0.28721083000140       -1.82168024884131       -0.99554146179931
H            2.14158285108626       -2.12598732491131       -1.04894612901115
H            0.14155759622952        2.07258791494078        0.73413757969490
H            2.22732284753408        3.67042686580062        1.49233971465352
H            4.45681910844380        4.62105420847209        1.98772084846348
H            6.49192226355563        3.33330848918801        1.54083895663844
H            6.38026991292022        1.07079017156454        0.56984344658293
H            5.93948914681265        0.16078499643551       -1.72899241471867
H            7.54218148333015       -1.60073144904438       -2.37098562326052
H            7.28697071741936       -3.88850198391299       -1.48114392166164
H            5.43511326830697       -4.40564367516525        0.06623143930135
H            3.85540967404102       -2.63477480640576        0.73829844712367
H           -1.33520620083063       -0.64341630403980       -2.86858667747954
H           -1.98883775741420        0.62543970777128       -4.87573196944948
H           -3.08019824766378        2.81463259976457       -4.67510586173637
H           -3.54064610564192        3.78729157729920       -2.45061284265026
H           -3.82613023280172        4.33235520448126        0.05916047126953
H           -3.81420316588144        4.42776127527158        2.52862947128596
H           -2.81930790643602        2.60631143780738        3.84177408444610
H           -1.82299364197728        0.65160567072728        2.72600689302838

          :  Hamiltonian                  GFN2-xTB          :
         :: gradient norm              0.000093555427 Eh/a0 ::
         :: HOMO-LUMO gap              1.512644453451 eV    ::
         :: SCC energy              -113.912854817903 Eh    ::
         :: -> dispersion             -0.091231562122 Eh    ::
         :: -> Gsolv                  -0.038077186454 Eh    ::
         :: repulsion energy           1.774380987336 Eh    ::

    * Orbital Energies and Occupations

         #    Occupation            Energy/Eh            Energy/eV
      -------------------------------------------------------------
         1        2.0000           -0.8716752             -23.7195
       ...           ...                  ...                  ...
        89        2.0000           -0.4291010             -11.6764
        90        2.0000           -0.4278409             -11.6421
        91        2.0000           -0.4273101             -11.6277
        92        2.0000           -0.4242829             -11.5453
        93        2.0000           -0.4219992             -11.4832
        94        2.0000           -0.4159962             -11.3198
        95        2.0000           -0.4138422             -11.2612
        96        2.0000           -0.4124856             -11.2243
        97        2.0000           -0.4106302             -11.1738
        98        2.0000           -0.4062151             -11.0537
        99        2.0000           -0.3911574             -10.6439
       100        2.0000           -0.3835132             -10.4359
       101        2.0000           -0.3658223              -9.9545 (HOMO)
       102                         -0.3102336              -8.4419 (LUMO)
       103                         -0.2930122              -7.9733
       104                         -0.2630861              -7.1589
       105                         -0.2513218              -6.8388
       106                         -0.2382017              -6.4818
       107                         -0.2361509              -6.4260
       108                         -0.2325651              -6.3284
       109                         -0.2325296              -6.3275
       110                         -0.2250372              -6.1236
       111                         -0.1997795              -5.4363
       112                         -0.1957771              -5.3274
       ...                                ...                  ...
       188                          0.7386905              20.1008
      -------------------------------------------------------------
                  HL-Gap            0.0555887 Eh            1.5126 eV

     #   Z          covCN         q      C6AA      α(0)
     1   9 F        0.789    -0.168    10.907     3.901
     2   6 C        2.786     0.236    23.069     7.867
     3   7 N        1.843    -0.235    26.996     7.700
     4   6 C        2.785     0.235    23.081     7.869
     5   9 F        0.789    -0.168    10.909     3.901
     6   6 C        2.783     0.136    25.023     8.194
     7   9 F        0.787    -0.180    11.030     3.923
     8   6 C        2.980     0.011    27.764     8.643
     9   6 C        3.944     0.027    20.052     6.363
    10   6 C        2.980     0.003    27.962     8.674
    11   6 C        2.927    -0.039    28.973     8.827
    12   6 C        2.909    -0.050    29.250     8.868
    13   6 C        3.079     0.047    26.851     8.495
    14   6 C        3.069    -0.016    28.348     8.730
    15   6 C        2.915    -0.038    28.940     8.822
    16   6 C        3.068    -0.018    28.379     8.735
    17   6 C        2.912    -0.033    28.831     8.805
    18   6 C        2.920    -0.041    29.027     8.835
    19   6 C        2.924    -0.034    28.835     8.806
    20   6 C        2.909    -0.051    29.254     8.869
    21   6 C        3.080     0.048    26.845     8.494
    22   7 N        2.802    -0.041    22.037     6.972
    23   6 C        2.913     0.063    26.589     8.455
    24   6 C        2.922    -0.041    29.031     8.836
    25   6 C        2.920    -0.027    28.687     8.783
    26   6 C        2.919    -0.032    28.799     8.800
    27   6 C        2.920    -0.028    28.689     8.783
    28   6 C        2.922    -0.042    29.040     8.837
    29   6 C        3.053     0.003    27.917     8.665
    30   6 C        2.914    -0.032    28.806     8.801
    31   6 C        2.923    -0.029    28.730     8.790
    32   6 C        2.921    -0.029    28.732     8.790
    33   6 C        2.915    -0.031    28.772     8.796
    34   6 C        3.033     0.004    27.894     8.663
    35   6 C        3.033     0.006    27.862     8.658
    36   6 C        2.915    -0.032    28.790     8.799
    37   6 C        2.920    -0.029    28.720     8.788
    38   6 C        2.923    -0.031    28.767     8.796
    39   6 C        2.913    -0.035    28.870     8.811
    40   6 C        3.055     0.001    27.949     8.670
    41   6 C        2.783     0.134    25.067     8.201
    42   9 F        0.787    -0.181    11.038     3.925
    43   1 H        0.925     0.021     2.723     2.581
    44   1 H        0.926     0.037     2.491     2.468
    45   1 H        0.926     0.038     2.477     2.461
    46   1 H        0.926     0.033     2.549     2.497
    47   1 H        0.926     0.031     2.574     2.509
    48   1 H        0.926     0.033     2.542     2.493
    49   1 H        0.926     0.033     2.543     2.494
    50   1 H        0.926     0.043     2.406     2.426
    51   1 H        0.926     0.042     2.424     2.435
    52   1 H        0.926     0.041     2.441     2.443
    53   1 H        0.926     0.041     2.437     2.441
    54   1 H        0.926     0.041     2.436     2.440
    55   1 H        0.926     0.033     2.550     2.497
    56   1 H        0.926     0.041     2.441     2.443
    57   1 H        0.926     0.042     2.422     2.434
    58   1 H        0.926     0.044     2.399     2.422
    59   1 H        0.926     0.046     2.375     2.410
    60   1 H        0.926     0.044     2.398     2.422
    61   1 H        0.926     0.042     2.422     2.434
    62   1 H        0.926     0.035     2.512     2.479

molecular dipole:
                 x           y           z       tot (Debye)
 q only:        1.573       1.240      -0.645
   full:        1.670       1.275      -0.708       5.636

 projected vibrational frequencies (cm⁻¹)
eigval :       -0.00    -0.00     0.00     0.00     0.00     0.00
eigval :       16.96    21.01    25.88    36.45    41.56    48.28
eigval :       58.45    60.79    66.21    84.53    96.19   104.60
eigval :      117.77   141.16   144.93   154.39   160.98   170.83
eigval :      200.71   208.62   219.51   233.05   242.20   261.24
eigval :      264.45   277.92   290.80   305.89   332.65   338.69
eigval :      347.06   359.99   379.62   389.45   396.37   404.56
eigval :      412.87   413.62   425.97   433.87   436.52   454.32
eigval :      465.05   479.76   499.00   505.56   535.04   537.29
eigval :      543.01   549.19   582.58   588.22   589.48   592.02
eigval :      606.00   610.04   612.95   626.84   644.15   659.63
eigval :      668.13   672.07   672.75   683.12   688.00   707.71
eigval :      720.30   727.62   745.74   752.82   765.05   776.27
eigval :      781.87   785.49   814.34   828.34   868.94   872.30
eigval :      878.27   881.30   884.21   885.54   893.61   902.73
eigval :      907.08   910.69   912.74   918.74   920.58   924.36
eigval :      926.93   928.41   930.85   934.43   936.49   968.04
eigval :      997.63  1003.49  1023.72  1047.54  1070.28  1077.37
eigval :     1079.69  1083.32  1099.42  1112.51  1117.22  1121.75
eigval :     1144.67  1155.85  1169.60  1173.93  1178.02  1179.04
eigval :     1182.09  1185.54  1196.13  1198.83  1206.56  1210.75
eigval :     1238.82  1242.12  1246.80  1259.24  1275.00  1282.39
eigval :     1286.37  1293.24  1310.58  1314.99  1323.69  1352.40
eigval :     1361.19  1364.54  1366.78  1379.81  1411.49  1419.62
eigval :     1426.30  1426.70  1429.18  1430.54  1434.83  1458.49
eigval :     1470.17  1475.02  1480.52  1486.45  1542.90  1553.43
eigval :     1567.73  1582.34  1583.93  1585.14  1592.65  1592.99
eigval :     1597.52  1598.38  1601.66  1614.37  3063.23  3073.83
eigval :     3076.73  3077.97  3078.90  3079.44  3080.28  3083.35
eigval :     3086.60  3087.18  3087.60  3090.46  3091.28  3092.32
eigval :     3094.12  3094.42  3096.84  3097.71  3099.38  3100.04

   temp. (K)  partition function   enthalpy   heat capacity  entropy
                                   cal/mol     cal/K/mol   cal/K/mol   J/K/mol
 298.15  VIB  0.407E+14            18735.961    119.624    114.871
         ROT  0.461E+08              888.752      2.981     38.049
         INT  0.188E+22            19624.713    122.605    152.920
         TR   0.127E+29             1481.254      4.968     44.814
         TOT                       21105.9672   127.5729   197.7347   827.3218

       T/K    H(0)-H(T)+PV         H(T)/Eh          T*S/Eh         G(T)/Eh
   ------------------------------------------------------------------------
    298.15    0.336345E-01    0.479676E+00    0.939501E-01    0.385726E+00
   ------------------------------------------------------------------------

         :::::::::::::::::::::::::::::::::::::::::::::::::::::
         ::                  THERMODYNAMIC                  ::
         :::::::::::::::::::::::::::::::::::::::::::::::::::::
         :: total free energy        -111.752748092719 Eh   ::
         ::.................................................::
         :: total energy             -112.138473827777 Eh   ::
         :: zero point energy           0.446041356147 Eh   ::
         :: G(RRHO) w/o ZPVE           -0.060315621089 Eh   ::
         :: G(RRHO) contrib.            0.385725735058 Eh   ::
         :::::::::::::::::::::::::::::::::::::::::::::::::::::

           -------------------------------------------------
          | TOTAL ENERGY             -112.138473827777 Eh   |
          | TOTAL ENTHALPY           -111.658797972007 Eh   |
          | TOTAL FREE ENERGY        -111.752748092719 Eh   |
          | GRADIENT NORM               0.000093478145 Eh/α |
          | HOMO-LUMO GAP               1.512646470849 eV   |
           -------------------------------------------------

 * finished run on 2025/07/16 at 12:11:24.377
