   * xtb version 6.7.1 (edcfbbe) compiled by 'albert@albert-system' on 2024-07-22

   ID    Z sym.   atoms
    1    6 C      1-4, 6-17, 19-30, 32-37, 39-46
    2    7 N      5, 18, 38
    3    5 B      31
    4    1 H      47-76

          program call               : xtb data2507/toluene/PAB/PAB.xyz --gfn 2 --gbsa toluene --ohess vtight --parallel 40 --molden --ceasefiles --namespace data2507/toluene/PAB/PAB_toluene_S0_preOpt
      * Solvation model:               GBSA
        Solvent                        toluene
        Solvent mass                       9.2140E+01 g/mol
          :  Hamiltonian                  GFN2-xTB          :
 * total energy  :  -115.2698893 Eh     change       -0.1421455E-08 Eh
 * total energy  :  -115.3025307 Eh     change       -0.3264148E-01 Eh
 * total energy  :  -115.3149753 Eh     change       -0.1244452E-01 Eh
 * total energy  :  -115.3205328 Eh     change       -0.5557540E-02 Eh
 * total energy  :  -115.3241100 Eh     change       -0.3577201E-02 Eh
 * total energy  :  -115.3262659 Eh     change       -0.2155900E-02 Eh
 * total energy  :  -115.3276555 Eh     change       -0.1389594E-02 Eh
 * total energy  :  -115.3287060 Eh     change       -0.1050503E-02 Eh
 * total energy  :  -115.3295797 Eh     change       -0.8737082E-03 Eh
 * total energy  :  -115.3302372 Eh     change       -0.6574969E-03 Eh
 * total energy  :  -115.3338558 Eh     change       -0.2011829E-05 Eh
 * total energy  :  -115.3338579 Eh     change       -0.2115740E-05 Eh
 * total energy  :  -115.3338592 Eh     change       -0.1258662E-05 Eh
 * total energy  :  -115.3338600 Eh     change       -0.7951959E-06 Eh
 * total energy  :  -115.3338610 Eh     change       -0.9695942E-06 Eh
 * total energy  :  -115.3338612 Eh     change       -0.2865342E-06 Eh
 * total energy  :  -115.3338621 Eh     change       -0.8788165E-06 Eh
 * total energy  :  -115.3338624 Eh     change       -0.3241105E-06 Eh
 * total energy  :  -115.3338625 Eh     change       -0.8783925E-07 Eh
   *** GEOMETRY OPTIMIZATION CONVERGED AFTER 71 ITERATIONS ***

 final structure:
================
76
 xtb: 6.7.1 (edcfbbe)
C            0.91351535323072       -5.56332008567668       -1.89945412438107
C            0.14630502841613       -5.77609728816616       -0.76549775319434
C           -0.52878698487041       -4.72810799036207       -0.16977272075418
C           -0.45194055903616       -3.44380948568596       -0.70899058859319
N           -1.13056539508928       -2.37898060646150       -0.10487131827389
C           -2.40665693688001       -2.58167874120250        0.43210711467888
C           -2.78868878500908       -1.95094071535989        1.61639809524750
C           -4.05346256952226       -2.14890997542735        2.13519749287089
C           -4.95457860381939       -2.98199121727016        1.49194329358418
C           -4.57828608811263       -3.61779645509137        0.31977412397075
C           -3.31860772611926       -3.41879838998355       -0.21144830593969
C           -0.53245517789907       -1.11414966081962       -0.04387868844876
C            0.84225485288048       -1.01023828298568        0.13748390662336
C            1.44521458959427        0.24363270649901        0.18530579026607
C            0.67232240654662        1.41863405016151        0.06379844528312
C           -0.72228922645182        1.28690588053857       -0.11033113712007
C           -1.31496503248452        0.02843494875455       -0.16819634027200
N           -1.50035378569815        2.42053588201065       -0.22642098579134
C           -2.91721308196553        2.23952570831737       -0.25559421742635
C           -3.57873556903321        2.05644619082790       -1.46407658219342
C           -4.94845941240794        1.86028106270152       -1.47579162631940
C           -5.65958249816066        1.84574734269530       -0.28670566133582
C           -5.00012343850201        2.03123012641882        0.91688066744668
C           -3.62994956550690        2.22722015601412        0.93580400710905
C           -0.99290532483614        3.69961807197652       -0.36890144928001
C           -1.88311006745165        4.75352401530526       -0.62291834667081
C           -1.41972682557967        6.02810845588863       -0.85398589726558
C           -0.05357250192678        6.28184876159922       -0.85609942502205
C            0.82149321145590        5.25822799173122       -0.56757227045330
C            0.39493113292238        3.95657355300464       -0.27547373427568
B            1.32296168411638        2.78479992041156        0.11607614730919
C            2.80534229701349        2.77721856406585        0.55152995978666
C            3.53734411159931        3.90861858208943        0.93318377473531
C            4.87455618472081        3.85586129795977        1.25837765071809
C            5.53881983921764        2.63658258688196        1.20494974502166
C            4.84878439093547        1.48987887397533        0.88624055182374
C            3.47811542004960        1.53363867324949        0.59132771089914
N            2.81089496025457        0.34514298107727        0.35447035471710
C            3.56161776030606       -0.87034898905312        0.34018747921273
C            3.79384736610972       -1.56638782263715        1.52048187210182
C            4.50048940386704       -2.75575976695632        1.49031437577453
C            4.97499994660330       -3.25275241580332        0.28707939672658
C            4.74605046562568       -2.55689926335512       -0.88817910324512
C            4.04003069663245       -1.36644669637149       -0.86507042702993
C            0.31416059994064       -3.23783850949565       -1.85658383933872
C            0.99247709060136       -4.29002310234962       -2.44021863414757
H            1.44380418205060       -6.38372249940149       -2.35940071891382
H            0.07985860741989       -6.76471692782690       -0.33453807767337
H           -1.11848912779894       -4.89511309083136        0.72011921673143
H           -2.08504169632017       -1.30837403421572        2.12489571093973
H           -4.33495661930266       -1.65400944139629        3.05347727088915
H           -5.94151162449327       -3.13628643505156        1.90169367958438
H           -5.27440368202894       -4.26718947696370       -0.19136110851984
H           -3.03105055211409       -3.90872039782705       -1.13062579897118
H            1.42377343655347       -1.91168936360779        0.24596970889002
H           -2.37695928825978       -0.07984433869772       -0.32037631187849
H           -3.01377402208649        2.06774736320611       -2.38486506598469
H           -5.46077865215606        1.71676537114666       -2.41566453225947
H           -6.72806024528468        1.69040589117270       -0.29884362083687
H           -5.55247075545585        2.02075359638188        1.84471063899325
H           -3.10456518223327        2.36968239141673        1.86879742894467
H           -2.94615955123780        4.56623535742122       -0.65315273019232
H           -2.12243620088528        6.82534787234331       -1.05203092288276
H            0.31470942402196        7.27359692138517       -1.07699128339497
H            1.88142599183297        5.45977832016187       -0.58745953038164
H            3.02429391730371        4.85592865634180        0.99519017917322
H            5.40538429409572        4.75174554818849        1.54752992671762
H            6.59424145274192        2.58026642628575        1.43182706282863
H            5.37211365567917        0.54535194068748        0.87815503999821
H            3.41606370933549       -1.17056413028535        2.45204313916193
H            4.67870023600420       -3.29620639283500        2.40825125515220
H            5.52415023063164       -4.18218453373014        0.26611205309053
H            5.11604311423666       -2.94202469825357       -1.82670097619788
H            3.85268087040686       -0.81704529938101       -1.77599423072671
H            0.37038953834517       -2.24768105108142       -2.28470592865781
H            1.58150590270520       -4.11519246839503       -3.32894325277015

          :  Hamiltonian                  GFN2-xTB          :
         :: gradient norm              0.000133070473 Eh/a0 ::
         :: HOMO-LUMO gap              2.393121926517 eV    ::
         :: SCC energy              -117.489171798569 Eh    ::
         :: -> dispersion             -0.112734599918 Eh    ::
         :: -> Gsolv                  -0.045909744079 Eh    ::
         :: repulsion energy           2.155309266239 Eh    ::

    * Orbital Energies and Occupations

         #    Occupation            Energy/Eh            Energy/eV
      -------------------------------------------------------------
         1        2.0000           -0.6648575             -18.0917
       ...           ...                  ...                  ...
        96        2.0000           -0.4072645             -11.0822
        97        2.0000           -0.4059099             -11.0454
        98        2.0000           -0.4040724             -10.9954
        99        2.0000           -0.4032848             -10.9739
       100        2.0000           -0.4017242             -10.9315
       101        2.0000           -0.3977754             -10.8240
       102        2.0000           -0.3935024             -10.7077
       103        2.0000           -0.3907028             -10.6316
       104        2.0000           -0.3788975             -10.3103
       105        2.0000           -0.3764232             -10.2430
       106        2.0000           -0.3620867              -9.8529
       107        2.0000           -0.3461604              -9.4195
       108        2.0000           -0.3415833              -9.2950 (HOMO)
       109                         -0.2536375              -6.9018 (LUMO)
       110                         -0.2336299              -6.3574
       111                         -0.2325635              -6.3284
       112                         -0.2321256              -6.3165
       113                         -0.2321195              -6.3163
       114                         -0.2284747              -6.2171
       115                         -0.2243917              -6.1060
       116                         -0.2203966              -5.9973
       117                         -0.2197606              -5.9800
       118                         -0.2183253              -5.9409
       119                         -0.2097495              -5.7076
       ...                                ...                  ...
       214                          0.7223307              19.6556
      -------------------------------------------------------------
                  HL-Gap            0.0879457 Eh            2.3931 eV

     #   Z          covCN         q      C6AA      α(0)
     1   6 C        2.919    -0.040    28.999     8.831
     2   6 C        2.919    -0.031    28.774     8.796
     3   6 C        2.922    -0.049    29.209     8.863
     4   6 C        2.924     0.067    26.497     8.441
     5   7 N        2.754    -0.083    22.859     7.101
     6   6 C        2.923     0.067    26.497     8.441
     7   6 C        2.922    -0.048    29.194     8.861
     8   6 C        2.919    -0.031    28.775     8.797
     9   6 C        2.919    -0.040    29.003     8.831
    10   6 C        2.919    -0.031    28.774     8.796
    11   6 C        2.922    -0.049    29.213     8.864
    12   6 C        2.922     0.067    26.511     8.444
    13   6 C        2.922    -0.091    30.278     9.024
    14   6 C        2.926     0.062    26.618     8.461
    15   6 C        2.897    -0.112    30.833     9.104
    16   6 C        2.926     0.062    26.618     8.461
    17   6 C        2.921    -0.091    30.277     9.023
    18   7 N        2.755    -0.057    22.334     7.019
    19   6 C        2.933     0.069    26.456     8.435
    20   6 C        2.921    -0.037    28.929     8.820
    21   6 C        2.920    -0.028    28.704     8.786
    22   6 C        2.920    -0.030    28.758     8.794
    23   6 C        2.920    -0.027    28.682     8.782
    24   6 C        2.922    -0.037    28.929     8.820
    25   6 C        2.925     0.060    26.656     8.467
    26   6 C        2.920    -0.058    29.442     8.898
    27   6 C        2.919    -0.032    28.797     8.800
    28   6 C        2.914    -0.046    29.146     8.853
    29   6 C        2.923    -0.036    28.886     8.814
    30   6 C        2.887    -0.084    30.113     8.997
    31   5 B        2.724     0.187    18.569     7.220
    32   6 C        2.887    -0.084    30.113     8.997
    33   6 C        2.923    -0.036    28.886     8.814
    34   6 C        2.914    -0.046    29.145     8.853
    35   6 C        2.919    -0.032    28.797     8.800
    36   6 C        2.920    -0.058    29.442     8.898
    37   6 C        2.925     0.060    26.656     8.467
    38   7 N        2.755    -0.057    22.333     7.019
    39   6 C        2.933     0.069    26.456     8.435
    40   6 C        2.921    -0.037    28.929     8.820
    41   6 C        2.920    -0.028    28.704     8.786
    42   6 C        2.920    -0.030    28.758     8.794
    43   6 C        2.920    -0.027    28.683     8.783
    44   6 C        2.922    -0.037    28.929     8.820
    45   6 C        2.922    -0.048    29.189     8.860
    46   6 C        2.919    -0.031    28.774     8.796
    47   1 H        0.926     0.031     2.566     2.505
    48   1 H        0.926     0.032     2.553     2.499
    49   1 H        0.926     0.030     2.592     2.518
    50   1 H        0.926     0.031     2.570     2.507
    51   1 H        0.926     0.033     2.550     2.497
    52   1 H        0.926     0.031     2.568     2.506
    53   1 H        0.926     0.032     2.555     2.500
    54   1 H        0.926     0.029     2.594     2.519
    55   1 H        0.926     0.020     2.726     2.582
    56   1 H        0.926     0.021     2.725     2.582
    57   1 H        0.926     0.041     2.429     2.437
    58   1 H        0.926     0.042     2.421     2.433
    59   1 H        0.926     0.042     2.423     2.434
    60   1 H        0.926     0.043     2.410     2.428
    61   1 H        0.926     0.041     2.429     2.437
    62   1 H        0.926     0.020     2.735     2.586
    63   1 H        0.926     0.021     2.718     2.578
    64   1 H        0.926     0.018     2.764     2.600
    65   1 H        0.926     0.030     2.589     2.516
    66   1 H        0.926     0.030     2.589     2.516
    67   1 H        0.926     0.018     2.764     2.600
    68   1 H        0.926     0.021     2.718     2.578
    69   1 H        0.926     0.020     2.735     2.586
    70   1 H        0.926     0.041     2.430     2.437
    71   1 H        0.926     0.042     2.421     2.433
    72   1 H        0.926     0.042     2.423     2.434
    73   1 H        0.926     0.043     2.410     2.428
    74   1 H        0.926     0.041     2.429     2.437
    75   1 H        0.926     0.031     2.570     2.507
    76   1 H        0.926     0.033     2.547     2.496

molecular dipole:
                 x           y           z       tot (Debye)
 q only:       -0.456      -0.972      -0.034
   full:       -0.490      -1.040      -0.038       2.924

 projected vibrational frequencies (cm⁻¹)
eigval :       -0.00    -0.00     0.00     0.00     0.00     0.00
eigval :       15.48    19.21    23.57    26.65    34.96    36.64
eigval :       39.28    56.01    63.32    69.32    71.42    74.86
eigval :       77.20    83.23    92.41   117.71   140.88   166.26
eigval :      182.32   186.77   191.52   209.87   213.51   222.52
eigval :      238.59   238.96   242.40   260.00   268.84   284.37
eigval :      315.22   348.26   373.67   376.63   377.23   378.87
eigval :      382.95   384.11   387.80   397.25   401.52   416.93
eigval :      442.60   449.85   480.80   481.24   491.65   496.64
eigval :      497.32   500.67   501.10   550.20   568.76   575.17
eigval :      578.79   582.71   587.76   589.60   593.05   593.80
eigval :      599.63   606.18   617.58   635.59   648.34   656.16
eigval :      662.65   669.16   676.90   679.72   680.63   689.11
eigval :      711.01   738.51   747.88   756.35   759.86   770.69
eigval :      770.89   772.62   777.37   815.81   840.01   866.05
eigval :      866.97   871.60   874.29   875.20   875.87   877.43
eigval :      890.62   892.04   895.74   899.80   902.03   903.26
eigval :      909.58   910.83   917.81   918.79   923.48   925.90
eigval :      926.38   927.69   928.45   928.87   928.88   930.12
eigval :      931.91   932.14   933.79   978.31   990.57   994.04
eigval :     1004.77  1065.84  1077.26  1078.47  1082.17  1082.81
eigval :     1087.85  1093.76  1104.39  1112.18  1113.20  1114.66
eigval :     1120.64  1123.23  1139.34  1169.24  1178.43  1179.09
eigval :     1179.64  1180.66  1181.56  1183.51  1186.10  1187.56
eigval :     1188.20  1193.89  1196.40  1212.31  1221.42  1241.61
eigval :     1257.88  1264.75  1267.70  1272.40  1274.17  1276.85
eigval :     1282.76  1285.05  1300.11  1306.76  1307.71  1308.10
eigval :     1311.15  1316.62  1318.87  1326.02  1333.90  1334.83
eigval :     1355.55  1382.35  1420.87  1422.42  1426.04  1431.15
eigval :     1431.73  1434.55  1440.79  1450.75  1451.53  1465.13
eigval :     1470.27  1471.57  1473.79  1476.74  1535.26  1549.06
eigval :     1550.49  1563.23  1575.39  1579.75  1582.68  1582.71
eigval :     1591.02  1591.91  1592.49  1594.30  1595.37  1599.31
eigval :     3060.26  3060.66  3069.87  3070.27  3070.47  3071.14
eigval :     3071.38  3072.70  3076.54  3077.29  3078.71  3078.73
eigval :     3080.68  3082.07  3084.62  3085.12  3085.42  3087.41
eigval :     3087.99  3088.97  3089.01  3089.53  3092.72  3093.04
eigval :     3094.69  3096.98  3097.20  3098.24  3106.06  3108.05

   temp. (K)  partition function   enthalpy   heat capacity  entropy
                                   cal/mol     cal/K/mol   cal/K/mol   J/K/mol
 298.15  VIB  0.855E+16            21041.519    134.909    130.024
         ROT  0.549E+08              888.752      2.981     38.395
         INT  0.469E+24            21930.271    137.890    168.419
         TR   0.138E+29             1481.254      4.968     44.976
         TOT                       23411.5250   142.8584   213.3951   892.8451

       T/K    H(0)-H(T)+PV         H(T)/Eh          T*S/Eh         G(T)/Eh
   ------------------------------------------------------------------------
    298.15    0.373086E-01    0.624805E+00    0.101391E+00    0.523414E+00
   ------------------------------------------------------------------------

         :::::::::::::::::::::::::::::::::::::::::::::::::::::
         ::                  THERMODYNAMIC                  ::
         :::::::::::::::::::::::::::::::::::::::::::::::::::::
         :: total free energy        -114.810448352704 Eh   ::
         ::.................................................::
         :: total energy             -115.333862531150 Eh   ::
         :: zero point energy           0.587496432748 Eh   ::
         :: G(RRHO) w/o ZPVE           -0.064082254303 Eh   ::
         :: G(RRHO) contrib.            0.523414178445 Eh   ::
         :::::::::::::::::::::::::::::::::::::::::::::::::::::

           -------------------------------------------------
          | TOTAL ENERGY             -115.333862531150 Eh   |
          | TOTAL ENTHALPY           -114.709057458526 Eh   |
          | TOTAL FREE ENERGY        -114.810448352704 Eh   |
          | GRADIENT NORM               0.000133103157 Eh/α |
          | HOMO-LUMO GAP               2.393125661657 eV   |
           -------------------------------------------------

 * finished run on 2025/09/11 at 05:13:17.655
