   * xtb version 6.7.1 (edcfbbe) compiled by 'albert@albert-system' on 2024-07-22

   ID    Z sym.   atoms
    1    6 C      1-4, 6-17, 19-30, 32-37, 39-46
    2    7 N      5, 18, 38
    3    5 B      31
    4    1 H      47-76

          program call               : xtb data2507/toluene/PAB/PAB_toluene_S0_crest.xyz --gfn 2 --gbsa toluene --ohess vtight --parallel 40 --molden --ceasefiles --namespace data2507/toluene/PAB/PAB_toluene_S0_finalOpt
      * Solvation model:               GBSA
        Solvent                        toluene
        Solvent mass                       9.2140E+01 g/mol
          :  Hamiltonian                  GFN2-xTB          :
 * total energy  :  -115.3326148 Eh     change       -0.3550014E-08 Eh
 * total energy  :  -115.3326706 Eh     change       -0.5577661E-04 Eh
 * total energy  :  -115.3327567 Eh     change       -0.8608615E-04 Eh
 * total energy  :  -115.3328011 Eh     change       -0.4444055E-04 Eh
 * total energy  :  -115.3329527 Eh     change       -0.1515788E-03 Eh
 * total energy  :  -115.3332514 Eh     change       -0.2986947E-03 Eh
 * total energy  :  -115.3333826 Eh     change       -0.1312115E-03 Eh
 * total energy  :  -115.3334941 Eh     change       -0.1114794E-03 Eh
 * total energy  :  -115.3335263 Eh     change       -0.3226350E-04 Eh
 * total energy  :  -115.3335627 Eh     change       -0.3637271E-04 Eh
 * total energy  :  -115.3338484 Eh     change       -0.5268969E-06 Eh
 * total energy  :  -115.3338488 Eh     change       -0.3639728E-06 Eh
 * total energy  :  -115.3338491 Eh     change       -0.2944627E-06 Eh
 * total energy  :  -115.3338494 Eh     change       -0.3248862E-06 Eh
 * total energy  :  -115.3338499 Eh     change       -0.4379812E-06 Eh
 * total energy  :  -115.3338504 Eh     change       -0.4857243E-06 Eh
 * total energy  :  -115.3338508 Eh     change       -0.4292941E-06 Eh
 * total energy  :  -115.3338510 Eh     change       -0.2526979E-06 Eh
 * total energy  :  -115.3338510 Eh     change       -0.2540290E-08 Eh
   *** GEOMETRY OPTIMIZATION CONVERGED AFTER 44 ITERATIONS ***

 final structure:
================
76
 xtb: 6.7.1 (edcfbbe)
C           -4.63894287782863       -3.50711628316974        1.71387798020531
C           -3.51114089921336       -2.96021638702864        2.30461176568765
C           -2.89406598695149       -1.85691397869928        1.74804921933390
C           -3.39369752790763       -1.28624627150124        0.57706118088361
N           -2.76322417219062       -0.17868117844724       -0.00160732497965
C           -3.53183046043921        0.83667187232593       -0.58242859363062
C           -3.10814147789378        1.46816974094498       -1.75215927172557
C           -3.86303446141473        2.48107817141320       -2.31068852360072
C           -5.05428534291355        2.87538608192813       -1.72311634923931
C           -5.48605924825986        2.24455587449083       -0.56755537379049
C           -4.73308975815391        1.23668710532713        0.00349957549945
C           -1.36590133924329       -0.08798441932630       -0.00152110653712
C           -0.75416102190330        1.15399032910704        0.12764861854348
C            0.63454819054189        1.24983385865988        0.12252967307283
C            1.43560168210769        0.09436097231629       -0.00301788979749
C            0.79102709381229       -1.15535422411018       -0.12676095395815
C           -0.59843463460250       -1.24032143104917       -0.13059284116894
N            1.55155470733258       -2.30054171761572       -0.24614335251943
C            0.86257688645021       -3.55117627158681       -0.19909906321937
C            0.37032676180038       -4.13028428753771       -1.36260250183367
C           -0.31378525138237       -5.33135566435110       -1.29679378772291
C           -0.50748016005926       -5.95617348764207       -0.07536867030818
C           -0.01368261738510       -5.38022451726716        1.08318314326479
C            0.67006741685454       -4.17806790233732        1.02471007042796
C            2.92070928925895       -2.30552003841909       -0.44459037885099
C            3.55806642293275       -3.52620514945020       -0.71144484975129
C            4.90494349932515       -3.57340497481533       -0.98794270270112
C            5.64835687634493       -2.40016187573867       -1.02682942514334
C            5.03329796379133       -1.20346736061092       -0.73285363946522
C            3.67690105786626       -1.11110055077092       -0.39654824273142
B            2.94654628019914        0.19278768023610       -0.00392757062118
C            3.50205136337163        1.57971705091156        0.39067792365258
C            4.83472374924287        1.84619970660972        0.72908399154987
C            5.28869253021274        3.11142025865029        1.02913503564725
C            4.39928419298311        4.17833585354610        0.99298157173275
C            3.07047746726320        3.95798047865069        0.71292723116385
C            2.59722477425476        2.66576118744081        0.44156131910385
N            1.24039907113812        2.48379509917562        0.24230078500106
C            0.39495000991518        3.63453072463070        0.19865053653093
C            0.12729000425823        4.23853786375107       -1.02246922191145
C           -0.70807809997381        5.34097045331497       -1.07724358534228
C           -1.27884475606381        5.83930808283375        0.08195329181707
C           -1.00931840659535        5.23810305847447        1.30090046629891
C           -0.17331962897243        4.13719651553857        1.36302810364700
C           -4.53060367552012       -1.83999247487854       -0.01202153746570
C           -5.14667239673080       -2.93789590303791        0.55717467967179
H           -5.11960098147948       -4.36876982260691        2.15248557781618
H           -3.11218189549837       -3.39144215328966        3.21138151732510
H           -2.01966624534982       -1.42758292183201        2.21492709974097
H           -2.18383205347421        1.15724436828870       -2.21674147448275
H           -3.52139985878756        2.96131640588383       -3.21625109808610
H           -5.64239163983114        3.66668178974555       -2.16324212219031
H           -6.41250128116843        2.54607707023613       -0.10031886798017
H           -5.06762678279355        0.75363537817016        0.91034444969014
H           -1.37092424518445        2.03105969536085        0.24069688657894
H           -1.09654950693671       -2.18983988348703       -0.24325746248947
H            0.52626984162220       -3.63360489575794       -2.30931471963665
H           -0.69783528668738       -5.77902282129899       -2.20148944650978
H           -1.04338594923130       -6.89232761659609       -0.02732503317155
H           -0.16238622589186       -5.86602786001831        2.03604921135124
H            1.05759003755947       -3.71792121156658        1.92187760750347
H            2.98732928760566       -4.44295259879855       -0.71475584909568
H            5.37581940934226       -4.52443129957560       -1.19406250971487
H            6.69841331599923       -2.43005134277341       -1.28083291289450
H            5.61321280086161       -0.29487923152663       -0.78429244438852
H            5.52774360459548        1.02049952580269        0.77789984465216
H            6.32539065159686        3.27669876308522        1.28596123008797
H            4.74241456674988        5.18151646035126        1.20385275717677
H            2.38560234224848        4.79283087115504        0.71790178618216
H            0.57572980312936        3.83892376185638       -1.92027839649996
H           -0.91518018491878        5.80936984711307       -2.02795400244101
H           -1.93307105098104        6.69712917507209        0.03651483271792
H           -1.45171051165838        5.62625416100509        2.20644462940229
H            0.04331919049612        3.65949397501399        2.30752142655352
H           -4.92264482472115       -1.40498519068125       -0.92010409868898
H           -6.02478858096846       -3.35757780071877        0.08770626426722

          :  Hamiltonian                  GFN2-xTB          :
         :: gradient norm              0.000040326605 Eh/a0 ::
         :: HOMO-LUMO gap              2.394072944696 eV    ::
         :: SCC energy              -117.489157559887 Eh    ::
         :: -> dispersion             -0.112811201392 Eh    ::
         :: -> Gsolv                  -0.045895917399 Eh    ::
         :: repulsion energy           2.155306518681 Eh    ::

    * Orbital Energies and Occupations

         #    Occupation            Energy/Eh            Energy/eV
      -------------------------------------------------------------
         1        2.0000           -0.6647692             -18.0893
       ...           ...                  ...                  ...
        96        2.0000           -0.4072937             -11.0830
        97        2.0000           -0.4059261             -11.0458
        98        2.0000           -0.4040971             -10.9960
        99        2.0000           -0.4032576             -10.9732
       100        2.0000           -0.4017419             -10.9320
       101        2.0000           -0.3976821             -10.8215
       102        2.0000           -0.3934744             -10.7070
       103        2.0000           -0.3906355             -10.6297
       104        2.0000           -0.3788132             -10.3080
       105        2.0000           -0.3764398             -10.2434
       106        2.0000           -0.3621371              -9.8543
       107        2.0000           -0.3461350              -9.4188
       108        2.0000           -0.3415616              -9.2944 (HOMO)
       109                         -0.2535811              -6.9003 (LUMO)
       110                         -0.2335952              -6.3564
       111                         -0.2325994              -6.3294
       112                         -0.2321131              -6.3161
       113                         -0.2320858              -6.3154
       114                         -0.2284948              -6.2177
       115                         -0.2243981              -6.1062
       116                         -0.2204632              -5.9991
       117                         -0.2197482              -5.9797
       118                         -0.2181724              -5.9368
       119                         -0.2097318              -5.7071
       ...                                ...                  ...
       214                          0.7223870              19.6572
      -------------------------------------------------------------
                  HL-Gap            0.0879805 Eh            2.3941 eV

     #   Z          covCN         q      C6AA      α(0)
     1   6 C        2.919    -0.040    29.000     8.831
     2   6 C        2.919    -0.031    28.775     8.797
     3   6 C        2.922    -0.048    29.190     8.860
     4   6 C        2.923     0.067    26.498     8.442
     5   7 N        2.754    -0.083    22.851     7.100
     6   6 C        2.923     0.067    26.498     8.442
     7   6 C        2.922    -0.048    29.190     8.860
     8   6 C        2.919    -0.031    28.775     8.797
     9   6 C        2.919    -0.040    29.001     8.831
    10   6 C        2.919    -0.031    28.774     8.796
    11   6 C        2.922    -0.049    29.211     8.863
    12   6 C        2.922     0.067    26.511     8.444
    13   6 C        2.922    -0.091    30.283     9.024
    14   6 C        2.926     0.062    26.618     8.461
    15   6 C        2.897    -0.112    30.835     9.105
    16   6 C        2.926     0.062    26.618     8.461
    17   6 C        2.922    -0.091    30.282     9.024
    18   7 N        2.755    -0.057    22.340     7.020
    19   6 C        2.933     0.069    26.456     8.435
    20   6 C        2.921    -0.037    28.929     8.820
    21   6 C        2.920    -0.028    28.706     8.786
    22   6 C        2.920    -0.030    28.757     8.794
    23   6 C        2.920    -0.027    28.681     8.782
    24   6 C        2.922    -0.037    28.929     8.820
    25   6 C        2.925     0.060    26.656     8.467
    26   6 C        2.920    -0.058    29.441     8.898
    27   6 C        2.919    -0.032    28.797     8.800
    28   6 C        2.914    -0.046    29.145     8.853
    29   6 C        2.923    -0.036    28.885     8.814
    30   6 C        2.887    -0.084    30.113     8.997
    31   5 B        2.724     0.187    18.568     7.220
    32   6 C        2.887    -0.084    30.113     8.997
    33   6 C        2.923    -0.036    28.886     8.814
    34   6 C        2.914    -0.046    29.145     8.853
    35   6 C        2.919    -0.032    28.798     8.800
    36   6 C        2.920    -0.058    29.441     8.898
    37   6 C        2.925     0.060    26.656     8.467
    38   7 N        2.755    -0.057    22.340     7.020
    39   6 C        2.933     0.069    26.456     8.435
    40   6 C        2.922    -0.037    28.930     8.820
    41   6 C        2.920    -0.027    28.681     8.782
    42   6 C        2.920    -0.030    28.757     8.794
    43   6 C        2.920    -0.028    28.706     8.786
    44   6 C        2.921    -0.037    28.929     8.820
    45   6 C        2.922    -0.049    29.211     8.863
    46   6 C        2.919    -0.031    28.774     8.796
    47   1 H        0.926     0.031     2.567     2.505
    48   1 H        0.926     0.033     2.549     2.497
    49   1 H        0.926     0.031     2.568     2.506
    50   1 H        0.926     0.031     2.569     2.506
    51   1 H        0.926     0.033     2.549     2.497
    52   1 H        0.926     0.031     2.567     2.505
    53   1 H        0.926     0.032     2.553     2.499
    54   1 H        0.926     0.030     2.591     2.517
    55   1 H        0.926     0.021     2.722     2.580
    56   1 H        0.926     0.021     2.723     2.581
    57   1 H        0.926     0.042     2.428     2.437
    58   1 H        0.926     0.042     2.422     2.434
    59   1 H        0.926     0.042     2.423     2.434
    60   1 H        0.926     0.043     2.410     2.428
    61   1 H        0.926     0.041     2.431     2.438
    62   1 H        0.926     0.020     2.736     2.586
    63   1 H        0.926     0.021     2.718     2.578
    64   1 H        0.926     0.018     2.765     2.600
    65   1 H        0.926     0.030     2.590     2.517
    66   1 H        0.926     0.030     2.590     2.517
    67   1 H        0.926     0.018     2.765     2.600
    68   1 H        0.926     0.021     2.718     2.578
    69   1 H        0.926     0.020     2.736     2.586
    70   1 H        0.926     0.041     2.431     2.438
    71   1 H        0.926     0.043     2.410     2.428
    72   1 H        0.926     0.042     2.423     2.434
    73   1 H        0.926     0.042     2.422     2.434
    74   1 H        0.926     0.042     2.428     2.437
    75   1 H        0.926     0.030     2.591     2.517
    76   1 H        0.926     0.032     2.553     2.499

molecular dipole:
                 x           y           z       tot (Debye)
 q only:       -1.076      -0.071       0.001
   full:       -1.152      -0.076       0.002       2.933

 projected vibrational frequencies (cm⁻¹)
eigval :       -0.00    -0.00     0.00     0.00     0.00     0.00
eigval :       13.59    15.78    22.62    28.60    34.68    35.79
eigval :       41.65    55.63    61.98    66.72    71.07    73.66
eigval :       74.52    82.81    91.54   115.73   141.08   165.75
eigval :      182.19   186.37   193.35   209.44   212.12   223.35
eigval :      238.15   238.71   242.21   260.47   269.61   284.13
eigval :      314.78   348.30   373.28   377.71   378.58   379.35
eigval :      383.02   385.20   388.42   397.29   400.07   416.42
eigval :      442.03   448.79   480.85   481.20   491.40   496.87
eigval :      496.96   500.19   500.28   550.21   568.53   574.13
eigval :      578.72   582.62   587.68   589.21   592.50   593.90
eigval :      599.20   605.85   617.19   635.53   648.42   656.46
eigval :      662.67   669.21   677.64   680.74   681.09   687.46
eigval :      710.79   738.41   747.60   756.50   760.55   767.08
eigval :      768.83   771.01   777.54   814.94   838.53   862.64
eigval :      866.70   867.59   874.90   876.19   877.40   878.03
eigval :      889.05   893.05   895.40   900.05   902.78   902.97
eigval :      908.97   910.79   917.74   918.09   920.98   925.20
eigval :      927.10   927.89   928.68   929.13   930.15   930.30
eigval :      931.74   932.47   932.94   978.15   990.48   993.98
eigval :     1004.71  1065.93  1077.06  1077.44  1082.07  1082.90
eigval :     1087.54  1093.78  1104.36  1111.41  1111.78  1113.65
eigval :     1119.36  1122.53  1139.48  1169.39  1177.63  1178.32
eigval :     1178.97  1179.26  1181.86  1183.26  1186.00  1186.47
eigval :     1188.91  1192.67  1196.00  1212.54  1221.62  1241.79
eigval :     1258.45  1264.67  1267.75  1272.30  1272.42  1277.09
eigval :     1282.91  1285.39  1300.40  1306.39  1307.95  1308.27
eigval :     1311.23  1316.58  1318.81  1325.91  1333.69  1334.65
eigval :     1355.73  1382.29  1420.78  1422.33  1426.03  1431.12
eigval :     1431.40  1434.51  1440.82  1450.66  1451.65  1464.95
eigval :     1469.88  1471.52  1473.83  1476.28  1535.18  1548.98
eigval :     1550.38  1563.39  1575.34  1579.65  1582.67  1582.75
eigval :     1591.06  1591.94  1592.50  1594.30  1595.33  1599.36
eigval :     3060.60  3061.24  3069.67  3070.09  3070.44  3070.89
eigval :     3071.15  3071.63  3076.50  3076.75  3077.99  3078.50
eigval :     3080.35  3081.35  3083.57  3084.00  3084.75  3084.99
eigval :     3086.49  3087.24  3088.64  3088.78  3092.65  3092.87
eigval :     3093.44  3096.85  3096.97  3098.37  3106.53  3108.55

   temp. (K)  partition function   enthalpy   heat capacity  entropy
                                   cal/mol     cal/K/mol   cal/K/mol   J/K/mol
 298.15  VIB  0.127E+17            21065.260    134.900    130.524
         ROT  0.274E+08              888.752      2.981     37.017
         INT  0.347E+24            21954.012    137.881    167.541
         TR   0.138E+29             1481.254      4.968     44.976
         TOT                       23435.2662   142.8493   212.5168   889.1705

       T/K    H(0)-H(T)+PV         H(T)/Eh          T*S/Eh         G(T)/Eh
   ------------------------------------------------------------------------
    298.15    0.373465E-01    0.624700E+00    0.100974E+00    0.523727E+00
   ------------------------------------------------------------------------

         :::::::::::::::::::::::::::::::::::::::::::::::::::::
         ::                  THERMODYNAMIC                  ::
         :::::::::::::::::::::::::::::::::::::::::::::::::::::
         :: total free energy        -114.810124190257 Eh   ::
         ::.................................................::
         :: total energy             -115.333851039253 Eh   ::
         :: zero point energy           0.587353983556 Eh   ::
         :: G(RRHO) w/o ZPVE           -0.063627134561 Eh   ::
         :: G(RRHO) contrib.            0.523726848996 Eh   ::
         :::::::::::::::::::::::::::::::::::::::::::::::::::::

           -------------------------------------------------
          | TOTAL ENERGY             -115.333851039253 Eh   |
          | TOTAL ENTHALPY           -114.709150581862 Eh   |
          | TOTAL FREE ENERGY        -114.810124190257 Eh   |
          | GRADIENT NORM               0.000040323016 Eh/α |
          | HOMO-LUMO GAP               2.394072464318 eV   |
           -------------------------------------------------

 * finished run on 2025/09/11 at 05:17:53.570
