   * xtb version 6.7.1 (edcfbbe) compiled by 'albert@albert-system' on 2024-07-22

   ID    Z sym.   atoms
    1    6 C      1-4, 6-17, 19-30, 32-37, 39-46
    2    7 N      5, 18, 38
    3    5 B      31
    4    1 H      47-76

          program call               : xtb data2507/toluene/PAB/PAB_toluene_S0_finalOpt.xtbopt.xyz --gfn 2 --uhf 2 --gbsa toluene --ohess vtight --parallel 40 --molden --ceasefiles --namespace data2507/toluene/PAB/PAB_toluene_T1_preOpt
      * Solvation model:               GBSA
        Solvent                        toluene
        Solvent mass                       9.2140E+01 g/mol
          :  Hamiltonian                  GFN2-xTB          :
 * total energy  :  -115.2394781 Eh     change       -0.4232390E-08 Eh
 * total energy  :  -115.2403875 Eh     change       -0.9093645E-03 Eh
 * total energy  :  -115.2405872 Eh     change       -0.1997404E-03 Eh
 * total energy  :  -115.2406022 Eh     change       -0.1501143E-04 Eh
 * total energy  :  -115.2406125 Eh     change       -0.1027838E-04 Eh
 * total energy  :  -115.2406190 Eh     change       -0.6495335E-05 Eh
 * total energy  :  -115.2406301 Eh     change       -0.1106275E-04 Eh
 * total energy  :  -115.2406378 Eh     change       -0.7771727E-05 Eh
 * total energy  :  -115.2406426 Eh     change       -0.4742059E-05 Eh
 * total energy  :  -115.2406452 Eh     change       -0.2597605E-05 Eh
 * total energy  :  -115.2407342 Eh     change       -0.1536494E-05 Eh
 * total energy  :  -115.2407361 Eh     change       -0.1846921E-05 Eh
 * total energy  :  -115.2407383 Eh     change       -0.2196782E-05 Eh
 * total energy  :  -115.2407400 Eh     change       -0.1710034E-05 Eh
 * total energy  :  -115.2407410 Eh     change       -0.1081855E-05 Eh
 * total energy  :  -115.2407418 Eh     change       -0.7369168E-06 Eh
 * total energy  :  -115.2407426 Eh     change       -0.7782697E-06 Eh
 * total energy  :  -115.2407431 Eh     change       -0.4991850E-06 Eh
 * total energy  :  -115.2407431 Eh     change       -0.4211728E-07 Eh
   *** GEOMETRY OPTIMIZATION CONVERGED AFTER 37 ITERATIONS ***

 final structure:
================
76
 xtb: 6.7.1 (edcfbbe)
C           -4.61321966065216       -3.44849723201487        1.85951286514493
C           -3.46873836803511       -2.88472414892180        2.40309073734088
C           -2.86710366332123       -1.79981274915633        1.79829036859308
C           -3.40342398714075       -1.25789606668581        0.62701953730524
N           -2.78124690378177       -0.17937492017017       -0.00435997048201
C           -3.53766866077362        0.80808588548393       -0.63850129342113
C           -3.07629737886693        1.41031664322391       -1.81215189594726
C           -3.81323594748535        2.40607723091521       -2.42052445801736
C           -5.02071006642229        2.81922877340775       -1.87802965449264
C           -5.48697036063656        2.22173332653023       -0.71647628766002
C           -4.75565260052206        1.22831454043150       -0.09709474951680
C           -1.38405920610665       -0.08853499985331       -0.00471973093875
C           -0.75588327331059        1.15552205611058        0.13448924173481
C            0.63296714318103        1.24572984856636        0.12200939424141
C            1.44358541364225        0.09521067298174       -0.00476410866957
C            0.78866121442878       -1.15044749525915       -0.13205446246592
C           -0.60006865884604       -1.24093600736713       -0.14378783109197
N            1.55157777223782       -2.30357208687913       -0.25204440485585
C            0.85242868299679       -3.54680081537690       -0.25428029935779
C            0.45308786678526       -4.12893489692097       -1.45193302316710
C           -0.23838480484258       -5.32725664619079       -1.43673606941955
C           -0.53433096106553       -5.94576344178957       -0.23252495909187
C           -0.13542249734340       -5.36535190290607        0.96011760701847
C            0.55656074485958       -4.16680880357221        0.95312811778240
C            2.92574339463117       -2.31830142868854       -0.42381325818782
C            3.55842889935997       -3.54321253137474       -0.65272100908101
C            4.92043885838674       -3.60242263568357       -0.90840131501837
C            5.65624922760327       -2.42705655518114       -0.96244031435633
C            5.04186590432637       -1.21670527339048       -0.70447073268981
C            3.68041701939011       -1.10978322307151       -0.37269990683640
B            2.95293580572965        0.19260706684962       -0.00005096383835
C            3.50459066219548        1.57761266940523        0.37622696350561
C            4.83862895915226        1.85860394332125        0.71773824060929
C            5.29106386507590        3.13818217227444        0.97653996796987
C            4.41215694099023        4.21000713724812        0.90864480006563
C            3.07109284281452        3.97666265376237        0.64215586089455
C            2.60081257643714        2.67957981523772        0.41940037774998
N            1.24029236506199        2.48782536872282        0.24469188456567
C            0.38502139894457        3.62895474952543        0.25499210569647
C           -0.01956204845528        4.19196847900572       -0.94894094326749
C           -0.86207756460940        5.28983173016082       -0.94689403750957
C           -1.30401668404756        5.82618204055284        0.25128894684029
C           -0.90094144480488        5.26375855927441        1.45202089102188
C           -0.05813163473022        4.16666178788843        1.45817306997734
C           -4.55767893837891       -1.82975932945899        0.08485207076023
C           -5.15410167183859       -2.91156317819552        0.70070210556491
H           -5.08094219635174       -4.29706707444581        2.33553667329491
H           -3.04538952431356       -3.29000204718812        3.31065982301233
H           -1.98205172822004       -1.35508082813241        2.22916722216290
H           -2.14145639198101        1.08163901795890       -2.24199930733145
H           -3.44585465097693        2.85966082867513       -3.32966018664171
H           -5.59395912727946        3.59881588709634       -2.35653768115699
H           -6.42468906809162        2.53986712641730       -0.28436707232675
H           -5.11464631343428        0.77464299308380        0.81532249363780
H           -1.37068081383057        2.03448970773950        0.24920609182988
H           -1.09568560679120       -2.19239252142211       -0.25654059960225
H            0.68917153292958       -3.63758903736252       -2.38454146866737
H           -0.54808383365292       -5.77757313883200       -2.36810941562338
H           -1.07491245680175       -6.88023476432892       -0.22441226811901
H           -0.36381431609180       -5.84549089222875        1.89985417184094
H            0.87357315500365       -3.70517320466170        1.87658605604486
H            2.98927577374674       -4.46056964888519       -0.64405430281159
H            5.39253507751692       -4.55842052933660       -1.08205716716088
H            6.71221565234230       -2.46031903784955       -1.19478836273549
H            5.62720665905006       -0.31275071320482       -0.76880004898678
H            5.53399846847975        1.03695694345401        0.79035210712283
H            6.33171313740540        3.30702889337132        1.21878460817989
H            4.75733249463313        5.21923251677983        1.07940589175688
H            2.39045751687514        4.81432966300509        0.62059329093341
H            0.33150969436760        3.76543624305077       -1.87698776410182
H           -1.17466063781906        5.72567064874868       -1.88404397658770
H           -1.96130056711313        6.68268229780177        0.25023192095349
H           -1.24421600816219        5.67941067809180        2.38780819008611
H            0.26348493330804        3.72065550139048        2.38797905967809
H           -4.97304026867910       -1.42284017596996       -0.82563266408325
H           -6.04379375003472       -3.34581886143715        0.26797443094316

          :  Hamiltonian                  GFN2-xTB          :
         :: gradient norm              0.000186131678 Eh/a0 ::
         :: HOMO-LUMO gap              0.361011996866 eV    ::
         :: SCC energy              -117.379264188191 Eh    ::
         :: -> dispersion             -0.112543231201 Eh    ::
         :: -> Gsolv                  -0.046709949201 Eh    ::
         :: repulsion energy           2.138521083434 Eh    ::

    * Orbital Energies and Occupations

         #    Occupation            Energy/Eh            Energy/eV
      -------------------------------------------------------------
         1        2.0000           -0.6683504             -18.1867
       ...           ...                  ...                  ...
        97        2.0000           -0.4077684             -11.0959
        98        2.0000           -0.4061543             -11.0520
        99        2.0000           -0.4051629             -11.0250
       100        2.0000           -0.3990486             -10.8587
       101        2.0000           -0.3984152             -10.8414
       102        2.0000           -0.3884587             -10.5705
       103        2.0000           -0.3833100             -10.4304
       104        2.0000           -0.3733121             -10.1583
       105        2.0000           -0.3702679             -10.0755
       106        2.0000           -0.3602815              -9.8038
       107        1.8453           -0.3497823              -9.5181
       108        1.1547           -0.3465556              -9.4303
       109        0.9989           -0.2491408              -6.7795 (HOMO)
       110        0.0008           -0.2358739              -6.4185 (LUMO)
       111        0.0002           -0.2344631              -6.3801
       112        0.0001           -0.2341466              -6.3715
       113        0.0001           -0.2338756              -6.3641
       114        0.0000           -0.2310541              -6.2873
       115                         -0.2261206              -6.1531
       116                         -0.2221494              -6.0450
       117                         -0.2212664              -6.0210
       118                         -0.2203386              -5.9957
       119                         -0.2051869              -5.5834
       120                         -0.2024355              -5.5085
       ...                                ...                  ...
       214                          0.7275000              19.7963
      -------------------------------------------------------------
                  HL-Gap            0.0132670 Eh            0.3610 eV

     #   Z          covCN         q      C6AA      α(0)
     1   6 C        2.918    -0.040    28.992     8.830
     2   6 C        2.919    -0.030    28.759     8.794
     3   6 C        2.922    -0.048    29.187     8.859
     4   6 C        2.924     0.063    26.590     8.456
     5   7 N        2.752    -0.064    22.480     7.042
     6   6 C        2.924     0.063    26.590     8.456
     7   6 C        2.922    -0.048    29.185     8.859
     8   6 C        2.919    -0.030    28.758     8.794
     9   6 C        2.918    -0.040    28.991     8.829
    10   6 C        2.919    -0.030    28.759     8.794
    11   6 C        2.921    -0.048    29.188     8.860
    12   6 C        2.921     0.042    27.054     8.530
    13   6 C        2.918    -0.066    29.631     8.926
    14   6 C        2.923     0.053    26.815     8.492
    15   6 C        2.895    -0.105    30.646     9.077
    16   6 C        2.923     0.053    26.812     8.492
    17   6 C        2.918    -0.066    29.635     8.927
    18   7 N        2.755    -0.037    21.956     6.959
    19   6 C        2.933     0.067    26.500     8.442
    20   6 C        2.921    -0.037    28.914     8.818
    21   6 C        2.920    -0.027    28.688     8.783
    22   6 C        2.919    -0.030    28.749     8.793
    23   6 C        2.920    -0.027    28.667     8.780
    24   6 C        2.922    -0.037    28.913     8.818
    25   6 C        2.922     0.060    26.661     8.467
    26   6 C        2.919    -0.062    29.553     8.915
    27   6 C        2.916    -0.046    29.136     8.851
    28   6 C        2.912    -0.036    28.898     8.815
    29   6 C        2.920    -0.051    29.279     8.873
    30   6 C        2.884    -0.072    29.785     8.947
    31   5 B        2.724     0.137    19.317     7.365
    32   6 C        2.884    -0.072    29.785     8.947
    33   6 C        2.920    -0.051    29.279     8.873
    34   6 C        2.912    -0.036    28.897     8.815
    35   6 C        2.916    -0.046    29.137     8.852
    36   6 C        2.919    -0.062    29.552     8.914
    37   6 C        2.922     0.060    26.660     8.467
    38   7 N        2.755    -0.037    21.952     6.959
    39   6 C        2.933     0.067    26.505     8.443
    40   6 C        2.922    -0.037    28.917     8.818
    41   6 C        2.920    -0.027    28.670     8.781
    42   6 C        2.919    -0.030    28.755     8.794
    43   6 C        2.920    -0.028    28.689     8.784
    44   6 C        2.921    -0.037    28.916     8.818
    45   6 C        2.921    -0.048    29.190     8.860
    46   6 C        2.919    -0.030    28.760     8.794
    47   1 H        0.926     0.032     2.553     2.499
    48   1 H        0.926     0.034     2.531     2.488
    49   1 H        0.926     0.032     2.552     2.498
    50   1 H        0.926     0.032     2.552     2.498
    51   1 H        0.926     0.034     2.530     2.488
    52   1 H        0.926     0.032     2.553     2.498
    53   1 H        0.926     0.034     2.535     2.490
    54   1 H        0.926     0.032     2.556     2.500
    55   1 H        0.926     0.030     2.583     2.513
    56   1 H        0.926     0.030     2.582     2.513
    57   1 H        0.926     0.043     2.412     2.429
    58   1 H        0.926     0.044     2.395     2.420
    59   1 H        0.926     0.044     2.402     2.423
    60   1 H        0.926     0.045     2.384     2.414
    61   1 H        0.926     0.043     2.407     2.426
    62   1 H        0.926     0.015     2.805     2.619
    63   1 H        0.926     0.013     2.839     2.635
    64   1 H        0.925     0.013     2.834     2.633
    65   1 H        0.926     0.021     2.711     2.575
    66   1 H        0.926     0.021     2.711     2.575
    67   1 H        0.925     0.014     2.834     2.632
    68   1 H        0.926     0.013     2.839     2.635
    69   1 H        0.926     0.015     2.803     2.618
    70   1 H        0.926     0.043     2.409     2.427
    71   1 H        0.926     0.045     2.387     2.416
    72   1 H        0.926     0.043     2.405     2.425
    73   1 H        0.926     0.044     2.397     2.421
    74   1 H        0.926     0.043     2.415     2.430
    75   1 H        0.926     0.032     2.556     2.500
    76   1 H        0.926     0.034     2.536     2.490

molecular dipole:
                 x           y           z       tot (Debye)
 q only:       -2.233      -0.159      -0.000
   full:       -2.279      -0.161       0.000       5.807

 projected vibrational frequencies (cm⁻¹)
eigval :       -0.00    -0.00    -0.00     0.00     0.00     0.00
eigval :       13.26    16.58    20.81    22.99    30.25    35.41
eigval :       36.24    56.39    63.27    66.43    68.01    72.48
eigval :       77.30    81.06    92.38   114.33   139.94   162.36
eigval :      177.44   183.62   190.31   205.77   210.67   221.50
eigval :      237.32   238.91   239.65   259.49   265.65   269.00
eigval :      315.97   338.51   368.03   372.48   375.16   376.97
eigval :      378.92   381.18   385.21   395.18   396.66   408.61
eigval :      436.99   443.52   474.23   475.75   478.67   480.50
eigval :      492.64   494.20   495.89   509.37   531.96   559.01
eigval :      569.79   578.14   585.25   585.38   588.15   591.88
eigval :      595.31   597.94   602.80   627.88   640.75   651.28
eigval :      655.41   657.21   665.29   671.97   675.66   680.01
eigval :      692.94   732.57   739.73   742.02   746.67   751.68
eigval :      756.60   767.07   773.32   788.34   827.70   831.55
eigval :      845.93   861.02   868.73   870.28   871.46   872.56
eigval :      875.14   876.15   885.00   887.82   889.51   892.36
eigval :      897.14   900.34   904.25   905.30   910.34   911.53
eigval :      915.92   924.60   925.68   926.92   927.44   927.89
eigval :      929.82   932.32   932.78   975.03   985.89   991.16
eigval :      997.53  1046.69  1073.84  1076.40  1077.81  1079.93
eigval :     1080.63  1080.97  1092.58  1106.05  1112.60  1113.37
eigval :     1121.44  1123.98  1129.01  1152.12  1168.82  1174.14
eigval :     1176.22  1177.49  1177.98  1178.63  1183.72  1184.40
eigval :     1185.39  1191.34  1195.31  1198.94  1215.26  1221.02
eigval :     1244.90  1245.16  1251.00  1254.87  1271.46  1272.24
eigval :     1273.27  1275.93  1284.80  1285.90  1289.86  1296.82
eigval :     1306.62  1307.30  1309.83  1323.65  1328.72  1332.48
eigval :     1337.12  1350.11  1368.74  1371.28  1395.55  1405.72
eigval :     1414.09  1429.28  1429.99  1431.89  1440.57  1445.49
eigval :     1461.67  1462.19  1464.52  1467.29  1472.71  1479.72
eigval :     1503.79  1507.73  1518.46  1549.04  1551.18  1557.87
eigval :     1569.77  1570.46  1571.35  1581.46  1582.92  1586.48
eigval :     3052.96  3053.66  3070.89  3071.05  3071.73  3071.95
eigval :     3072.42  3073.32  3077.54  3078.02  3079.60  3080.37
eigval :     3082.67  3083.89  3085.03  3085.77  3086.50  3086.85
eigval :     3087.89  3088.84  3090.43  3090.77  3092.04  3094.12
eigval :     3094.39  3097.76  3098.42  3098.79  3100.99  3101.90

   temp. (K)  partition function   enthalpy   heat capacity  entropy
                                   cal/mol     cal/K/mol   cal/K/mol   J/K/mol
 298.15  VIB  0.294E+17            21363.879    136.499    132.304
         ROT  0.550E+08              888.752      2.981     38.398
         INT  0.162E+25            22252.632    139.480    170.703
         TR   0.138E+29             1481.254      4.968     44.976
         TOT                       23733.8854   144.4481   215.6787   902.3995

       T/K    H(0)-H(T)+PV         H(T)/Eh          T*S/Eh         G(T)/Eh
   ------------------------------------------------------------------------
    298.15    0.378224E-01    0.620697E+00    0.102476E+00    0.518221E+00
   ------------------------------------------------------------------------

         :::::::::::::::::::::::::::::::::::::::::::::::::::::
         ::                  THERMODYNAMIC                  ::
         :::::::::::::::::::::::::::::::::::::::::::::::::::::
         :: total free energy        -114.722522048778 Eh   ::
         ::.................................................::
         :: total energy             -115.240743104976 Eh   ::
         :: zero point energy           0.582874592791 Eh   ::
         :: G(RRHO) w/o ZPVE           -0.064653536594 Eh   ::
         :: G(RRHO) contrib.            0.518221056197 Eh   ::
         :::::::::::::::::::::::::::::::::::::::::::::::::::::

           -------------------------------------------------
          | TOTAL ENERGY             -115.240743104976 Eh   |
          | TOTAL ENTHALPY           -114.620046158254 Eh   |
          | TOTAL FREE ENERGY        -114.722522048778 Eh   |
          | GRADIENT NORM               0.000186395447 Eh/α |
          | HOMO-LUMO GAP               0.361012460856 eV   |
           -------------------------------------------------

 * finished run on 2025/09/11 at 05:18:01.065
