   * xtb version 6.7.1 (edcfbbe) compiled by 'albert@albert-system' on 2024-07-22

   ID    Z sym.   atoms
    1    6 C      1-4, 6-17, 19-30, 32-37, 39-46
    2    7 N      5, 18, 38
    3    5 B      31
    4    1 H      47-76

          program call               : xtb data2507/toluene/PAB/PAB_toluene_T1_crest.xyz --gfn 2 --uhf 2 --gbsa toluene --ohess vtight --parallel 40 --molden --ceasefiles --namespace data2507/toluene/PAB/PAB_toluene_T1_finalOpt
      * Solvation model:               GBSA
        Solvent                        toluene
        Solvent mass                       9.2140E+01 g/mol
          :  Hamiltonian                  GFN2-xTB          :
 * total energy  :  -115.2397174 Eh     change       -0.3364264E-08 Eh
 * total energy  :  -115.2397792 Eh     change       -0.6178504E-04 Eh
 * total energy  :  -115.2398469 Eh     change       -0.6765019E-04 Eh
 * total energy  :  -115.2399078 Eh     change       -0.6098857E-04 Eh
 * total energy  :  -115.2399718 Eh     change       -0.6399621E-04 Eh
 * total energy  :  -115.2400755 Eh     change       -0.1036460E-03 Eh
 * total energy  :  -115.2401808 Eh     change       -0.1053321E-03 Eh
 * total energy  :  -115.2402333 Eh     change       -0.5244638E-04 Eh
 * total energy  :  -115.2402955 Eh     change       -0.6220973E-04 Eh
 * total energy  :  -115.2403344 Eh     change       -0.3895309E-04 Eh
 * total energy  :  -115.2407426 Eh     change       -0.8291269E-06 Eh
 * total energy  :  -115.2407431 Eh     change       -0.5348516E-06 Eh
 * total energy  :  -115.2407435 Eh     change       -0.3788445E-06 Eh
 * total energy  :  -115.2407439 Eh     change       -0.3493829E-06 Eh
 * total energy  :  -115.2407442 Eh     change       -0.3408528E-06 Eh
 * total energy  :  -115.2407446 Eh     change       -0.3609263E-06 Eh
 * total energy  :  -115.2407448 Eh     change       -0.2387133E-06 Eh
 * total energy  :  -115.2407450 Eh     change       -0.2352482E-06 Eh
 * total energy  :  -115.2407450 Eh     change       -0.3881766E-08 Eh
   *** GEOMETRY OPTIMIZATION CONVERGED AFTER 44 ITERATIONS ***

 final structure:
================
76
 xtb: 6.7.1 (edcfbbe)
C           -5.06446003523293       -2.71289570930726        1.91601280279558
C           -3.85090150565856       -2.30850736686527        2.45147706848625
C           -3.09703185026247       -1.33783661681549        1.82356781292548
C           -3.54734977909471       -0.75243812084362        0.63724564580904
N           -2.77581905446277        0.21204171736978       -0.01354397734716
C           -3.38005278737353        1.28738162545094       -0.66711854017024
C           -2.82830752096648        1.80271431975035       -1.84323310921483
C           -3.41233307859187        2.88396736194171       -2.47139338574817
C           -4.55429002969162        3.47038151803969       -1.94684014789014
C           -5.10990323954340        2.96053864457928       -0.78281024354762
C           -4.53097857059726        1.88281800960087       -0.14354069092498
C           -1.37963588396966        0.10351567339546       -0.00458331458884
C           -0.58285217755736        1.24765304933999        0.12867799246975
C            0.80479972222715        1.14109580931724        0.12216375461574
C            1.44534981434766       -0.11318142425735        0.00691465388540
C            0.62161215525113       -1.25545707036637       -0.11022141010175
C           -0.76614978416505       -1.14908221154598       -0.12938869014718
N            1.21439053949978       -2.50601227346172       -0.21765552933520
C            0.34503439170745       -3.63625458937300       -0.22450840232903
C           -0.07945318163460       -4.19085444358819       -1.42688761236567
C           -0.93517938242491       -5.27785645237171       -1.41872038411592
C           -1.37069911061313       -5.81300513463335       -0.21675819312076
C           -0.94803898018736       -5.25932771811913        0.98064852402018
C           -0.09228277038197       -4.17186301447680        0.98067512216180
C            2.57330309114819       -2.71601586969412       -0.38349515072196
C            3.02997662693514       -4.02195087127397       -0.58179566981218
C            4.36860577242159       -4.27437685490473       -0.84272096336902
C            5.25882756577282       -3.21326045883444       -0.92949520061909
C            4.82023476521193       -1.92476170441267       -0.69223434823521
C            3.48940631492023       -1.62371052313673       -0.35523299526165
B            2.95361293150295       -0.22770842843820        0.00322575844571
C            3.69653444718329        1.07089802912466        0.35822876297434
C            5.06044588070852        1.16718544684230        0.68342085691623
C            5.68919472119173        2.37385379288551        0.92308968776682
C            4.96628481500836        3.55660698365750        0.85635526642188
C            3.60257022327003        3.50901921902434        0.60786415724064
C            2.95532229221559        2.28818926281879        0.39850365074182
N            1.58013727154160        2.28650892850498        0.23507574547503
C            0.89252003557640        3.53612127483859        0.24674752979665
C            0.58056730562918        4.15787299599776       -0.95577193453149
C           -0.10220329789057        5.36166361135110       -0.95132506998508
C           -0.47540866282597        5.94593113715935        0.24782603287979
C           -0.16302637550394        5.32589915078908        1.44709848285784
C            0.51891420763389        4.12203992787684        1.45082755376667
C           -4.77038751163282       -1.16538697348942        0.10171986402980
C           -5.51878231085833       -2.13331761129661        0.74075887812064
H           -5.65162229875633       -3.47193831485657        2.41041555483375
H           -3.49217691062109       -2.74887557884106        3.37051969752623
H           -2.15770668648478       -1.01508603226700        2.24809535141830
H           -1.94525137346406        1.34033510425035       -2.25934112871854
H           -2.97701900854077        3.26875688516812       -3.38222667074048
H           -5.00842604011942        4.31575682380411       -2.44132078023859
H           -5.99738951528616        3.41294155528991       -0.36438380224985
H           -4.95785881410219        1.49720788851558        0.77087491455715
H           -1.06827680771119        2.20549029511405        0.23136481407724
H           -1.39120870367091       -2.02153214843712       -0.23849859442390
H            0.26684609933432       -3.76581128850609       -2.35763640339020
H           -1.26381072084772       -5.70642176813931       -2.35390266331233
H           -2.03843424063389       -6.66136311578822       -0.21394924139628
H           -1.28550460724581       -5.67404649340371        1.91870433607765
H            0.24437469463790       -3.73270398903506        1.90811730795310
H            2.34039522513726       -4.85172811206200       -0.54530495916055
H            4.70324192146616       -5.29017048438393       -0.99435957086177
H            6.29756783900681       -3.39728624895500       -1.16883881613228
H            5.52446187649313       -1.11208734710401       -0.77870307352536
H            5.63608895148114        0.25782072438786        0.75753775158550
H            6.74642233359437        2.39847742185356        1.15071436640777
H            5.44985116814677        4.50954671133620        1.01435207658085
H            3.04352783903307        4.43240888050001        0.58899378503029
H            0.87743324465011        3.69318119276937       -1.88436910381242
H           -0.34361281014453        5.84294576990293       -1.88721196831445
H           -1.00881687996215        6.88455458644352        0.24854300659112
H           -0.45274065365785        5.77909427966043        2.38350888152781
H            0.76717265897643        3.62913462134679        2.37942690272409
H           -5.12032752020250       -0.72564419161616       -0.82097020493876
H           -6.46082247998772       -2.44537574589948        0.31362633561055

          :  Hamiltonian                  GFN2-xTB          :
         :: gradient norm              0.000040108536 Eh/a0 ::
         :: HOMO-LUMO gap              0.364541475025 eV    ::
         :: SCC energy              -117.379241327804 Eh    ::
         :: -> dispersion             -0.112513092060 Eh    ::
         :: -> Gsolv                  -0.046673280685 Eh    ::
         :: repulsion energy           2.138496294059 Eh    ::

    * Orbital Energies and Occupations

         #    Occupation            Energy/Eh            Energy/eV
      -------------------------------------------------------------
         1        2.0000           -0.6684065             -18.1883
       ...           ...                  ...                  ...
        97        2.0000           -0.4077543             -11.0956
        98        2.0000           -0.4061643             -11.0523
        99        2.0000           -0.4051600             -11.0250
       100        2.0000           -0.3991293             -10.8609
       101        2.0000           -0.3984463             -10.8423
       102        2.0000           -0.3885275             -10.5724
       103        2.0000           -0.3833746             -10.4322
       104        2.0000           -0.3734011             -10.1608
       105        2.0000           -0.3703443             -10.0776
       106        2.0000           -0.3602728              -9.8035
       107        1.8466           -0.3498401              -9.5196
       108        1.1534           -0.3465948              -9.4313
       109        0.9989           -0.2492607              -6.7827 (HOMO)
       110        0.0007           -0.2358641              -6.4182 (LUMO)
       111        0.0002           -0.2343882              -6.3780
       112        0.0001           -0.2341483              -6.3715
       113        0.0001           -0.2337626              -6.3610
       114        0.0000           -0.2310509              -6.2872
       115                         -0.2261265              -6.1532
       116                         -0.2221313              -6.0445
       117                         -0.2212639              -6.0209
       118                         -0.2204551              -5.9989
       119                         -0.2052496              -5.5851
       120                         -0.2024604              -5.5092
       ...                                ...                  ...
       214                          0.7273567              19.7924
      -------------------------------------------------------------
                  HL-Gap            0.0133967 Eh            0.3645 eV

     #   Z          covCN         q      C6AA      α(0)
     1   6 C        2.918    -0.040    28.990     8.829
     2   6 C        2.919    -0.030    28.757     8.794
     3   6 C        2.922    -0.048    29.185     8.859
     4   6 C        2.924     0.063    26.588     8.456
     5   7 N        2.752    -0.064    22.485     7.043
     6   6 C        2.924     0.063    26.589     8.456
     7   6 C        2.922    -0.048    29.188     8.860
     8   6 C        2.919    -0.030    28.758     8.794
     9   6 C        2.918    -0.040    28.992     8.830
    10   6 C        2.919    -0.030    28.760     8.794
    11   6 C        2.921    -0.048    29.192     8.860
    12   6 C        2.921     0.042    27.053     8.529
    13   6 C        2.918    -0.066    29.633     8.927
    14   6 C        2.923     0.053    26.811     8.491
    15   6 C        2.895    -0.105    30.645     9.076
    16   6 C        2.923     0.053    26.817     8.492
    17   6 C        2.918    -0.065    29.627     8.926
    18   7 N        2.755    -0.036    21.947     6.958
    19   6 C        2.933     0.067    26.510     8.444
    20   6 C        2.921    -0.037    28.917     8.818
    21   6 C        2.920    -0.028    28.690     8.784
    22   6 C        2.919    -0.030    28.760     8.794
    23   6 C        2.920    -0.027    28.673     8.781
    24   6 C        2.921    -0.037    28.919     8.819
    25   6 C        2.922     0.060    26.660     8.467
    26   6 C        2.919    -0.062    29.550     8.914
    27   6 C        2.916    -0.046    29.136     8.851
    28   6 C        2.912    -0.036    28.896     8.815
    29   6 C        2.920    -0.051    29.278     8.873
    30   6 C        2.884    -0.072    29.783     8.947
    31   5 B        2.724     0.137    19.317     7.365
    32   6 C        2.884    -0.072    29.784     8.947
    33   6 C        2.920    -0.051    29.278     8.873
    34   6 C        2.912    -0.036    28.897     8.815
    35   6 C        2.916    -0.046    29.136     8.851
    36   6 C        2.919    -0.062    29.552     8.914
    37   6 C        2.923     0.060    26.661     8.467
    38   7 N        2.755    -0.037    21.952     6.959
    39   6 C        2.933     0.067    26.501     8.443
    40   6 C        2.922    -0.037    28.914     8.818
    41   6 C        2.920    -0.027    28.668     8.780
    42   6 C        2.919    -0.030    28.751     8.793
    43   6 C        2.920    -0.027    28.687     8.783
    44   6 C        2.921    -0.037    28.914     8.818
    45   6 C        2.921    -0.048    29.188     8.860
    46   6 C        2.919    -0.030    28.759     8.794
    47   1 H        0.926     0.032     2.553     2.498
    48   1 H        0.926     0.034     2.530     2.487
    49   1 H        0.926     0.032     2.553     2.499
    50   1 H        0.926     0.032     2.553     2.499
    51   1 H        0.926     0.034     2.531     2.488
    52   1 H        0.926     0.032     2.554     2.499
    53   1 H        0.926     0.034     2.536     2.490
    54   1 H        0.926     0.032     2.556     2.500
    55   1 H        0.926     0.030     2.582     2.513
    56   1 H        0.926     0.030     2.582     2.513
    57   1 H        0.926     0.042     2.417     2.431
    58   1 H        0.926     0.044     2.399     2.422
    59   1 H        0.926     0.043     2.407     2.426
    60   1 H        0.926     0.045     2.389     2.417
    61   1 H        0.926     0.043     2.410     2.428
    62   1 H        0.926     0.016     2.801     2.617
    63   1 H        0.926     0.013     2.838     2.634
    64   1 H        0.925     0.014     2.832     2.632
    65   1 H        0.926     0.022     2.709     2.574
    66   1 H        0.926     0.022     2.709     2.574
    67   1 H        0.925     0.014     2.833     2.632
    68   1 H        0.926     0.013     2.838     2.635
    69   1 H        0.926     0.015     2.804     2.619
    70   1 H        0.926     0.043     2.406     2.426
    71   1 H        0.926     0.045     2.384     2.415
    72   1 H        0.926     0.044     2.402     2.424
    73   1 H        0.926     0.044     2.395     2.420
    74   1 H        0.926     0.043     2.413     2.429
    75   1 H        0.926     0.032     2.555     2.500
    76   1 H        0.926     0.034     2.535     2.490

molecular dipole:
                 x           y           z       tot (Debye)
 q only:       -2.222       0.192       0.006
   full:       -2.268       0.195       0.006       5.786

 projected vibrational frequencies (cm⁻¹)
eigval :       -0.00    -0.00    -0.00     0.00     0.00     0.00
eigval :       11.54    15.22    19.65    22.11    26.85    34.47
eigval :       35.50    54.18    61.44    64.07    67.76    71.74
eigval :       76.26    80.64    90.34   115.45   138.75   162.07
eigval :      177.38   182.99   189.92   205.52   210.15   220.58
eigval :      236.38   237.73   239.35   258.95   264.95   268.37
eigval :      315.22   338.48   367.72   372.34   374.51   375.75
eigval :      378.35   379.77   383.53   394.81   397.52   408.48
eigval :      436.71   443.50   473.88   475.50   478.22   480.67
eigval :      492.24   494.07   495.82   509.56   531.89   559.06
eigval :      569.75   577.82   584.60   585.08   587.83   591.78
eigval :      595.24   597.97   602.80   627.89   640.47   650.81
eigval :      654.62   656.44   664.37   672.07   674.66   679.28
eigval :      692.65   731.94   740.14   741.92   747.08   750.46
eigval :      755.34   765.25   771.79   788.20   827.75   832.12
eigval :      846.83   860.79   869.22   869.65   870.71   872.87
eigval :      874.32   874.73   883.72   886.35   889.22   892.31
eigval :      895.53   898.89   903.95   904.66   910.07   911.38
eigval :      915.85   923.05   923.98   925.45   926.28   926.62
eigval :      927.68   928.48   931.17   974.71   985.78   990.98
eigval :      997.24  1046.70  1073.62  1076.29  1077.44  1079.51
eigval :     1080.33  1080.74  1092.56  1106.29  1111.90  1113.37
eigval :     1118.81  1122.44  1128.93  1151.96  1168.88  1174.07
eigval :     1175.37  1176.41  1176.71  1177.10  1183.36  1183.91
eigval :     1185.40  1188.96  1193.51  1198.52  1214.94  1221.08
eigval :     1244.53  1244.96  1251.00  1254.87  1271.12  1271.55
eigval :     1273.38  1275.08  1284.55  1285.77  1289.58  1297.03
eigval :     1306.58  1307.45  1309.93  1323.55  1328.67  1332.53
eigval :     1337.12  1350.16  1368.66  1371.29  1395.52  1405.73
eigval :     1413.79  1429.31  1429.79  1431.41  1440.21  1445.60
eigval :     1461.59  1462.07  1464.19  1466.93  1472.69  1479.75
eigval :     1503.96  1507.71  1518.52  1548.89  1551.59  1558.25
eigval :     1568.36  1570.70  1571.03  1580.43  1582.61  1586.52
eigval :     3052.94  3053.64  3070.43  3071.26  3071.44  3071.96
eigval :     3072.06  3072.22  3077.62  3077.93  3080.13  3080.36
eigval :     3081.92  3082.97  3084.56  3085.26  3086.77  3086.91
eigval :     3088.21  3089.12  3090.66  3090.87  3092.47  3093.28
eigval :     3093.99  3097.97  3098.59  3099.17  3100.71  3101.64

   temp. (K)  partition function   enthalpy   heat capacity  entropy
                                   cal/mol     cal/K/mol   cal/K/mol   J/K/mol
 298.15  VIB  0.550E+17            21410.789    136.404    132.927
         ROT  0.550E+08              888.752      2.981     38.399
         INT  0.303E+25            22299.541    139.385    171.326
         TR   0.138E+29             1481.254      4.968     44.976
         TOT                       23780.7949   144.3529   216.3017   905.0064

       T/K    H(0)-H(T)+PV         H(T)/Eh          T*S/Eh         G(T)/Eh
   ------------------------------------------------------------------------
    298.15    0.378971E-01    0.620541E+00    0.102772E+00    0.517769E+00
   ------------------------------------------------------------------------

         :::::::::::::::::::::::::::::::::::::::::::::::::::::
         ::                  THERMODYNAMIC                  ::
         :::::::::::::::::::::::::::::::::::::::::::::::::::::
         :: total free energy        -114.722975677492 Eh   ::
         ::.................................................::
         :: total energy             -115.240745031819 Eh   ::
         :: zero point energy           0.582644169588 Eh   ::
         :: G(RRHO) w/o ZPVE           -0.064874815262 Eh   ::
         :: G(RRHO) contrib.            0.517769354327 Eh   ::
         :::::::::::::::::::::::::::::::::::::::::::::::::::::

           -------------------------------------------------
          | TOTAL ENERGY             -115.240745031819 Eh   |
          | TOTAL ENTHALPY           -114.620203753282 Eh   |
          | TOTAL FREE ENERGY        -114.722975677492 Eh   |
          | GRADIENT NORM               0.000040080603 Eh/α |
          | HOMO-LUMO GAP               0.364541778537 eV   |
           -------------------------------------------------

 * finished run on 2025/09/11 at 05:24:13.305
