   * xtb version 6.7.1 (edcfbbe) compiled by 'albert@albert-system' on 2024-07-22

   ID    Z sym.   atoms
    1    7 N      1, 7, 25
    2    6 C      2-6, 8-24, 26-45
    3    1 H      46-68

          program call               : xtb data2507/toluene/PPINCN/PPINCN_toluene_T1_crest.xyz --gfn 2 --uhf 2 --gbsa toluene --ohess vtight --parallel 40 --molden --ceasefiles --namespace data2507/toluene/PPINCN/PPINCN_toluene_T1_finalOpt
      * Solvation model:               GBSA
        Solvent                        toluene
        Solvent mass                       9.2140E+01 g/mol
          :  Hamiltonian                  GFN2-xTB          :
 * total energy  :  -110.4737079 Eh     change       -0.1982117E-07 Eh
 * total energy  :  -110.4737418 Eh     change       -0.3387535E-04 Eh
 * total energy  :  -110.4737519 Eh     change       -0.1014412E-04 Eh
 * total energy  :  -110.4737288 Eh     change        0.2315862E-04 Eh
 * total energy  :  -110.4737577 Eh     change       -0.2891236E-04 Eh
 * total energy  :  -110.4737655 Eh     change       -0.7788691E-05 Eh
 * total energy  :  -110.4737702 Eh     change       -0.4666435E-05 Eh
 * total energy  :  -110.4737822 Eh     change       -0.1209213E-04 Eh
 * total energy  :  -110.4737946 Eh     change       -0.1232058E-04 Eh
 * total energy  :  -110.4738020 Eh     change       -0.7477905E-05 Eh
 * total energy  :  -110.4738145 Eh     change       -0.6261257E-06 Eh
 * total energy  :  -110.4738153 Eh     change       -0.7108625E-06 Eh
 * total energy  :  -110.4738159 Eh     change       -0.6290844E-06 Eh
 * total energy  :  -110.4738163 Eh     change       -0.4374890E-06 Eh
 * total energy  :  -110.4738167 Eh     change       -0.3593768E-06 Eh
 * total energy  :  -110.4738170 Eh     change       -0.2826457E-06 Eh
 * total energy  :  -110.4738169 Eh     change        0.5200498E-07 Eh
 * total energy  :  -110.4738171 Eh     change       -0.2059932E-06 Eh
 * total energy  :  -110.4738172 Eh     change       -0.8216952E-07 Eh
   *** GEOMETRY OPTIMIZATION CONVERGED AFTER 24 ITERATIONS ***

 final structure:
================
68
 xtb: 6.7.1 (edcfbbe)
N           -1.67891169996188        6.60159818341831       -1.57790590939153
C           -1.58549688507117        5.49060696781595       -1.28867649257877
C           -1.45815669009957        4.13240436056300       -0.95872143411014
C           -0.65923951643194        3.31390593871207       -1.74773280519319
C           -0.52583393904628        1.96614306212987       -1.44888158422105
C           -1.19039884518669        1.41350922723817       -0.36726478937210
N           -1.03000691535238        0.04471109606795       -0.09680677912232
C            0.19859588935617       -0.59208694381726        0.12325223480626
C            1.43125094002961        0.07856200854692        0.32255508245934
C            1.45698554248118        1.38037969666594        0.87765990732765
C            2.61911544396700        2.04008262985505        1.12780023291694
C            3.88149720767735        1.45896811285054        0.81107890213399
C            5.08175809186107        2.13999237619904        1.03738787280144
C            6.29632513556079        1.55732959248967        0.74504744420032
C            6.35880352563774        0.26056449427035        0.20275675740216
C            7.58993020576045       -0.35711395040953       -0.11099888218446
C            7.62837065792167       -1.63235810685768       -0.64612090606827
C            6.46184850713117       -2.32716971749611       -0.88987936084161
C            5.20303077140714       -1.75149167091671       -0.59211164818787
C            3.99586001116127       -2.42563482172450       -0.83120745518811
C            2.78055706170293       -1.84305363864413       -0.53402203768445
C            2.69732499260260       -0.56544702244645        0.03267718326252
C            3.90273110261191        0.14623985502044        0.27110283134527
C            5.15131666770944       -0.44719703749945       -0.03771782914210
N            0.03284599981820       -1.91218260826385        0.21516484477672
C           -1.27760473194046       -2.14628116729388        0.08709475514714
C           -1.95026920580045       -3.39753554088598        0.19286544566250
C           -1.24852405814445       -4.57014064011636        0.49119109273206
C           -1.91833662527087       -5.76239234730422        0.63387802322787
C           -3.30228311993635       -5.78821012863183        0.48706958961848
C           -4.00205915091896       -4.63894110548386        0.18678986938748
C           -3.35310231794069       -3.40813478514752        0.01874295416891
C           -4.05591057165737       -2.18540272027124       -0.34259273909075
C           -5.42537420078797       -2.18824083530042       -0.62863979064274
C           -6.09563707962060       -1.04821691877781       -1.01596660198069
C           -5.40587538755539        0.15163638030671       -1.15923780476839
C           -4.06234136768960        0.20045265804622       -0.88159846231338
C           -3.36530602683895       -0.94128745752039       -0.44817630241573
C           -1.97971235292622       -0.94318247568315       -0.14648745315123
C           -1.99801617010908        2.22341732676569        0.48440757083432
C           -2.63589002046442        1.71415201310643        1.63233858739913
C           -3.40024967314383        2.52707018677415        2.42939369259544
C           -3.55950565855586        3.87936122838282        2.11222427681141
C           -2.93595739412601        4.40856690476335        1.01059235098160
C           -2.13799798097548        3.60281380688364        0.17857684387476
H           -0.14975286441189        3.72998491156648       -2.60394010081139
H            0.09267763571831        1.33469836829721       -2.06957154386266
H            0.52740927463297        1.83968724151612        1.17524498799645
H            2.60056591364371        3.01603317291043        1.59013425331235
H            5.04438512887325        3.13868569423394        1.44852600218026
H            7.21560083691659        2.09349416647484        0.92989468698618
H            8.50552420578626        0.18488858497279        0.07376437937744
H            8.58149654128474       -2.08565881292147       -0.87768831189544
H            6.49199241348311       -3.32061224386865       -1.31194740877972
H            4.02413362338089       -3.41743865952747       -1.25844631157702
H            1.86880134653617       -2.38305316034342       -0.72958928484182
H           -0.17835603069177       -4.50295626554163        0.61365772880540
H           -1.37990203889800       -6.66911464047432        0.86528365611488
H           -3.83667689844928       -6.71900852853986        0.60969081141446
H           -5.07318813096714       -4.70855280209423        0.08798124251786
H           -5.98554722040892       -3.10618163150608       -0.55935827318523
H           -7.15405355102544       -1.09134155804348       -1.22514645695081
H           -5.92041103379329        1.04074724873375       -1.49172133054161
H           -3.52955979041575        1.12582912651536       -1.02196105329489
H           -2.51357410258586        0.67136835898329        1.88640837724133
H           -3.88114720868300        2.12230180081921        3.30718253833762
H           -4.17000207509857        4.50898600277984        2.74188310524585
H           -3.04491076937037        5.45545352497547        0.76510619578627

          :  Hamiltonian                  GFN2-xTB          :
         :: gradient norm              0.000070208374 Eh/a0 ::
         :: HOMO-LUMO gap              0.202142185626 eV    ::
         :: SCC energy              -112.587922723333 Eh    ::
         :: -> dispersion             -0.105939601754 Eh    ::
         :: -> Gsolv                  -0.048046671757 Eh    ::
         :: repulsion energy           2.114105524099 Eh    ::

    * Orbital Energies and Occupations

         #    Occupation            Energy/Eh            Energy/eV
      -------------------------------------------------------------
         1        2.0000           -0.6994313             -19.0325
       ...           ...                  ...                  ...
        92        2.0000           -0.4200924             -11.4313
        93        2.0000           -0.4182745             -11.3818
        94        2.0000           -0.4153914             -11.3034
        95        2.0000           -0.4126901             -11.2299
        96        2.0000           -0.4099668             -11.1558
        97        2.0000           -0.4093995             -11.1403
        98        2.0000           -0.4026668             -10.9571
        99        2.0000           -0.3969552             -10.8017
       100        2.0000           -0.3911522             -10.6438
       101        2.0000           -0.3870389             -10.5319
       102        2.0000           -0.3832997             -10.4301
       103        1.0000           -0.3613434              -9.8327
       104        0.9803           -0.2991835              -8.1412 (HOMO)
       105        0.0197           -0.2917545              -7.9390 (LUMO)
       106                         -0.2629332              -7.1548
       107                         -0.2592115              -7.0535
       108                         -0.2488713              -6.7721
       109                         -0.2454522              -6.6791
       110                         -0.2340193              -6.3680
       111                         -0.2309307              -6.2839
       112                         -0.2299615              -6.2576
       113                         -0.2142521              -5.8301
       114                         -0.2077950              -5.6544
       115                         -0.2005280              -5.4566
       ...                                ...                  ...
       203                          1.1571865              31.4886
      -------------------------------------------------------------
                  HL-Gap            0.0074290 Eh            0.2022 eV

     #   Z          covCN         q      C6AA      α(0)
     1   7 N        0.911    -0.300    27.720     7.615
     2   6 C        1.913     0.115    28.263     8.586
     3   6 C        2.969    -0.006    28.177     8.707
     4   6 C        2.925    -0.025    28.634     8.775
     5   6 C        2.916    -0.044    29.089     8.844
     6   6 C        2.907     0.053    26.818     8.491
     7   7 N        2.828    -0.047    22.154     6.991
     8   6 C        3.150     0.133    24.841     8.152
     9   6 C        2.965    -0.011    28.278     8.722
    10   6 C        2.913    -0.036    28.903     8.816
    11   6 C        2.913    -0.036    28.897     8.815
    12   6 C        2.980     0.012    27.730     8.638
    13   6 C        2.915    -0.034    28.858     8.809
    14   6 C        2.916    -0.035    28.869     8.811
    15   6 C        2.978     0.015    27.680     8.630
    16   6 C        2.919    -0.033    28.827     8.805
    17   6 C        2.908    -0.027    28.679     8.781
    18   6 C        2.918    -0.033    28.824     8.804
    19   6 C        2.979     0.015    27.672     8.629
    20   6 C        2.916    -0.034    28.841     8.806
    21   6 C        2.915    -0.036    28.902     8.816
    22   6 C        2.976     0.012    27.743     8.640
    23   6 C        2.992     0.004    27.919     8.667
    24   6 C        2.997     0.003    27.936     8.670
    25   7 N        1.887    -0.307    28.803     7.956
    26   6 C        3.180     0.075    25.924     8.312
    27   6 C        2.984    -0.003    28.098     8.695
    28   6 C        2.922    -0.028    28.691     8.784
    29   6 C        2.916    -0.029    28.719     8.788
    30   6 C        2.917    -0.028    28.695     8.784
    31   6 C        2.921    -0.033    28.822     8.804
    32   6 C        2.978     0.001    28.009     8.681
    33   6 C        2.978     0.003    27.955     8.673
    34   6 C        2.921    -0.032    28.802     8.801
    35   6 C        2.916    -0.028    28.705     8.786
    36   6 C        2.916    -0.029    28.732     8.790
    37   6 C        2.919    -0.035    28.874     8.812
    38   6 C        2.976    -0.004    28.124     8.699
    39   6 C        3.051     0.035    27.179     8.550
    40   6 C        2.983     0.004    27.937     8.670
    41   6 C        2.917    -0.035    28.860     8.809
    42   6 C        2.916    -0.028    28.701     8.785
    43   6 C        2.916    -0.027    28.665     8.780
    44   6 C        2.918    -0.035    28.879     8.812
    45   6 C        2.989     0.015    27.660     8.627
    46   1 H        0.926     0.039     2.455     2.450
    47   1 H        0.926     0.037     2.494     2.470
    48   1 H        0.926     0.029     2.602     2.522
    49   1 H        0.926     0.039     2.467     2.456
    50   1 H        0.926     0.039     2.456     2.451
    51   1 H        0.926     0.041     2.430     2.438
    52   1 H        0.926     0.041     2.433     2.439
    53   1 H        0.926     0.040     2.452     2.449
    54   1 H        0.926     0.042     2.423     2.434
    55   1 H        0.926     0.043     2.410     2.427
    56   1 H        0.926     0.060     2.201     2.320
    57   1 H        0.926     0.051     2.307     2.375
    58   1 H        0.926     0.041     2.432     2.439
    59   1 H        0.926     0.041     2.433     2.439
    60   1 H        0.926     0.043     2.407     2.426
    61   1 H        0.926     0.046     2.369     2.407
    62   1 H        0.926     0.041     2.435     2.440
    63   1 H        0.926     0.036     2.501     2.473
    64   1 H        0.926     0.031     2.565     2.505
    65   1 H        0.926     0.029     2.597     2.520
    66   1 H        0.926     0.040     2.451     2.448
    67   1 H        0.926     0.041     2.439     2.442
    68   1 H        0.926     0.033     2.539     2.492

molecular dipole:
                 x           y           z       tot (Debye)
 q only:        0.686      -2.499       0.525
   full:        0.429      -2.525       0.556       6.661

 projected vibrational frequencies (cm⁻¹)
eigval :       -0.00    -0.00    -0.00     0.00     0.00     0.00
eigval :       15.88    19.77    25.00    29.64    33.26    36.96
eigval :       68.06    72.98    85.33    92.28   110.17   120.82
eigval :      124.18   129.41   139.54   160.01   171.80   182.82
eigval :      194.80   196.55   204.50   238.29   249.18   261.18
eigval :      268.75   280.83   306.93   337.32   346.56   378.99
eigval :      380.87   395.34   397.38   399.02   409.45   418.34
eigval :      428.45   431.68   433.21   440.96   447.74   452.58
eigval :      460.50   465.31   485.74   494.16   500.74   506.15
eigval :      518.64   524.27   529.89   561.27   565.80   579.97
eigval :      585.19   586.93   598.17   607.71   626.81   641.20
eigval :      644.09   662.11   664.59   673.56   674.43   676.90
eigval :      686.20   694.74   703.98   720.06   733.07   735.87
eigval :      740.15   756.36   757.70   766.57   775.22   776.95
eigval :      778.06   786.35   799.91   812.90   818.94   826.58
eigval :      830.22   856.03   856.88   871.77   874.03   891.75
eigval :      894.53   895.25   899.89   904.08   912.94   913.14
eigval :      914.63   916.99   917.24   925.60   927.82   931.40
eigval :      985.06   996.76  1006.94  1027.48  1076.17  1085.15
eigval :     1087.77  1099.10  1106.14  1122.08  1124.64  1141.01
eigval :     1146.80  1155.90  1164.71  1170.00  1174.88  1178.49
eigval :     1179.62  1183.71  1191.74  1194.96  1205.71  1208.98
eigval :     1213.17  1230.32  1235.73  1238.59  1250.25  1251.21
eigval :     1254.83  1260.91  1283.27  1286.86  1308.33  1325.17
eigval :     1328.67  1332.58  1333.80  1341.90  1344.24  1351.93
eigval :     1358.86  1374.99  1376.08  1383.02  1388.53  1394.61
eigval :     1402.97  1407.98  1418.02  1424.95  1427.32  1437.80
eigval :     1446.09  1461.33  1486.87  1489.74  1493.02  1501.43
eigval :     1516.42  1517.81  1518.84  1526.99  1530.99  1543.62
eigval :     1548.37  1552.47  1560.16  1578.18  1585.77  1588.93
eigval :     2312.48  3071.72  3072.34  3077.18  3077.55  3077.60
eigval :     3078.58  3078.84  3080.35  3083.07  3083.53  3084.65
eigval :     3086.96  3087.30  3090.22  3090.66  3094.70  3097.34
eigval :     3100.65  3103.94  3104.18  3114.77  3117.30  3128.95

   temp. (K)  partition function   enthalpy   heat capacity  entropy
                                   cal/mol     cal/K/mol   cal/K/mol   J/K/mol
 298.15  VIB  0.459E+14            19177.540    126.503    115.693
         ROT  0.584E+08              888.752      2.981     38.519
         INT  0.268E+22            20066.293    129.484    154.212
         TR   0.132E+29             1481.254      4.968     44.884
         TOT                       21547.5465   134.4520   199.0953   833.0147

       T/K    H(0)-H(T)+PV         H(T)/Eh          T*S/Eh         G(T)/Eh
   ------------------------------------------------------------------------
    298.15    0.343382E-01    0.538673E+00    0.945966E-01    0.444076E+00
   ------------------------------------------------------------------------

         :::::::::::::::::::::::::::::::::::::::::::::::::::::
         ::                  THERMODYNAMIC                  ::
         :::::::::::::::::::::::::::::::::::::::::::::::::::::
         :: total free energy        -110.029740942702 Eh   ::
         ::.................................................::
         :: total energy             -110.473817204418 Eh   ::
         :: zero point energy           0.504334662726 Eh   ::
         :: G(RRHO) w/o ZPVE           -0.060258401009 Eh   ::
         :: G(RRHO) contrib.            0.444076261717 Eh   ::
         :::::::::::::::::::::::::::::::::::::::::::::::::::::

           -------------------------------------------------
          | TOTAL ENERGY             -110.473817204418 Eh   |
          | TOTAL ENTHALPY           -109.935144340623 Eh   |
          | TOTAL FREE ENERGY        -110.029740942702 Eh   |
          | GRADIENT NORM               0.000070842872 Eh/α |
          | HOMO-LUMO GAP               0.202153060572 eV   |
           -------------------------------------------------

 * finished run on 2025/09/12 at 16:39:15.152
