   * xtb version 6.7.1 (edcfbbe) compiled by 'albert@albert-system' on 2024-07-22

   ID    Z sym.   atoms
    1    7 N      1, 7, 25
    2    6 C      2-6, 8-24, 26-45
    3    1 H      46-68

          program call               : xtb data2507/toluene/PPINCN/PPINCN_toluene_S0_crest.xyz --gfn 2 --gbsa toluene --ohess vtight --parallel 40 --molden --ceasefiles --namespace data2507/toluene/PPINCN/PPINCN_toluene_S0_finalOpt
      * Solvation model:               GBSA
        Solvent                        toluene
        Solvent mass                       9.2140E+01 g/mol
          :  Hamiltonian                  GFN2-xTB          :
 * total energy  :  -110.5409522 Eh     change       -0.3769628E-08 Eh
 * total energy  :  -110.5409988 Eh     change       -0.4658741E-04 Eh
 * total energy  :  -110.5409658 Eh     change        0.3291732E-04 Eh
 * total energy  :  -110.5410403 Eh     change       -0.7441363E-04 Eh
 * total energy  :  -110.5410563 Eh     change       -0.1603076E-04 Eh
 * total energy  :  -110.5410853 Eh     change       -0.2896232E-04 Eh
 * total energy  :  -110.5411146 Eh     change       -0.2937894E-04 Eh
 * total energy  :  -110.5411451 Eh     change       -0.3042332E-04 Eh
 * total energy  :  -110.5411791 Eh     change       -0.3401384E-04 Eh
 * total energy  :  -110.5412149 Eh     change       -0.3582195E-04 Eh
 * total energy  :  -110.5413154 Eh     change       -0.1295519E-05 Eh
 * total energy  :  -110.5413165 Eh     change       -0.1093706E-05 Eh
 * total energy  :  -110.5413174 Eh     change       -0.9327058E-06 Eh
 * total energy  :  -110.5413184 Eh     change       -0.9939978E-06 Eh
 * total energy  :  -110.5413194 Eh     change       -0.1015707E-05 Eh
 * total energy  :  -110.5413205 Eh     change       -0.1060437E-05 Eh
 * total energy  :  -110.5413216 Eh     change       -0.1120398E-05 Eh
 * total energy  :  -110.5413228 Eh     change       -0.1164315E-05 Eh
 * total energy  :  -110.5413228 Eh     change       -0.2684629E-08 Eh
   *** GEOMETRY OPTIMIZATION CONVERGED AFTER 44 ITERATIONS ***

 final structure:
================
68
 xtb: 6.7.1 (edcfbbe)
N            0.88968820877869        6.77609044310237       -0.45930128826907
C            0.52393145964969        5.68961917135861       -0.38868428281775
C            0.05389584857295        4.36094781885373       -0.32505642322024
C           -0.95561041753744        3.96545307682000       -1.18105482257168
C           -1.41486452816512        2.64974814453774       -1.16224320601686
C           -0.88515998399318        1.73573873974703       -0.27636577903860
N           -1.29583997549483        0.39305848453003       -0.33492455924254
C           -0.46443228948680       -0.65835997594034       -0.67739118369792
C            0.95199663211878       -0.46777153378249       -0.96772362762673
C            1.33706509375196        0.54448424951009       -1.84493021776169
C            2.66527520308348        0.79115047342723       -2.11641863421588
C            3.66893723669108        0.02973346101781       -1.51511236017645
C            5.05124943788208        0.26961063892667       -1.76650410959323
C            6.01134369019162       -0.48698089712896       -1.18601600166982
C            5.67509624623264       -1.55206269702152       -0.29915828064790
C            6.64984490695780       -2.34512916014568        0.30964159338346
C            6.29336351659701       -3.37094701699548        1.16645748970827
C            4.96195341566430       -3.62984088816758        1.43697397798028
C            3.95358016376265       -2.86207836371076        0.85070989507179
C            2.57148234538876       -3.09805625719026        1.10566130067759
C            1.60803152769883       -2.34387113745463        0.52671288370607
C            1.93225657927384       -1.28163782366583       -0.36761861965706
C            3.29969420948071       -1.02049340392229       -0.63801274190265
C            4.30730128804934       -1.81019482052790       -0.02978411189781
N           -1.10896540405692       -1.79360074031069       -0.72816838801288
C           -2.40439119955009       -1.50913270460014       -0.41708182517176
C           -3.50590542048244       -2.40826168091883       -0.36800528025611
C           -3.34839461507120       -3.76759322978489       -0.66130560285074
C           -4.43077869006888       -4.61154124561488       -0.63966065089050
C           -5.68970344350736       -4.10171948188198       -0.32630874657751
C           -5.85518330366592       -2.76840109202726       -0.03121196823206
C           -4.77227675297962       -1.87496972032029       -0.03307378385240
C           -4.90800032257990       -0.46955841007195        0.31078612515606
C           -6.13572627374469        0.07412215464021        0.71685162253129
C           -6.26310881658184        1.39124155180933        1.09058025752210
C           -5.15064091732199        2.22741177549747        1.09455000054728
C           -3.93191638360262        1.73716300569955        0.69462506587469
C           -3.78767017029676        0.40627204230747        0.27640602172829
C           -2.55099983591278       -0.14930502848453       -0.15745161889530
C            0.12306880746909        2.11687598793717        0.65006163361983
C            0.64621790888778        1.22655308095840        1.61137967353734
C            1.64418051277968        1.62147710618801        2.45805798294336
C            2.15706881754083        2.92518272866978        2.39183433797620
C            1.64611651187974        3.82372654506558        1.49596406942915
C            0.61636074865474        3.44748586222041        0.61049714831399
H           -1.37698274004837        4.67110951236904       -1.88131627987404
H           -2.18533776652018        2.33920417459138       -1.85283287670282
H            0.57952979553109        1.13433725665065       -2.34041255175753
H            2.93651081264181        1.58006916292510       -2.80304168353954
H            5.31192946123652        1.07547062164871       -2.43795327809722
H            7.05723086682967       -0.29914732694510       -1.38358935772824
H            7.69227249762692       -2.14825756641077        0.10373955781283
H            7.06152713459772       -3.97463339423058        1.62808188545566
H            4.68985909578210       -4.43263674617718        2.10724724408783
H            2.30683442044872       -3.90212580087004        1.77781089461778
H            0.56549355138975       -2.54805943963528        0.71651461394913
H           -2.35868535714740       -4.12051903233537       -0.90897725656773
H           -4.31283236378555       -5.66072575496628       -0.86730246521690
H           -6.54600985362808       -4.76063162368980       -0.31505675855280
H           -6.84822669663100       -2.41940228463955        0.20272989105061
H           -7.01323381084650       -0.55079982718781        0.75026817334136
H           -7.22577611450261        1.77370130700313        1.39639201080342
H           -5.24300263096268        3.25507742316801        1.41362522244477
H           -3.06754719111958        2.38192543951992        0.71783726956610
H            0.24620082168331        0.22620140483754        1.67870617549871
H            2.04053420785460        0.92847395455854        3.18450959817186
H            2.95068590091447        3.21936005247428        3.06163802819282
H            2.02208366731088        4.83577774897709        1.45258503429498

          :  Hamiltonian                  GFN2-xTB          :
         :: gradient norm              0.000153728383 Eh/a0 ::
         :: HOMO-LUMO gap              1.719718252030 eV    ::
         :: SCC energy              -112.674965348649 Eh    ::
         :: -> dispersion             -0.107125621362 Eh    ::
         :: -> Gsolv                  -0.047094974433 Eh    ::
         :: repulsion energy           2.133642595656 Eh    ::

    * Orbital Energies and Occupations

         #    Occupation            Energy/Eh            Energy/eV
      -------------------------------------------------------------
         1        2.0000           -0.6969066             -18.9638
       ...           ...                  ...                  ...
        91        2.0000           -0.4222524             -11.4901
        92        2.0000           -0.4217907             -11.4775
        93        2.0000           -0.4163401             -11.3292
        94        2.0000           -0.4148668             -11.2891
        95        2.0000           -0.4108329             -11.1793
        96        2.0000           -0.4105835             -11.1725
        97        2.0000           -0.4074894             -11.0884
        98        2.0000           -0.4010113             -10.9121
        99        2.0000           -0.3975595             -10.8181
       100        2.0000           -0.3874769             -10.5438
       101        2.0000           -0.3866590             -10.5215
       102        2.0000           -0.3780559             -10.2874
       103        2.0000           -0.3656535              -9.9499 (HOMO)
       104                         -0.3024550              -8.2302 (LUMO)
       105                         -0.2860746              -7.7845
       106                         -0.2578361              -7.0161
       107                         -0.2562644              -6.9733
       108                         -0.2542147              -6.9175
       109                         -0.2486514              -6.7661
       110                         -0.2387720              -6.4973
       111                         -0.2288990              -6.2287
       112                         -0.2254099              -6.1337
       113                         -0.2194804              -5.9724
       114                         -0.2093133              -5.6957
       ...                                ...                  ...
       203                          1.1512636              31.3275
      -------------------------------------------------------------
                  HL-Gap            0.0631985 Eh            1.7197 eV

     #   Z          covCN         q      C6AA      α(0)
     1   7 N        0.911    -0.267    26.910     7.503
     2   6 C        1.913     0.121    28.118     8.564
     3   6 C        2.970     0.008    27.833     8.654
     4   6 C        2.926    -0.018    28.468     8.750
     5   6 C        2.917    -0.038    28.950     8.823
     6   6 C        2.908     0.069    26.458     8.434
     7   7 N        2.842    -0.052    22.242     7.005
     8   6 C        3.181     0.141    24.534     8.085
     9   6 C        2.971    -0.012    28.308     8.727
    10   6 C        2.920    -0.038    28.938     8.821
    11   6 C        2.918    -0.039    28.980     8.828
    12   6 C        2.982     0.012    27.746     8.641
    13   6 C        2.913    -0.036    28.903     8.816
    14   6 C        2.913    -0.034    28.849     8.808
    15   6 C        2.982     0.012    27.736     8.639
    16   6 C        2.920    -0.035    28.883     8.813
    17   6 C        2.913    -0.029    28.735     8.790
    18   6 C        2.920    -0.035    28.878     8.812
    19   6 C        2.981     0.012    27.734     8.639
    20   6 C        2.913    -0.034    28.854     8.808
    21   6 C        2.912    -0.036    28.896     8.815
    22   6 C        2.983     0.011    27.753     8.642
    23   6 C        2.995     0.003    27.951     8.672
    24   6 C        2.997     0.003    27.944     8.671
    25   7 N        1.893    -0.311    28.907     7.971
    26   6 C        3.203     0.060    26.099     8.323
    27   6 C        2.985    -0.002    28.079     8.692
    28   6 C        2.921    -0.033    28.817     8.803
    29   6 C        2.917    -0.031    28.768     8.795
    30   6 C        2.917    -0.033    28.822     8.804
    31   6 C        2.921    -0.036    28.890     8.814
    32   6 C        2.979    -0.004    28.111     8.697
    33   6 C        2.979    -0.000    28.026     8.684
    34   6 C        2.922    -0.034    28.851     8.808
    35   6 C        2.916    -0.033    28.818     8.803
    36   6 C        2.917    -0.032    28.787     8.798
    37   6 C        2.919    -0.040    29.004     8.832
    38   6 C        2.978    -0.005    28.142     8.702
    39   6 C        3.067     0.020    27.484     8.597
    40   6 C        2.985     0.005    27.914     8.667
    41   6 C        2.917    -0.028    28.697     8.785
    42   6 C        2.916    -0.022    28.567     8.764
    43   6 C        2.916    -0.021    28.519     8.757
    44   6 C        2.917    -0.030    28.743     8.792
    45   6 C        2.990     0.020    27.545     8.609
    46   1 H        0.926     0.054     2.273     2.358
    47   1 H        0.926     0.052     2.300     2.371
    48   1 H        0.926     0.023     2.681     2.561
    49   1 H        0.926     0.037     2.486     2.466
    50   1 H        0.926     0.037     2.487     2.466
    51   1 H        0.926     0.039     2.458     2.452
    52   1 H        0.926     0.038     2.479     2.462
    53   1 H        0.926     0.037     2.494     2.469
    54   1 H        0.926     0.038     2.479     2.462
    55   1 H        0.926     0.039     2.467     2.456
    56   1 H        0.926     0.042     2.423     2.434
    57   1 H        0.926     0.045     2.388     2.417
    58   1 H        0.926     0.034     2.524     2.484
    59   1 H        0.926     0.034     2.530     2.488
    60   1 H        0.926     0.037     2.494     2.470
    61   1 H        0.926     0.040     2.454     2.450
    62   1 H        0.926     0.035     2.518     2.482
    63   1 H        0.926     0.033     2.549     2.497
    64   1 H        0.926     0.026     2.651     2.546
    65   1 H        0.926     0.038     2.481     2.463
    66   1 H        0.926     0.049     2.331     2.387
    67   1 H        0.926     0.052     2.297     2.370
    68   1 H        0.926     0.045     2.385     2.415

molecular dipole:
                 x           y           z       tot (Debye)
 q only:        0.536      -0.746       0.650
   full:        0.210      -0.749       0.657       2.588

 projected vibrational frequencies (cm⁻¹)
eigval :       -0.00    -0.00    -0.00    -0.00     0.00     0.00
eigval :       13.85    18.83    28.40    28.89    35.83    37.28
eigval :       70.46    78.91    85.69   101.85   110.80   116.12
eigval :      123.20   129.42   145.56   164.62   174.48   178.90
eigval :      197.58   206.13   213.26   237.27   246.11   260.34
eigval :      271.97   288.74   308.70   340.44   347.07   382.64
eigval :      391.25   398.22   401.86   403.84   415.19   422.91
eigval :      429.76   437.71   441.03   451.08   455.92   469.52
eigval :      471.60   479.04   488.74   497.53   505.10   512.04
eigval :      520.23   535.15   543.85   561.77   575.78   584.47
eigval :      589.37   595.15   609.14   611.59   639.46   648.68
eigval :      657.46   662.73   671.58   679.67   680.81   684.76
eigval :      693.68   700.71   703.99   730.11   734.30   739.94
eigval :      757.88   766.17   769.63   775.97   779.10   782.74
eigval :      784.96   801.48   820.82   829.15   838.82   842.87
eigval :      852.50   864.24   877.68   884.79   890.21   909.59
eigval :      912.67   915.50   916.30   917.74   921.58   923.56
eigval :      924.92   927.93   929.36   932.50   936.06   941.41
eigval :      995.53  1001.13  1020.01  1026.35  1075.25  1084.62
eigval :     1085.59  1103.07  1106.72  1111.73  1127.13  1149.48
eigval :     1156.61  1161.22  1171.25  1175.58  1178.86  1180.19
eigval :     1184.23  1186.19  1193.33  1197.09  1209.01  1214.30
eigval :     1224.10  1234.27  1237.29  1253.49  1254.36  1255.02
eigval :     1262.15  1280.81  1285.99  1304.69  1315.16  1324.19
eigval :     1327.17  1336.96  1342.73  1351.23  1359.71  1379.08
eigval :     1385.45  1387.11  1391.00  1406.18  1407.27  1411.17
eigval :     1416.21  1418.01  1428.10  1433.66  1448.88  1450.57
eigval :     1485.40  1491.48  1500.54  1511.51  1513.88  1536.11
eigval :     1549.11  1552.34  1559.97  1561.20  1564.86  1568.79
eigval :     1576.54  1592.94  1601.26  1603.13  1604.02  1605.77
eigval :     2353.66  3066.33  3068.36  3071.05  3071.53  3072.52
eigval :     3075.17  3075.39  3079.44  3081.73  3083.63  3084.57
eigval :     3085.16  3086.39  3087.18  3087.29  3095.37  3096.45
eigval :     3097.32  3099.32  3100.47  3103.02  3107.73  3111.90

   temp. (K)  partition function   enthalpy   heat capacity  entropy
                                   cal/mol     cal/K/mol   cal/K/mol   J/K/mol
 298.15  VIB  0.301E+14            18918.226    125.057    114.179
         ROT  0.528E+08              888.752      2.981     38.319
         INT  0.159E+22            19806.978    128.038    152.498
         TR   0.132E+29             1481.254      4.968     44.884
         TOT                       21288.2319   133.0057   197.3818   825.8453

       T/K    H(0)-H(T)+PV         H(T)/Eh          T*S/Eh         G(T)/Eh
   ------------------------------------------------------------------------
    298.15    0.339250E-01    0.542012E+00    0.937824E-01    0.448230E+00
   ------------------------------------------------------------------------

         :::::::::::::::::::::::::::::::::::::::::::::::::::::
         ::                  THERMODYNAMIC                  ::
         :::::::::::::::::::::::::::::::::::::::::::::::::::::
         :: total free energy        -110.093093224350 Eh   ::
         ::.................................................::
         :: total energy             -110.541322753900 Eh   ::
         :: zero point energy           0.508087021028 Eh   ::
         :: G(RRHO) w/o ZPVE           -0.059857491478 Eh   ::
         :: G(RRHO) contrib.            0.448229529550 Eh   ::
         :::::::::::::::::::::::::::::::::::::::::::::::::::::

           -------------------------------------------------
          | TOTAL ENERGY             -110.541322753900 Eh   |
          | TOTAL ENTHALPY           -109.999310775878 Eh   |
          | TOTAL FREE ENERGY        -110.093093224350 Eh   |
          | GRADIENT NORM               0.000153632776 Eh/α |
          | HOMO-LUMO GAP               1.719718328400 eV   |
           -------------------------------------------------

 * finished run on 2025/09/12 at 16:35:09.895
