   * xtb version 6.7.1 (edcfbbe) compiled by 'albert@albert-system' on 2024-07-22

   ID    Z sym.   atoms
    1    7 N      1, 7, 25
    2    6 C      2-6, 8-24, 26-45
    3    1 H      46-68

          program call               : xtb data2507/toluene/PPINCN/PPINCN_toluene_S0_finalOpt.xtbopt.xyz --gfn 2 --uhf 2 --gbsa toluene --ohess vtight --parallel 40 --molden --ceasefiles --namespace data2507/toluene/PPINCN/PPINCN_toluene_T1_preOpt
      * Solvation model:               GBSA
        Solvent                        toluene
        Solvent mass                       9.2140E+01 g/mol
          :  Hamiltonian                  GFN2-xTB          :
 * total energy  :  -110.4645487 Eh     change       -0.2500751E-07 Eh
 * total energy  :  -110.4691741 Eh     change       -0.4625455E-02 Eh
 * total energy  :  -110.4706804 Eh     change       -0.1506277E-02 Eh
 * total energy  :  -110.4708326 Eh     change       -0.1522448E-03 Eh
 * total energy  :  -110.4709824 Eh     change       -0.1497596E-03 Eh
 * total energy  :  -110.4711825 Eh     change       -0.2000494E-03 Eh
 * total energy  :  -110.4713140 Eh     change       -0.1315113E-03 Eh
 * total energy  :  -110.4714219 Eh     change       -0.1079019E-03 Eh
 * total energy  :  -110.4715170 Eh     change       -0.9514921E-04 Eh
 * total energy  :  -110.4715970 Eh     change       -0.8000201E-04 Eh
 * total energy  :  -110.4730115 Eh     change       -0.3264160E-06 Eh
 * total energy  :  -110.4730118 Eh     change       -0.2823525E-06 Eh
 * total energy  :  -110.4730120 Eh     change       -0.2322089E-06 Eh
 * total energy  :  -110.4730122 Eh     change       -0.1884599E-06 Eh
 * total energy  :  -110.4730124 Eh     change       -0.1788441E-06 Eh
 * total energy  :  -110.4730126 Eh     change       -0.2203459E-06 Eh
 * total energy  :  -110.4730129 Eh     change       -0.2398412E-06 Eh
 * total energy  :  -110.4730131 Eh     change       -0.2141221E-06 Eh
 * total energy  :  -110.4730131 Eh     change       -0.1123652E-08 Eh
   *** GEOMETRY OPTIMIZATION CONVERGED AFTER 68 ITERATIONS ***

 final structure:
================
68
 xtb: 6.7.1 (edcfbbe)
N            0.26719902355565        7.09931698185459       -0.55817300871782
C            0.02616645859197        5.97770384280973       -0.45572611358725
C           -0.28776824286161        4.61321533359028       -0.35847857735186
C           -1.18384095848271        4.05943314764858       -1.26487858510915
C           -1.49294289256475        2.70899694000485       -1.20555994533117
C           -0.91915978408882        1.89246420669876       -0.24254938126739
N           -1.22036959278774        0.52058931956581       -0.24890543123882
C           -0.30942241774697       -0.53293202136787       -0.42211518090996
C            1.07609122154521       -0.38150466121498       -0.68155328821006
C            1.56355497319845        0.77769169044722       -1.32996763282973
C            2.88280977651737        0.96087437533719       -1.60125629814857
C            3.85632831405138       -0.00688693868419       -1.21785101665149
C            5.21924739439159        0.18590621470261       -1.46269173257503
C            6.14752643748075       -0.77115844315906       -1.11160594590399
C            5.74515356187785       -1.96638480224298       -0.48869867995249
C            6.67655790188783       -2.96190604869330       -0.11669601576408
C            6.26076637613431       -4.12890958320395        0.49898856142998
C            4.92456466902529       -4.34372275591647        0.76617892940807
C            3.95256283686644       -3.37709773517673        0.41075208125567
C            2.58608752331264       -3.55934293932492        0.66963534261539
C            1.65714662176477       -2.60138318449646        0.31596581966315
C            2.03025038443525       -1.41717608460380       -0.33072206078603
C            3.40923082568814       -1.20070044434629       -0.59346510670861
C            4.36576856289454       -2.17908032754296       -0.22574996923578
N           -0.94191010272092       -1.70623344735046       -0.37434108964788
C           -2.24140717451396       -1.44239931370121       -0.20553176774151
C           -3.31933494684201       -2.37326853091003       -0.17901885599098
C           -3.09815156248870       -3.73923262696276       -0.38206697436561
C           -4.15559443567059       -4.61777915516812       -0.40416581432390
C           -5.44833999840574       -4.13220535500518       -0.22985500921689
C           -5.67583112888633       -2.78843703847543       -0.02199281558720
C           -4.62279768681397       -1.86466108173837        0.02071339307875
C           -4.82322400285377       -0.44627311764534        0.27983264305445
C           -6.08488283689339        0.06263735628569        0.60675863101321
C           -6.28464388257571        1.39351028304065        0.90207599129697
C           -5.20844716231093        2.27563776250320        0.90499549877617
C           -3.95475345867008        1.81967896701848        0.58095237666312
C           -3.73228096319622        0.47300541040631        0.24140512136006
C           -2.45628202153643       -0.05160005427060       -0.08933730916477
C           -0.02779946522195        2.42896460852904        0.73037261125250
C            0.51990204713738        1.65431133693837        1.77101338873629
C            1.38240274263710        2.20812686299560        2.68037848630435
C            1.73241362630635        3.55943479618911        2.59089666319218
C            1.19627660327968        4.34632324697613        1.60429653207527
C            0.30168124280389        3.80857883656786        0.66131620084629
H           -1.62649456228724        4.68185733065229       -2.02824084710901
H           -2.17464667083510        2.27917908616978       -1.92519999264686
H            0.85836831080665        1.51605851414649       -1.67688199752286
H            3.21134192229454        1.84329891377954       -2.13038628498528
H            5.53880921571233        1.10270713844788       -1.93715222107315
H            7.19677890248601       -0.61122528204578       -1.31221532104361
H            7.72392159005850       -2.79547610918491       -0.32060002245853
H            6.99038487406823       -4.87662336104832        0.77500253901631
H            4.59986677703792       -5.25211985506402        1.25131803853109
H            2.26016358544616       -4.46623405248651        1.15781514632311
H            0.61410437803126       -2.76800360140337        0.52880258633801
H           -2.08227188772477       -4.07147709049387       -0.53099573821317
H           -3.98857730524809       -5.67250318862486       -0.56319044935326
H           -6.28522721721159       -4.81467466071094       -0.25839930469574
H           -6.69511932300421       -2.45979589404930        0.10072605522509
H           -6.93526157817685       -0.59808956991322        0.64605280527273
H           -7.27441995629160        1.74779804563347        1.14830620656547
H           -5.35458577149742        3.31323183796905        1.16575961234989
H           -3.12201831783620        2.50266203391526        0.61024981920444
H            0.25118307728842        0.61129718835596        1.85217147603012
H            1.79431126247547        1.59959365494881        3.47142527244082
H            2.42050412641137        3.98326217686048        3.30674517794852
H            1.45084828376625        5.39457042807508        1.53571323257546

          :  Hamiltonian                  GFN2-xTB          :
         :: gradient norm              0.000128672570 Eh/a0 ::
         :: HOMO-LUMO gap              0.178322448372 eV    ::
         :: SCC energy              -112.586812507696 Eh    ::
         :: -> dispersion             -0.106036365556 Eh    ::
         :: -> Gsolv                  -0.048062949175 Eh    ::
         :: repulsion energy           2.113799434946 Eh    ::

    * Orbital Energies and Occupations

         #    Occupation            Energy/Eh            Energy/eV
      -------------------------------------------------------------
         1        2.0000           -0.6990968             -19.0234
       ...           ...                  ...                  ...
        92        2.0000           -0.4202446             -11.4354
        93        2.0000           -0.4190495             -11.4029
        94        2.0000           -0.4152345             -11.2991
        95        2.0000           -0.4132643             -11.2455
        96        2.0000           -0.4099886             -11.1564
        97        2.0000           -0.4089651             -11.1285
        98        2.0000           -0.4018516             -10.9349
        99        2.0000           -0.3963439             -10.7851
       100        2.0000           -0.3909999             -10.6396
       101        2.0000           -0.3863017             -10.5118
       102        2.0000           -0.3827782             -10.4159
       103        1.0000           -0.3611050              -9.8262
       104        0.9692           -0.2988098              -8.1310 (HOMO)
       105        0.0308           -0.2922568              -7.9527 (LUMO)
       106                         -0.2627400              -7.1495
       107                         -0.2592196              -7.0537
       108                         -0.2488420              -6.7713
       109                         -0.2451797              -6.6717
       110                         -0.2338453              -6.3633
       111                         -0.2305991              -6.2749
       112                         -0.2294753              -6.2443
       113                         -0.2140952              -5.8258
       114                         -0.2080949              -5.6626
       115                         -0.2003872              -5.4528
       ...                                ...                  ...
       203                          1.1569077              31.4811
      -------------------------------------------------------------
                  HL-Gap            0.0065530 Eh            0.1783 eV

     #   Z          covCN         q      C6AA      α(0)
     1   7 N        0.911    -0.299    27.710     7.613
     2   6 C        1.913     0.115    28.263     8.586
     3   6 C        2.969    -0.006    28.171     8.706
     4   6 C        2.925    -0.026    28.659     8.779
     5   6 C        2.916    -0.044    29.094     8.845
     6   6 C        2.906     0.053    26.803     8.489
     7   7 N        2.828    -0.048    22.167     6.993
     8   6 C        3.142     0.134    24.852     8.157
     9   6 C        2.964    -0.010    28.256     8.719
    10   6 C        2.913    -0.037    28.916     8.818
    11   6 C        2.913    -0.036    28.898     8.815
    12   6 C        2.980     0.012    27.735     8.639
    13   6 C        2.915    -0.034    28.858     8.809
    14   6 C        2.916    -0.035    28.873     8.811
    15   6 C        2.978     0.015    27.681     8.630
    16   6 C        2.919    -0.033    28.830     8.805
    17   6 C        2.908    -0.027    28.680     8.781
    18   6 C        2.918    -0.033    28.827     8.804
    19   6 C        2.979     0.015    27.674     8.629
    20   6 C        2.916    -0.034    28.843     8.807
    21   6 C        2.915    -0.037    28.923     8.819
    22   6 C        2.975     0.012    27.739     8.639
    23   6 C        2.992     0.004    27.919     8.667
    24   6 C        2.997     0.004    27.935     8.670
    25   7 N        1.888    -0.307    28.803     7.956
    26   6 C        3.176     0.075    25.942     8.317
    27   6 C        2.984    -0.003    28.098     8.695
    28   6 C        2.922    -0.028    28.693     8.784
    29   6 C        2.916    -0.029    28.721     8.788
    30   6 C        2.917    -0.028    28.699     8.785
    31   6 C        2.921    -0.033    28.824     8.804
    32   6 C        2.978     0.000    28.012     8.682
    33   6 C        2.978     0.003    27.958     8.673
    34   6 C        2.921    -0.032    28.803     8.801
    35   6 C        2.916    -0.029    28.714     8.787
    36   6 C        2.915    -0.029    28.736     8.790
    37   6 C        2.919    -0.036    28.902     8.816
    38   6 C        2.975    -0.005    28.141     8.702
    39   6 C        3.050     0.033    27.208     8.555
    40   6 C        2.983     0.003    27.957     8.673
    41   6 C        2.918    -0.034    28.859     8.809
    42   6 C        2.916    -0.028    28.690     8.783
    43   6 C        2.916    -0.026    28.662     8.779
    44   6 C        2.918    -0.035    28.869     8.811
    45   6 C        2.989     0.016    27.638     8.624
    46   1 H        0.926     0.040     2.451     2.448
    47   1 H        0.926     0.040     2.449     2.447
    48   1 H        0.926     0.029     2.604     2.523
    49   1 H        0.926     0.038     2.479     2.462
    50   1 H        0.926     0.039     2.462     2.453
    51   1 H        0.926     0.041     2.432     2.439
    52   1 H        0.926     0.041     2.435     2.440
    53   1 H        0.926     0.040     2.454     2.450
    54   1 H        0.926     0.042     2.424     2.435
    55   1 H        0.926     0.043     2.411     2.428
    56   1 H        0.926     0.061     2.183     2.311
    57   1 H        0.926     0.051     2.310     2.377
    58   1 H        0.926     0.041     2.434     2.440
    59   1 H        0.926     0.041     2.436     2.441
    60   1 H        0.926     0.043     2.411     2.428
    61   1 H        0.926     0.046     2.375     2.410
    62   1 H        0.926     0.041     2.441     2.443
    63   1 H        0.926     0.037     2.495     2.470
    64   1 H        0.926     0.032     2.561     2.502
    65   1 H        0.926     0.028     2.612     2.527
    66   1 H        0.926     0.041     2.439     2.442
    67   1 H        0.926     0.042     2.425     2.435
    68   1 H        0.926     0.034     2.523     2.484

molecular dipole:
                 x           y           z       tot (Debye)
 q only:        0.062      -2.675       0.462
   full:       -0.215      -2.604       0.460       6.743

 projected vibrational frequencies (cm⁻¹)
eigval :       -0.00    -0.00     0.00     0.00     0.00     0.00
eigval :       13.39    20.85    27.17    29.77    34.64    38.40
eigval :       68.13    73.93    83.00   103.38   107.53   120.97
eigval :      122.43   129.39   146.56   158.11   175.12   176.70
eigval :      197.19   198.51   205.97   236.03   250.85   260.47
eigval :      271.62   281.90   306.25   338.38   344.76   378.35
eigval :      380.41   394.86   397.60   398.53   411.61   417.41
eigval :      428.77   430.94   434.67   440.09   447.87   452.87
eigval :      461.06   467.21   485.05   494.21   501.46   507.23
eigval :      511.04   529.00   539.39   558.69   565.18   578.73
eigval :      584.39   587.09   599.31   607.90   626.41   639.53
eigval :      644.02   661.84   664.95   672.26   675.05   677.41
eigval :      686.63   696.10   700.12   720.46   733.38   735.53
eigval :      739.61   756.39   759.32   765.98   774.65   777.01
eigval :      777.92   784.98   799.82   814.73   820.77   825.89
eigval :      830.59   855.01   856.75   869.41   872.07   891.30
eigval :      899.47   902.12   904.01   906.30   909.14   912.85
eigval :      914.02   917.80   919.95   923.25   928.30   930.45
eigval :      985.94   996.50  1006.16  1027.80  1072.04  1083.65
eigval :     1087.44  1099.12  1105.79  1119.06  1122.50  1141.45
eigval :     1148.13  1155.89  1163.91  1172.25  1173.89  1178.21
eigval :     1178.51  1183.59  1191.08  1193.29  1205.53  1209.78
eigval :     1212.81  1229.72  1236.03  1237.87  1248.87  1250.48
eigval :     1253.27  1259.83  1281.78  1285.77  1306.02  1323.92
eigval :     1328.26  1331.91  1334.37  1340.76  1343.86  1353.10
eigval :     1359.49  1374.86  1376.16  1382.47  1388.32  1394.17
eigval :     1403.73  1406.67  1417.49  1423.92  1426.42  1438.95
eigval :     1445.27  1461.51  1487.42  1490.06  1492.47  1501.97
eigval :     1513.47  1518.01  1518.32  1526.84  1531.13  1543.84
eigval :     1548.79  1552.40  1559.63  1577.94  1588.95  1589.58
eigval :     2312.38  3071.90  3072.98  3076.06  3076.67  3078.66
eigval :     3078.94  3079.49  3079.57  3081.49  3082.36  3084.75
eigval :     3087.21  3087.26  3088.99  3090.61  3093.25  3096.68
eigval :     3100.75  3103.21  3109.51  3113.85  3118.27  3124.27

   temp. (K)  partition function   enthalpy   heat capacity  entropy
                                   cal/mol     cal/K/mol   cal/K/mol   J/K/mol
 298.15  VIB  0.403E+14            19154.242    126.581    115.530
         ROT  0.561E+08              888.752      2.981     38.441
         INT  0.226E+22            20042.994    129.562    153.971
         TR   0.132E+29             1481.254      4.968     44.884
         TOT                       21524.2479   134.5303   198.8546   832.0077

       T/K    H(0)-H(T)+PV         H(T)/Eh          T*S/Eh         G(T)/Eh
   ------------------------------------------------------------------------
    298.15    0.343011E-01    0.538631E+00    0.944822E-01    0.444149E+00
   ------------------------------------------------------------------------

         :::::::::::::::::::::::::::::::::::::::::::::::::::::
         ::                  THERMODYNAMIC                  ::
         :::::::::::::::::::::::::::::::::::::::::::::::::::::
         :: total free energy        -110.028864064077 Eh   ::
         ::.................................................::
         :: total energy             -110.473013074301 Eh   ::
         :: zero point energy           0.504330180526 Eh   ::
         :: G(RRHO) w/o ZPVE           -0.060181170303 Eh   ::
         :: G(RRHO) contrib.            0.444149010223 Eh   ::
         :::::::::::::::::::::::::::::::::::::::::::::::::::::

           -------------------------------------------------
          | TOTAL ENERGY             -110.473013074301 Eh   |
          | TOTAL ENTHALPY           -109.934381821362 Eh   |
          | TOTAL FREE ENERGY        -110.028864064077 Eh   |
          | GRADIENT NORM               0.000127421857 Eh/α |
          | HOMO-LUMO GAP               0.178315754438 eV   |
           -------------------------------------------------

 * finished run on 2025/09/12 at 16:35:18.155
