   * xtb version 6.7.1 (edcfbbe) compiled by 'albert@albert-system' on 2024-07-22

   ID    Z sym.   atoms
    1    7 N      1, 7, 25
    2    6 C      2-6, 8-24, 26-45
    3    1 H      46-68

          program call               : xtb data2507/toluene/PPINCN/PPINCN.xyz --gfn 2 --gbsa toluene --ohess vtight --parallel 40 --molden --ceasefiles --namespace data2507/toluene/PPINCN/PPINCN_toluene_S0_preOpt
      * Solvation model:               GBSA
        Solvent                        toluene
        Solvent mass                       9.2140E+01 g/mol
          :  Hamiltonian                  GFN2-xTB          :
 * total energy  :  -110.5208178 Eh     change       -0.3369166E-08 Eh
 * total energy  :  -110.5347318 Eh     change       -0.1391400E-01 Eh
 * total energy  :  -110.5384213 Eh     change       -0.3689514E-02 Eh
 * total energy  :  -110.5385845 Eh     change       -0.1631191E-03 Eh
 * total energy  :  -110.5394463 Eh     change       -0.8618492E-03 Eh
 * total energy  :  -110.5397037 Eh     change       -0.2573425E-03 Eh
 * total energy  :  -110.5399277 Eh     change       -0.2240596E-03 Eh
 * total energy  :  -110.5400975 Eh     change       -0.1697957E-03 Eh
 * total energy  :  -110.5402202 Eh     change       -0.1226699E-03 Eh
 * total energy  :  -110.5403047 Eh     change       -0.8455314E-04 Eh
 * total energy  :  -110.5412874 Eh     change       -0.1529348E-05 Eh
 * total energy  :  -110.5412885 Eh     change       -0.1075149E-05 Eh
 * total energy  :  -110.5412895 Eh     change       -0.1069881E-05 Eh
 * total energy  :  -110.5412906 Eh     change       -0.1076790E-05 Eh
 * total energy  :  -110.5412914 Eh     change       -0.7483257E-06 Eh
 * total energy  :  -110.5412917 Eh     change       -0.3003644E-06 Eh
 * total energy  :  -110.5412919 Eh     change       -0.1880035E-06 Eh
 * total energy  :  -110.5412920 Eh     change       -0.1048792E-06 Eh
 * total energy  :  -110.5412920 Eh     change       -0.7175133E-07 Eh
   *** GEOMETRY OPTIMIZATION CONVERGED AFTER 55 ITERATIONS ***

 final structure:
================
68
 xtb: 6.7.1 (edcfbbe)
N            0.57008259202095        6.89633309955908       -0.90994328105603
C            0.26129621123755        5.79787593553357       -0.77892723990265
C           -0.14131098480254        4.45274649040396       -0.64073665835113
C           -1.13420464344156        3.96287497459152       -1.46686590730612
C           -1.52959557302256        2.62986406657330       -1.37269631603904
C           -0.95311741114112        1.79237277785884       -0.44140521326726
N           -1.30405108602414        0.43170724586659       -0.42229288587686
C           -0.43373249193057       -0.60155355181467       -0.72002983206590
C            0.97414039108241       -0.37228594865321       -1.02352939538981
C            1.32019293715288        0.60869651988998       -1.95094712751151
C            2.63806577379686        0.88944143082025       -2.23939994746598
C            3.67002717525856        0.19537687051836       -1.60533798967944
C            5.04222204307873        0.47209918037334       -1.87382882254609
C            6.03035728786883       -0.22078044021886       -1.26167854932036
C            5.73481435358500       -1.25324958537141       -0.32325627591014
C            6.73892306445569       -1.98144895220328        0.31800998237535
C            6.42162883497022       -2.97623758104981        1.22532011337080
C            5.10109615162631       -3.26790449918936        1.51500475483737
C            4.06431491518901       -2.56582925779040        0.89684885619718
C            2.69228051891925       -2.83794762131405        1.16936476785819
C            1.70089666156635       -2.14761050605675        0.55876765516868
C            1.98452176773473       -1.11956648378594       -0.38779140356774
C            3.34101664237037       -0.82328497150016       -0.67650676748555
C            4.37786070484759       -1.54604279248071       -0.03511935613246
N           -1.03439969101457       -1.76175931199989       -0.71652765402733
C           -2.33917888186532       -1.51332069261923       -0.41361340668022
C           -3.40670958815907       -2.44964031697444       -0.32349776675264
C           -3.20085884724843       -3.81266156411856       -0.56501997898196
C           -4.25185446265046       -4.69379357373132       -0.50697701434757
C           -5.52750273550143       -4.21830126279965       -0.20754158047014
C           -5.74036528284485       -2.88152577724228        0.03725477928291
C           -4.69102241543852       -1.94991385095963       -0.00530783985418
C           -4.87781101936597       -0.53755183017258        0.28130353078271
C           -6.12319858681167       -0.02325296220927        0.67149463570230
C           -6.29836208429787        1.30313104484483        0.98894710462393
C           -5.21824244967397        2.17990150121709        0.94997447465438
C           -3.98373815878319        1.71871144759856        0.56412041047906
C           -3.79153335714634        0.37737359625930        0.20243285132788
C           -2.53676246220630       -0.14989191217358       -0.21428822369833
C            0.04051984059855        2.27119798169972        0.45470443472762
C            0.60990466824739        1.46087286440827        1.45947966118679
C            1.59047171775286        1.94935403681990        2.27716623215641
C            2.03981555860756        3.27048730024351        2.13621108594893
C            1.48320426268084        4.09280233417646        1.19545048636329
C            0.46896804858279        3.61980051224273        0.33895173898194
H           -1.59229778736451        4.60796073971526       -2.20164184995859
H           -2.28783661521651        2.24542510069140       -2.03930066865572
H            0.54030863368143        1.14507641979974       -2.47192737544220
H            2.87903218464715        1.65264570974000       -2.96525478878064
H            5.27214666921532        1.25339876737502       -2.58439779465665
H            7.06837207786008       -0.00571705414104       -1.47272629557844
H            7.77310663133979       -1.75872440932108        0.09731051617600
H            7.21208639605859       -3.52963299205452        1.71166421434289
H            4.85980579574576       -4.04609795174491        2.22493748094788
H            2.45837162669753       -3.61729783141459        1.88087648655333
H            0.66686119896051       -2.37904688782251        0.76337892648124
H           -2.19969489044724       -4.13887382882089       -0.80293549395304
H           -4.09667933372144       -5.74590568435639       -0.69540509767124
H           -6.35897390884496       -4.90711315037494       -0.16654741021737
H           -6.74462719968214       -2.55997021231534        0.26244335582982
H           -6.97635083874007       -0.67855213265045        0.73753698366166
H           -7.27339066992884        1.66204788270688        1.28391255197190
H           -5.34755995154855        3.21600806541836        1.22595274417473
H           -3.14386551225853        2.39543716835928        0.55477473492728
H            0.25896516350376        0.44755803039959        1.58335014360615
H            2.02215656631117        1.31718021421092        3.03816271741108
H            2.82066198918070        3.63891550340888        2.78396993455624
H            1.81032986469286        5.11760956810734        1.09412386193473

          :  Hamiltonian                  GFN2-xTB          :
         :: gradient norm              0.000037163505 Eh/a0 ::
         :: HOMO-LUMO gap              1.720686548991 eV    ::
         :: SCC energy              -112.674937591924 Eh    ::
         :: -> dispersion             -0.107046520790 Eh    ::
         :: -> Gsolv                  -0.047081250490 Eh    ::
         :: repulsion energy           2.133645563550 Eh    ::

    * Orbital Energies and Occupations

         #    Occupation            Energy/Eh            Energy/eV
      -------------------------------------------------------------
         1        2.0000           -0.6969209             -18.9642
       ...           ...                  ...                  ...
        91        2.0000           -0.4222444             -11.4899
        92        2.0000           -0.4218405             -11.4789
        93        2.0000           -0.4163405             -11.3292
        94        2.0000           -0.4148664             -11.2891
        95        2.0000           -0.4108357             -11.1794
        96        2.0000           -0.4105849             -11.1726
        97        2.0000           -0.4074853             -11.0882
        98        2.0000           -0.4009994             -10.9117
        99        2.0000           -0.3975803             -10.8187
       100        2.0000           -0.3874905             -10.5442
       101        2.0000           -0.3866217             -10.5205
       102        2.0000           -0.3780498             -10.2873
       103        2.0000           -0.3656731              -9.9505 (HOMO)
       104                         -0.3024391              -8.2298 (LUMO)
       105                         -0.2860569              -7.7840
       106                         -0.2578281              -7.0159
       107                         -0.2562821              -6.9738
       108                         -0.2542170              -6.9176
       109                         -0.2486363              -6.7657
       110                         -0.2387760              -6.4974
       111                         -0.2289045              -6.2288
       112                         -0.2254107              -6.1337
       113                         -0.2194706              -5.9721
       114                         -0.2093181              -5.6958
       ...                                ...                  ...
       203                          1.1512951              31.3283
      -------------------------------------------------------------
                  HL-Gap            0.0632341 Eh            1.7207 eV

     #   Z          covCN         q      C6AA      α(0)
     1   7 N        0.911    -0.267    26.911     7.503
     2   6 C        1.913     0.121    28.119     8.564
     3   6 C        2.970     0.008    27.833     8.654
     4   6 C        2.926    -0.018    28.467     8.750
     5   6 C        2.918    -0.038    28.950     8.823
     6   6 C        2.908     0.069    26.457     8.434
     7   7 N        2.842    -0.052    22.243     7.005
     8   6 C        3.181     0.141    24.536     8.086
     9   6 C        2.971    -0.012    28.307     8.727
    10   6 C        2.920    -0.038    28.936     8.821
    11   6 C        2.918    -0.039    28.979     8.828
    12   6 C        2.982     0.012    27.746     8.640
    13   6 C        2.913    -0.036    28.903     8.816
    14   6 C        2.913    -0.034    28.849     8.807
    15   6 C        2.982     0.012    27.736     8.639
    16   6 C        2.920    -0.035    28.883     8.813
    17   6 C        2.913    -0.029    28.735     8.790
    18   6 C        2.920    -0.035    28.878     8.812
    19   6 C        2.981     0.012    27.734     8.639
    20   6 C        2.913    -0.034    28.854     8.808
    21   6 C        2.912    -0.036    28.895     8.815
    22   6 C        2.983     0.011    27.752     8.641
    23   6 C        2.995     0.003    27.950     8.672
    24   6 C        2.997     0.003    27.944     8.671
    25   7 N        1.893    -0.311    28.906     7.971
    26   6 C        3.203     0.060    26.103     8.324
    27   6 C        2.985    -0.002    28.079     8.692
    28   6 C        2.921    -0.033    28.816     8.803
    29   6 C        2.917    -0.031    28.768     8.795
    30   6 C        2.917    -0.033    28.822     8.804
    31   6 C        2.921    -0.036    28.890     8.814
    32   6 C        2.979    -0.004    28.111     8.697
    33   6 C        2.979    -0.000    28.026     8.684
    34   6 C        2.922    -0.034    28.851     8.808
    35   6 C        2.916    -0.033    28.818     8.803
    36   6 C        2.917    -0.032    28.787     8.798
    37   6 C        2.919    -0.040    29.002     8.831
    38   6 C        2.978    -0.005    28.143     8.702
    39   6 C        3.067     0.020    27.484     8.596
    40   6 C        2.985     0.005    27.914     8.667
    41   6 C        2.917    -0.028    28.697     8.784
    42   6 C        2.916    -0.022    28.566     8.764
    43   6 C        2.916    -0.020    28.518     8.757
    44   6 C        2.917    -0.030    28.743     8.792
    45   6 C        2.990     0.020    27.545     8.609
    46   1 H        0.926     0.054     2.274     2.358
    47   1 H        0.926     0.051     2.302     2.373
    48   1 H        0.926     0.023     2.682     2.561
    49   1 H        0.926     0.037     2.486     2.466
    50   1 H        0.926     0.037     2.486     2.466
    51   1 H        0.926     0.039     2.458     2.452
    52   1 H        0.926     0.038     2.479     2.462
    53   1 H        0.926     0.037     2.494     2.470
    54   1 H        0.926     0.038     2.480     2.463
    55   1 H        0.926     0.039     2.468     2.457
    56   1 H        0.926     0.042     2.425     2.435
    57   1 H        0.926     0.045     2.389     2.417
    58   1 H        0.926     0.034     2.524     2.484
    59   1 H        0.926     0.034     2.530     2.488
    60   1 H        0.926     0.037     2.494     2.470
    61   1 H        0.926     0.040     2.454     2.450
    62   1 H        0.926     0.035     2.518     2.482
    63   1 H        0.926     0.033     2.549     2.496
    64   1 H        0.926     0.025     2.653     2.547
    65   1 H        0.926     0.038     2.480     2.463
    66   1 H        0.926     0.049     2.330     2.387
    67   1 H        0.926     0.052     2.297     2.370
    68   1 H        0.926     0.045     2.385     2.415

molecular dipole:
                 x           y           z       tot (Debye)
 q only:        0.581      -0.693       0.689
   full:        0.259      -0.710       0.700       2.620

 projected vibrational frequencies (cm⁻¹)
eigval :       -0.00    -0.00    -0.00    -0.00     0.00     0.00
eigval :       11.43    17.51    26.42    28.39    32.33    35.87
eigval :       69.11    77.59    85.44   101.01   108.86   115.22
eigval :      121.98   128.76   142.32   163.29   174.27   177.45
eigval :      196.82   203.83   212.96   236.31   244.09   260.61
eigval :      272.04   287.63   308.48   340.64   345.62   381.81
eigval :      391.27   397.63   401.42   404.23   414.83   422.76
eigval :      427.45   437.44   440.70   450.68   455.33   469.04
eigval :      471.24   478.09   488.22   497.39   504.81   511.59
eigval :      520.17   536.06   543.72   561.67   575.47   584.41
eigval :      589.11   593.98   608.60   611.47   639.21   648.27
eigval :      656.92   662.17   671.57   679.83   681.48   685.15
eigval :      693.49   700.49   703.53   729.78   735.55   739.87
eigval :      757.47   763.48   767.12   773.37   778.78   780.05
eigval :      781.61   801.30   817.77   828.49   834.94   841.06
eigval :      849.00   860.57   876.19   881.25   887.30   905.79
eigval :      909.97   912.31   915.08   916.93   919.05   921.73
eigval :      921.90   922.42   926.80   927.71   931.76   941.18
eigval :      995.62  1001.13  1019.95  1025.41  1075.23  1083.54
eigval :     1084.85  1102.80  1106.57  1111.62  1127.26  1148.76
eigval :     1156.94  1161.50  1171.43  1174.92  1177.54  1179.94
eigval :     1183.61  1186.88  1191.54  1198.00  1208.35  1213.44
eigval :     1224.30  1233.58  1236.95  1252.68  1253.70  1254.88
eigval :     1262.12  1279.96  1285.87  1304.55  1315.11  1324.03
eigval :     1327.18  1336.88  1342.54  1351.00  1359.63  1378.80
eigval :     1385.13  1387.13  1390.85  1406.05  1407.18  1411.09
eigval :     1416.16  1417.83  1427.82  1433.56  1448.80  1450.38
eigval :     1485.48  1491.60  1500.47  1511.44  1513.78  1536.03
eigval :     1548.92  1552.23  1559.84  1561.19  1564.67  1568.63
eigval :     1576.52  1592.82  1601.08  1603.11  1603.86  1605.63
eigval :     2353.61  3065.67  3068.75  3070.55  3071.59  3072.51
eigval :     3074.85  3074.88  3078.71  3081.48  3081.72  3084.42
eigval :     3084.55  3085.82  3086.55  3086.74  3094.32  3096.59
eigval :     3096.76  3099.23  3099.39  3102.05  3107.54  3111.47

   temp. (K)  partition function   enthalpy   heat capacity  entropy
                                   cal/mol     cal/K/mol   cal/K/mol   J/K/mol
 298.15  VIB  0.547E+14            18975.147    125.076    114.856
         ROT  0.530E+08              888.752      2.981     38.324
         INT  0.290E+22            19863.899    128.057    153.180
         TR   0.132E+29             1481.254      4.968     44.884
         TOT                       21345.1531   133.0252   198.0641   828.7002

       T/K    H(0)-H(T)+PV         H(T)/Eh          T*S/Eh         G(T)/Eh
   ------------------------------------------------------------------------
    298.15    0.340157E-01    0.541765E+00    0.941066E-01    0.447658E+00
   ------------------------------------------------------------------------

         :::::::::::::::::::::::::::::::::::::::::::::::::::::
         ::                  THERMODYNAMIC                  ::
         :::::::::::::::::::::::::::::::::::::::::::::::::::::
         :: total free energy        -110.093633825680 Eh   ::
         ::.................................................::
         :: total energy             -110.541292026962 Eh   ::
         :: zero point energy           0.507749177727 Eh   ::
         :: G(RRHO) w/o ZPVE           -0.060090976444 Eh   ::
         :: G(RRHO) contrib.            0.447658201282 Eh   ::
         :::::::::::::::::::::::::::::::::::::::::::::::::::::

           -------------------------------------------------
          | TOTAL ENERGY             -110.541292026962 Eh   |
          | TOTAL ENTHALPY           -109.999527182559 Eh   |
          | TOTAL FREE ENERGY        -110.093633825680 Eh   |
          | GRADIENT NORM               0.000037149738 Eh/α |
          | HOMO-LUMO GAP               1.720686159491 eV   |
           -------------------------------------------------

 * finished run on 2025/09/12 at 16:31:52.738
