   * xtb version 6.7.1 (edcfbbe) compiled by 'albert@albert-system' on 2024-07-22

   ID    Z sym.   atoms
    1    6 C      1-23, 25-38, 40-45, 47-57, 59-68
    2    7 N      24, 39, 46, 58
    3    1 H      69-110

          program call               : xtb data2507/toluene/CzppT/CzppT.xyz --gfn 2 --gbsa toluene --ohess vtight --parallel 40 --molden --ceasefiles --namespace data2507/toluene/CzppT/CzppT_toluene_S0_preOpt
      * Solvation model:               GBSA
        Solvent                        toluene
        Solvent mass                       9.2140E+01 g/mol
          :  Hamiltonian                  GFN2-xTB          :
 * total energy  :  -170.2507316 Eh     change       -0.1777522E-08 Eh
 * total energy  :  -170.2690868 Eh     change       -0.1835529E-01 Eh
 * total energy  :  -170.2730571 Eh     change       -0.3970272E-02 Eh
 * total energy  :  -170.2739119 Eh     change       -0.8547929E-03 Eh
 * total energy  :  -170.2745685 Eh     change       -0.6566198E-03 Eh
 * total energy  :  -170.2749527 Eh     change       -0.3841311E-03 Eh
 * total energy  :  -170.2755176 Eh     change       -0.5649512E-03 Eh
 * total energy  :  -170.2762138 Eh     change       -0.6962269E-03 Eh
 * total energy  :  -170.2770899 Eh     change       -0.8760785E-03 Eh
 * total energy  :  -170.2780788 Eh     change       -0.9888434E-03 Eh
 * total energy  :  -170.2869883 Eh     change       -0.1016280E-05 Eh
 * total energy  :  -170.2869893 Eh     change       -0.1005252E-05 Eh
 * total energy  :  -170.2869904 Eh     change       -0.1074799E-05 Eh
 * total energy  :  -170.2869916 Eh     change       -0.1165841E-05 Eh
 * total energy  :  -170.2869928 Eh     change       -0.1187788E-05 Eh
 * total energy  :  -170.2869939 Eh     change       -0.1167446E-05 Eh
 * total energy  :  -170.2869951 Eh     change       -0.1183119E-05 Eh
 * total energy  :  -170.2869964 Eh     change       -0.1286902E-05 Eh
 * total energy  :  -170.2869964 Eh     change       -0.6570275E-08 Eh
   *** GEOMETRY OPTIMIZATION CONVERGED AFTER 122 ITERATIONS ***

 final structure:
================
110
 xtb: 6.7.1 (edcfbbe)
C            2.83960306091870       -3.93090208073510        0.01773376479933
C            1.97934990199315       -3.63063460519440       -1.02538685058742
C            1.28138323038956       -2.43681100113728       -1.02874186437696
C            1.44065520961118       -1.52399699598565        0.00895470808032
C            0.70028441802784       -0.24368768309537        0.00375811570761
C           -0.69641370805112       -0.24467376399227       -0.01305646581096
C           -1.43506898185404       -1.52577809290607       -0.03390613040964
C           -2.30168511224536       -1.82218463262074       -1.08126804448108
C           -2.99093870743411       -3.02087621575820       -1.10244851263423
C           -2.83060047660367       -3.93428764320016       -0.07346432791695
C           -1.97131938422093       -3.64584332175346        0.97378715333836
C           -1.27506168200842       -2.45114077442128        0.99246931144068
C           -1.39765806704402        0.96533500171804       -0.01552084509910
C           -2.87344293175426        0.95940508129075       -0.03862256843951
C           -3.57096839768744        1.59337210779053       -1.06235599660196
C           -4.95067984812244        1.55336882059057       -1.10257142374169
C           -5.67166260265574        0.87970093006302       -0.11934688732600
C           -7.13877725905843        0.80163999011810       -0.18290708634294
C           -7.92393244438152        1.92109012929042       -0.43061861671079
C           -9.31281817654428        1.84973714888989       -0.48262733211015
C           -9.97573390733382        0.65157392453099       -0.30055758190308
C           -9.22251339948741       -0.49272349515178       -0.06720330132351
C           -7.81147009609451       -0.40952507890962       -0.00650136160009
N           -7.30091470956538       -1.66536945438966        0.20445144519384
C           -8.33085650085022       -2.56683706218835        0.28252810751058
C           -8.29139413749181       -3.93887168381071        0.48246033688094
C           -9.49507479165132       -4.61607309050475        0.52678754818458
C          -10.70957339587333       -3.94766101894670        0.37764971308455
C          -10.75379639200765       -2.58180314674970        0.17747232129705
C           -9.55703623598091       -1.87737388154034        0.12807028366312
C           -4.97126704601907        0.27176204100746        0.92129475280114
C           -3.59219516211662        0.30946824000137        0.96005776986454
C           -0.69771039752432        2.17264462704318       -0.00110928588071
C           -1.41555138662652        3.46301611716245       -0.02478562299739
C           -2.35334071770156        3.78713568993446        0.95445129850038
C           -2.99033812112517        5.01200618177851        0.88391551771048
C           -2.67759230172462        5.87163286148988       -0.15914346692128
C           -1.73116586609794        5.45687896699345       -1.08169079034118
N           -1.11519560275880        4.28938375013476       -1.02273648796627
C            0.69762999391623        2.17363992195014        0.01876833176436
C            1.41357550473807        3.46476169430811        0.05591579106830
C            2.35227357065588        3.79958713045933       -0.91889013301671
C            2.98778208867965        5.02442023876898       -0.83551717105565
C            2.67258201751368        5.87348680181169        0.21542109622318
C            1.72524163983946        5.44873926826279        1.13246689853060
N            1.11082897229183        4.28108708649106        1.06139250343675
C            1.39955695538036        0.96737903968440        0.02053631968486
C            2.87528753302895        0.96358060897020        0.04571078605808
C            3.57031870829420        1.58857212549406        1.07667657148552
C            4.94993881221222        1.54853578205725        1.11975656157620
C            5.67339199657964        0.88382366491364        0.13224435223191
C            7.14000609268394        0.80228572647768        0.20019766357326
C            7.92693859439233        1.91630254884592        0.46618435299641
C            9.31539510307770        1.84056524314417        0.52327971788567
C            9.97602922960767        0.64322329138783        0.32790170924643
C            9.22095551447386       -0.49586130338763        0.07571729819836
C            7.81042003607435       -0.40809399739905        0.00990357530760
N            7.29757592393884       -1.65952812820612       -0.22082783699985
C            8.32554823434931       -2.56245307190171       -0.30717544582785
C            8.28330093367315       -3.93139128337090       -0.52678592104476
C            9.48534707771481       -4.61120698449491       -0.57507900790326
C           10.70086606724586       -3.94836200193211       -0.41031135280417
C           10.74785468704816       -2.58553969756184       -0.19094296245793
C            9.55278684575563       -1.87852500407620       -0.13739826023610
C            4.97559297844537        0.28653689532998       -0.91630572907836
C            3.59662508263563        0.32411431281253       -0.95783731086865
C            2.30817190487056       -1.83228205439478        1.05214107989081
C            2.99915647160977       -3.03016448028730        1.05795121362837
H            3.38214676518088       -4.86519734750661        0.02153322041836
H            1.85053120046193       -4.32927131419712       -1.83941600474489
H            0.61472942894177       -2.20171549326681       -1.84581392044177
H           -2.42488633602408       -1.11241327443811       -1.88671750798539
H           -3.65733167195061       -3.24161951745539       -1.92428166201976
H           -3.37170441111904       -4.86929718648927       -0.08930922064353
H           -1.84201644580506       -4.35437528910408        1.77916256010742
H           -0.60903630024834       -2.22527310808536        1.81264629743986
H           -3.02160156143863        2.10271668803102       -1.84180623946229
H           -5.47910732705918        2.02978130658065       -1.91564135594322
H           -7.43749523056224        2.87648954023491       -0.56622077549784
H           -9.87748735799818        2.75187875868358       -0.66813986017677
H          -11.05328714902916        0.60129198602802       -0.34333294413125
H           -6.32140889836624       -1.89051253297387        0.24428568112176
H           -7.35095102048685       -4.45741682454572        0.59837568558714
H           -9.49715881027343       -5.68558499986108        0.68024615881402
H          -11.62948532840998       -4.51256310310844        0.41917505043676
H          -11.69745676804048       -2.06956126297323        0.06209330467183
H           -5.51558204451865       -0.21310677081806        1.71955309197953
H           -3.06331376626851       -0.16114025286759        1.77599463233035
H           -2.56188900479451        3.09510360423925        1.75525781700723
H           -3.71854617220027        5.29448741479226        1.63077184323179
H           -3.15191725861072        6.83620369805531       -0.25288610710519
H           -1.44508943401087        6.08626591198025       -1.91588402075706
H            2.56295518817293        3.11567870297720       -1.72608620284687
H            3.71678687785739        5.31493473050280       -1.57851458950885
H            3.14577415811006        6.83758131938956        0.31929820987323
H            1.43724366435465        6.06980080384597        1.97223358803535
H            3.01903871192695        2.09042462383623        1.85962947182457
H            5.47629845858520        2.01747484042793        1.93848398829715
H            7.44244689709175        2.87110854846396        0.61250256537752
H            9.88160111635623        2.73860625338644        0.72345166101393
H           11.05324421976977        0.58952969792021        0.37487002228001
H            6.31764216279224       -1.88161358855140       -0.26742066725927
H            7.34199961021658       -4.44554771503830       -0.65467417597487
H            9.48531211471151       -5.67839174537302       -0.74393138622503
H           11.61944082468323       -4.51517471694212       -0.45525368293891
H           11.69236172539746       -2.07767867990226       -0.06374409633529
H            5.52179960677263       -0.18997439716229       -1.71826039414043
H            3.06976147852201       -0.13865198883436       -1.77953710994973
H            2.43093341581720       -1.13239162008379        1.86624485959427
H            3.66620122762588       -3.26021896058890        1.87669722644679

          :  Hamiltonian                  GFN2-xTB          :
         :: gradient norm              0.000065143357 Eh/a0 ::
         :: HOMO-LUMO gap              2.744840458462 eV    ::
         :: SCC energy              -173.527567891010 Eh    ::
         :: -> dispersion             -0.172695239752 Eh    ::
         :: -> Gsolv                  -0.068958490622 Eh    ::
         :: repulsion energy           3.240571488324 Eh    ::

    * Orbital Energies and Occupations

         #    Occupation            Energy/Eh            Energy/eV
      -------------------------------------------------------------
         1        2.0000           -0.6758329             -18.3903
       ...           ...                  ...                  ...
       147        2.0000           -0.4056484             -11.0383
       148        2.0000           -0.4026899             -10.9578
       149        2.0000           -0.4016116             -10.9284
       150        2.0000           -0.3992329             -10.8637
       151        2.0000           -0.3919988             -10.6668
       152        2.0000           -0.3864325             -10.5154
       153        2.0000           -0.3843683             -10.4592
       154        2.0000           -0.3772029             -10.2642
       155        2.0000           -0.3770332             -10.2596
       156        2.0000           -0.3708181             -10.0905
       157        2.0000           -0.3701582             -10.0725
       158        2.0000           -0.3635096              -9.8916
       159        2.0000           -0.3629050              -9.8751 (HOMO)
       160                         -0.2620340              -7.1303 (LUMO)
       161                         -0.2605252              -7.0893
       162                         -0.2504120              -6.8141
       163                         -0.2498908              -6.7999
       164                         -0.2457907              -6.6883
       165                         -0.2426751              -6.6035
       166                         -0.2333676              -6.3503
       167                         -0.2330473              -6.3415
       168                         -0.2326866              -6.3317
       169                         -0.2298430              -6.2543
       170                         -0.2277435              -6.1972
       ...                                ...                  ...
       314                          0.7446593              20.2632
      -------------------------------------------------------------
                  HL-Gap            0.1008710 Eh            2.7448 eV

     #   Z          covCN         q      C6AA      α(0)
     1   6 C        2.920    -0.033    28.818     8.803
     2   6 C        2.919    -0.030    28.753     8.793
     3   6 C        2.925    -0.032    28.789     8.799
     4   6 C        2.978     0.016    27.645     8.625
     5   6 C        2.982     0.001    28.008     8.681
     6   6 C        2.982     0.001    28.008     8.681
     7   6 C        2.978     0.016    27.646     8.625
     8   6 C        2.925    -0.033    28.810     8.802
     9   6 C        2.919    -0.032    28.800     8.800
    10   6 C        2.920    -0.033    28.818     8.803
    11   6 C        2.919    -0.030    28.753     8.793
    12   6 C        2.924    -0.032    28.789     8.799
    13   6 C        2.981    -0.001    28.047     8.687
    14   6 C        2.978     0.011    27.770     8.644
    15   6 C        2.923    -0.033    28.820     8.804
    16   6 C        2.923    -0.036    28.884     8.814
    17   6 C        2.975     0.008    27.840     8.655
    18   6 C        2.968    -0.016    28.398     8.741
    19   6 C        2.927    -0.040    28.991     8.830
    20   6 C        2.918    -0.044    29.090     8.845
    21   6 C        2.912    -0.037    28.911     8.817
    22   6 C        3.070    -0.018    28.391     8.737
    23   6 C        3.075     0.050    26.807     8.489
    24   7 N        2.756    -0.122    23.647     7.222
    25   6 C        3.072     0.054    26.709     8.474
    26   6 C        2.909    -0.056    29.392     8.890
    27   6 C        2.924    -0.034    28.859     8.810
    28   6 C        2.920    -0.044    29.086     8.844
    29   6 C        2.912    -0.035    28.863     8.810
    30   6 C        3.071    -0.018    28.387     8.736
    31   6 C        2.923    -0.041    29.008     8.832
    32   6 C        2.923    -0.034    28.844     8.807
    33   6 C        2.986     0.001    28.008     8.681
    34   6 C        2.966     0.114    25.491     8.281
    35   6 C        2.918    -0.041    29.025     8.835
    36   6 C        2.928    -0.011    28.302     8.724
    37   6 C        2.914    -0.044    29.086     8.844
    38   6 C        2.907     0.062    26.609     8.458
    39   7 N        1.843    -0.259    27.582     7.783
    40   6 C        2.986     0.001    28.008     8.681
    41   6 C        2.966     0.114    25.491     8.282
    42   6 C        2.918    -0.041    29.025     8.835
    43   6 C        2.928    -0.011    28.302     8.724
    44   6 C        2.914    -0.044    29.086     8.844
    45   6 C        2.907     0.062    26.609     8.458
    46   7 N        1.843    -0.259    27.582     7.783
    47   6 C        2.981    -0.001    28.047     8.687
    48   6 C        2.978     0.011    27.770     8.644
    49   6 C        2.923    -0.033    28.820     8.804
    50   6 C        2.923    -0.036    28.885     8.814
    51   6 C        2.975     0.008    27.840     8.655
    52   6 C        2.968    -0.016    28.398     8.741
    53   6 C        2.927    -0.040    28.991     8.830
    54   6 C        2.918    -0.044    29.090     8.845
    55   6 C        2.912    -0.037    28.911     8.817
    56   6 C        3.070    -0.018    28.391     8.737
    57   6 C        3.075     0.050    26.807     8.489
    58   7 N        2.756    -0.122    23.648     7.222
    59   6 C        3.073     0.054    26.708     8.474
    60   6 C        2.909    -0.056    29.392     8.890
    61   6 C        2.924    -0.034    28.859     8.810
    62   6 C        2.920    -0.044    29.086     8.844
    63   6 C        2.912    -0.035    28.863     8.810
    64   6 C        3.071    -0.018    28.387     8.736
    65   6 C        2.923    -0.041    29.010     8.833
    66   6 C        2.923    -0.034    28.845     8.807
    67   6 C        2.925    -0.033    28.810     8.802
    68   6 C        2.919    -0.032    28.800     8.800
    69   1 H        0.926     0.033     2.543     2.494
    70   1 H        0.926     0.034     2.534     2.490
    71   1 H        0.926     0.030     2.588     2.516
    72   1 H        0.926     0.028     2.610     2.527
    73   1 H        0.926     0.032     2.557     2.500
    74   1 H        0.926     0.033     2.543     2.494
    75   1 H        0.926     0.034     2.534     2.490
    76   1 H        0.926     0.030     2.588     2.516
    77   1 H        0.926     0.026     2.641     2.541
    78   1 H        0.926     0.034     2.526     2.486
    79   1 H        0.926     0.030     2.581     2.513
    80   1 H        0.926     0.029     2.607     2.525
    81   1 H        0.926     0.031     2.567     2.505
    82   1 H        0.860     0.164     1.309     1.793
    83   1 H        0.926     0.029     2.605     2.524
    84   1 H        0.926     0.031     2.578     2.511
    85   1 H        0.926     0.028     2.620     2.531
    86   1 H        0.926     0.030     2.581     2.512
    87   1 H        0.926     0.033     2.541     2.493
    88   1 H        0.926     0.032     2.558     2.501
    89   1 H        0.926     0.038     2.478     2.462
    90   1 H        0.926     0.042     2.421     2.433
    91   1 H        0.926     0.040     2.444     2.445
    92   1 H        0.925     0.031     2.565     2.505
    93   1 H        0.926     0.038     2.478     2.462
    94   1 H        0.926     0.042     2.421     2.433
    95   1 H        0.926     0.040     2.444     2.445
    96   1 H        0.925     0.031     2.565     2.505
    97   1 H        0.926     0.026     2.641     2.541
    98   1 H        0.926     0.034     2.526     2.485
    99   1 H        0.926     0.030     2.581     2.512
   100   1 H        0.926     0.029     2.607     2.525
   101   1 H        0.926     0.031     2.567     2.505
   102   1 H        0.860     0.164     1.309     1.792
   103   1 H        0.926     0.029     2.605     2.524
   104   1 H        0.926     0.031     2.578     2.511
   105   1 H        0.926     0.028     2.620     2.531
   106   1 H        0.926     0.030     2.581     2.512
   107   1 H        0.926     0.033     2.541     2.493
   108   1 H        0.926     0.032     2.558     2.501
   109   1 H        0.926     0.028     2.611     2.527
   110   1 H        0.926     0.032     2.557     2.501

molecular dipole:
                 x           y           z       tot (Debye)
 q only:        0.000      -0.682      -0.006
   full:        0.000      -0.363      -0.004       0.924

 projected vibrational frequencies (cm⁻¹)
eigval :       -0.00    -0.00     0.00     0.00     0.00     0.00
eigval :        4.04     5.15    10.78    14.79    19.54    22.36
eigval :       25.44    29.48    37.82    41.26    44.03    49.67
eigval :       50.81    52.38    53.64    56.51    68.55    69.12
eigval :       72.01    87.02    90.61    97.83   108.53   110.72
eigval :      111.66   115.39   119.46   128.53   145.56   164.01
eigval :      172.43   183.81   193.55   193.67   195.69   217.98
eigval :      221.58   227.19   232.08   244.94   245.89   255.57
eigval :      258.32   270.18   278.88   279.79   305.37   310.88
eigval :      330.47   336.29   340.81   357.33   367.19   372.40
eigval :      374.65   374.99   375.78   378.61   379.53   410.42
eigval :      413.67   421.45   425.32   446.09   461.53   463.13
eigval :      470.21   471.25   481.20   488.66   490.87   514.24
eigval :      518.29   522.46   523.51   532.01   532.58   536.27
eigval :      544.74   545.53   551.79   555.47   561.08   578.91
eigval :      584.77   586.39   589.75   589.79   594.06   594.70
eigval :      600.54   602.98   610.71   614.22   626.33   640.58
eigval :      645.12   648.33   651.61   655.89   673.92   679.98
eigval :      684.63   686.20   691.96   696.46   700.24   707.05
eigval :      709.31   710.60   713.97   727.27   731.13   749.54
eigval :      761.97   768.87   772.49   772.60   784.13   784.57
eigval :      789.36   796.69   797.97   821.76   829.93   832.67
eigval :      845.95   856.03   856.22   860.15   862.16   865.23
eigval :      865.72   875.15   880.95   881.60   883.97   886.14
eigval :      887.08   888.04   889.74   890.08   890.55   899.87
eigval :      900.27   905.97   906.95   912.72   912.78   913.38
eigval :      915.16   921.20   921.35   925.60   926.79   932.00
eigval :      932.80   933.97   935.29   936.00   936.86   937.22
eigval :      937.95   963.95   973.42   988.44   992.66  1002.98
eigval :     1005.43  1028.32  1032.69  1051.35  1065.76  1065.81
eigval :     1078.46  1084.74  1088.39  1094.20  1096.82  1100.99
eigval :     1101.22  1118.84  1118.90  1119.99  1120.80  1122.47
eigval :     1124.61  1136.79  1137.52  1146.80  1147.07  1162.51
eigval :     1164.46  1164.74  1164.80  1175.98  1178.36  1181.54
eigval :     1181.56  1181.84  1181.91  1193.30  1193.44  1198.57
eigval :     1199.32  1201.85  1202.63  1230.38  1230.48  1242.34
eigval :     1245.33  1253.31  1257.07  1270.13  1270.68  1271.18
eigval :     1271.55  1279.18  1279.60  1282.12  1283.04  1285.23
eigval :     1288.08  1290.65  1309.51  1310.21  1311.71  1312.97
eigval :     1314.29  1316.34  1316.43  1322.52  1326.84  1353.21
eigval :     1353.36  1370.67  1371.31  1373.33  1388.37  1390.29
eigval :     1400.04  1406.83  1409.47  1410.05  1414.43  1422.76
eigval :     1428.27  1428.35  1431.01  1431.16  1449.07  1456.33
eigval :     1480.27  1481.78  1487.22  1487.31  1488.32  1488.67
eigval :     1508.72  1510.66  1535.90  1538.04  1555.42  1558.97
eigval :     1559.50  1560.33  1575.00  1575.03  1580.83  1581.40
eigval :     1581.50  1582.43  1584.69  1584.73  1596.44  1596.47
eigval :     1599.71  1599.79  1600.08  1600.28  1614.12  1614.14
eigval :     3039.76  3040.19  3067.06  3067.17  3068.35  3068.58
eigval :     3068.90  3069.02  3069.38  3069.43  3069.73  3069.90
eigval :     3070.65  3070.70  3070.75  3071.03  3073.62  3073.68
eigval :     3077.51  3078.02  3079.25  3079.34  3080.74  3080.79
eigval :     3081.57  3082.30  3082.76  3083.05  3085.24  3085.62
eigval :     3088.89  3088.92  3089.77  3089.91  3091.36  3091.42
eigval :     3092.85  3093.11  3097.81  3098.42  3478.85  3479.14

   temp. (K)  partition function   enthalpy   heat capacity  entropy
                                   cal/mol     cal/K/mol   cal/K/mol   J/K/mol
 298.15  VIB  0.915E+27            32222.279    200.187    204.668
         ROT  0.118E+09              888.752      2.981     39.913
         INT  0.108E+36            33111.031    203.167    244.581
         TR   0.247E+29             1481.254      4.968     46.135
         TOT                       34592.2853   208.1356   290.7161  1216.3563

       T/K    H(0)-H(T)+PV         H(T)/Eh          T*S/Eh         G(T)/Eh
   ------------------------------------------------------------------------
    298.15    0.551263E-01    0.900602E+00    0.138129E+00    0.762474E+00
   ------------------------------------------------------------------------

         :::::::::::::::::::::::::::::::::::::::::::::::::::::
         ::                  THERMODYNAMIC                  ::
         :::::::::::::::::::::::::::::::::::::::::::::::::::::
         :: total free energy        -169.524522705974 Eh   ::
         ::.................................................::
         :: total energy             -170.286996400471 Eh   ::
         :: zero point energy           0.845475989525 Eh   ::
         :: G(RRHO) w/o ZPVE           -0.083002295028 Eh   ::
         :: G(RRHO) contrib.            0.762473694497 Eh   ::
         :::::::::::::::::::::::::::::::::::::::::::::::::::::

           -------------------------------------------------
          | TOTAL ENERGY             -170.286996400471 Eh   |
          | TOTAL ENTHALPY           -169.386394095334 Eh   |
          | TOTAL FREE ENERGY        -169.524522705974 Eh   |
          | GRADIENT NORM               0.000065141554 Eh/α |
          | HOMO-LUMO GAP               2.744840702666 eV   |
           -------------------------------------------------

 * finished run on 2025/08/30 at 12:12:42.308
