   * xtb version 6.7.1 (edcfbbe) compiled by 'albert@albert-system' on 2024-07-22

   ID    Z sym.   atoms
    1    6 C      1-23, 25-38, 40-45, 47-57, 59-68
    2    7 N      24, 39, 46, 58
    3    1 H      69-110

          program call               : xtb data2507/toluene/CzppT/CzppT_toluene_S0_crest.xyz --gfn 2 --gbsa toluene --ohess vtight --parallel 40 --molden --ceasefiles --namespace data2507/toluene/CzppT/CzppT_toluene_S0_finalOpt
      * Solvation model:               GBSA
        Solvent                        toluene
        Solvent mass                       9.2140E+01 g/mol
          :  Hamiltonian                  GFN2-xTB          :
 * total energy  :  -170.2847080 Eh     change       -0.1375184E-08 Eh
 * total energy  :  -170.2848020 Eh     change       -0.9401093E-04 Eh
 * total energy  :  -170.2849439 Eh     change       -0.1418917E-03 Eh
 * total energy  :  -170.2849987 Eh     change       -0.5489217E-04 Eh
 * total energy  :  -170.2851033 Eh     change       -0.1045787E-03 Eh
 * total energy  :  -170.2851541 Eh     change       -0.5077490E-04 Eh
 * total energy  :  -170.2851737 Eh     change       -0.1959050E-04 Eh
 * total energy  :  -170.2852053 Eh     change       -0.3163937E-04 Eh
 * total energy  :  -170.2852179 Eh     change       -0.1261129E-04 Eh
 * total energy  :  -170.2852427 Eh     change       -0.2475024E-04 Eh
 * total energy  :  -170.2868980 Eh     change       -0.1528304E-05 Eh
 * total energy  :  -170.2868995 Eh     change       -0.1551927E-05 Eh
 * total energy  :  -170.2869010 Eh     change       -0.1503970E-05 Eh
 * total energy  :  -170.2869025 Eh     change       -0.1449996E-05 Eh
 * total energy  :  -170.2869039 Eh     change       -0.1407322E-05 Eh
 * total energy  :  -170.2869053 Eh     change       -0.1387846E-05 Eh
 * total energy  :  -170.2869066 Eh     change       -0.1392181E-05 Eh
 * total energy  :  -170.2869081 Eh     change       -0.1406421E-05 Eh
 * total energy  :  -170.2869081 Eh     change       -0.6599521E-08 Eh
   *** GEOMETRY OPTIMIZATION CONVERGED AFTER 185 ITERATIONS ***

 final structure:
================
110
 xtb: 6.7.1 (edcfbbe)
C            2.81703310455160       -3.99902350924017       -0.01683405227943
C            1.94647423130344       -3.68989051300955       -1.04873525308300
C            1.25344228549638       -2.49321515812784       -1.03831368844277
C            1.42767877366666       -1.58643802598279        0.00227846296199
C            0.69330115419030       -0.30264336482849        0.01157555422017
C           -0.70340088208180       -0.29672295954294        0.00683371911128
C           -1.44832056525668       -1.57432187246616       -0.01311788065287
C           -2.32659401326017       -1.86290201017949       -1.05295486542750
C           -3.02298634975603       -3.05754691643854       -1.07076659486786
C           -2.85729032974008       -3.97524991388276       -0.04644166253899
C           -1.98590283619449       -3.69495454598237        0.99297488067972
C           -1.28319590187296       -2.50398554357868        1.00859075544634
C           -1.39851488956451        0.91697158504717        0.01788750109553
C           -2.87435215304611        0.91546542172440       -0.00000440973939
C           -3.57306666988619        1.55486436374631       -1.01954431851169
C           -4.95232948147169        1.50421384428614       -1.06549092985782
C           -5.67096338220499        0.81352596494409       -0.09261069100628
C           -7.13549421675074        0.70695425769424       -0.17119974782071
C           -7.94475548231813        1.81001537494152       -0.41352187120324
C           -9.33087228853149        1.70474841870192       -0.48250407836848
C           -9.96590358888545        0.48812962930730       -0.32474229618235
C           -9.18740846650892       -0.64047701267024       -0.09755845447608
C           -7.77986305701788       -0.52272674931111       -0.01858599604498
N           -7.23989800477172       -1.76776980719372        0.18269033507272
C           -8.24744732787695       -2.69577963218867        0.23739233047282
C           -8.17544236715594       -4.06854809339264        0.42269322279979
C           -9.36193717586116       -4.77643367702918        0.44485401590335
C          -10.59110660237412       -4.13736468331116        0.28758433569064
C          -10.66769512689017       -2.77088994239993        0.10189317488732
C           -9.48884173716313       -2.03572551046494        0.07558625160246
C           -4.97016897794995        0.20726192351242        0.94873800513364
C           -3.59175351817719        0.25609138491054        0.99348769917570
C           -0.69263194602898        2.12064356119922        0.03554358996586
C           -1.40554401176872        3.41380559270200        0.02973611177766
C           -2.33424698051680        3.73072125117164        1.01994903117998
C           -2.96913002800439        4.95753716220121        0.96629426118884
C           -2.66319642818405        5.82620134970008       -0.07129714132096
C           -1.72507805380091        5.41833082264463       -1.00536266358655
N           -1.11120465315441        4.24902232105878       -0.96255402004783
C            0.70286899554653        2.11468229570778        0.04307412099113
C            1.42643917510330        3.40138813922567        0.08274861537250
C            2.35805005813187        3.73702817751637       -0.89855813835312
C            3.00229468953499        4.95710729065997       -0.81258878931354
C            2.70234311000316        5.80071089364469        0.24716368499374
C            1.76085086339074        5.37562764012242        1.17006490457360
N            1.13831058844221        4.21242897725198        1.09672094767190
C            1.39857487396003        0.90505187072710        0.02956179830343
C            2.87440415197375        0.89124710847345        0.04233763509022
C            3.58265471136453        1.49901961487993        1.07452968625891
C            4.96187509654641        1.43980184422270        1.11050517398394
C            5.67104560555850        0.77232161681447        0.11465428082334
C            7.13581388192385        0.66044740009153        0.17944798105822
C            7.94809746458466        1.75503387043867        0.44913941137192
C            9.33451825843700        1.64677892665221        0.50510033985677
C            9.96713483533883        0.43506797219545        0.30557132425843
C            9.18587629147523       -0.68548005971412        0.04987703775221
C            7.77786911823974       -0.56443081262642       -0.01579313122358
N            7.23559698600809       -1.80260189658166       -0.25077127429034
C            8.24202463463833       -2.72918754367133       -0.33979785949055
C            8.16753214084940       -4.09610789001226       -0.56344940781732
C            9.35319241896936       -4.80402819288233       -0.61309629564249
C           10.58393680072285       -4.17063949728152       -0.44558139449596
C           10.66304264376052       -2.80995121781858       -0.22226379350814
C            9.48502803958347       -2.07495954341192       -0.16735273456435
C            4.96053893995627        0.19632430317750       -0.93724724158640
C            3.58213451137410        0.25344905088433       -0.97193389265576
C            2.30510336544434       -1.90396457137221        1.03440580705440
C            2.99177013662835       -3.10429961825586        1.02613635224443
H            3.35578783283469       -4.93549022975926       -0.02387198889709
H            1.80575836478883       -4.38380472118304       -1.86481879154868
H            0.57919342014793       -2.25122233884737       -1.84710481550615
H           -2.45376011798131       -1.15017026125980       -1.85515307146858
H           -3.69843251119383       -3.27207351571653       -1.88689190343718
H           -3.40362382500314       -4.90725334940547       -0.05981717259232
H           -1.85236536204656       -4.40680552962545        1.79471068597941
H           -0.60822234738908       -2.28418117698929        1.82309062546435
H           -3.02482961899694        2.07465188035778       -1.79284991084319
H           -5.48158413605701        1.98286385821256       -1.87670514469554
H           -7.48064504796425        2.77876630178872       -0.53147527535350
H           -9.91577536841624        2.59501138054295       -0.66273997400198
H          -11.04132185553599        0.41207392492166       -0.38116458170965
H           -6.25541510766111       -1.96793219122445        0.23353995513682
H           -7.22349843760894       -4.56416330060706        0.54489580180732
H           -9.33887159225303       -5.84725973916547        0.58697562556661
H          -11.49678073984877       -4.72579551605078        0.31158073416945
H          -11.62265602241595       -2.28150856772936       -0.01957603074982
H           -5.51409011992646       -0.28802451590280        1.74086863044330
H           -3.06226889425638       -0.21580090826801        1.80828735081442
H           -2.53697938960021        3.03149861502457        1.81602194889507
H           -3.69048272386855        5.23456709924251        1.72179299225286
H           -3.13646879910949        6.79244526433840       -0.15221187272394
H           -1.44440795581032        6.05489255654930       -1.83591934070896
H            2.55662085598029        3.05727279417674       -1.71231255629860
H            3.72634504301078        5.24818337326847       -1.56019359999745
H            3.18272968034674        6.76097718055106        0.35337672772064
H            1.48483299542756        5.99262058100440        2.01682518094463
H            3.04189554688416        2.00087969186963        1.86477251316105
H            5.49872698710958        1.89381828524494        1.93083018425256
H            7.48584206849464        2.72013094828481        0.59980984406219
H            9.92156979894648        2.53068425177384        0.70817293140927
H           11.04282205455689        0.35631446845757        0.35218789332696
H            6.25066130310176       -2.00093689657089       -0.30012236415795
H            7.21435910060014       -4.58740309473284       -0.69331758766904
H            9.32817092015338       -5.87042236741427       -0.78500513786823
H           11.48886270423162       -4.75892260277593       -0.49156378952811
H           11.61923929972830       -2.32501404287840       -0.09297614656685
H            5.49671889776420       -0.28051017664835       -1.74575752252909
H            3.04487062511256       -0.19412721675264       -1.79533659859629
H            2.43937789272549       -1.20913945188466        1.85099725062201
H            3.66669055478248       -3.34120448270163        1.83644759441846

          :  Hamiltonian                  GFN2-xTB          :
         :: gradient norm              0.000066347286 Eh/a0 ::
         :: HOMO-LUMO gap              2.744800984853 eV    ::
         :: SCC energy              -173.527522847242 Eh    ::
         :: -> dispersion             -0.172941661067 Eh    ::
         :: -> Gsolv                  -0.068756041364 Eh    ::
         :: repulsion energy           3.240614785384 Eh    ::

    * Orbital Energies and Occupations

         #    Occupation            Energy/Eh            Energy/eV
      -------------------------------------------------------------
         1        2.0000           -0.6758248             -18.3901
       ...           ...                  ...                  ...
       147        2.0000           -0.4056499             -11.0383
       148        2.0000           -0.4028138             -10.9611
       149        2.0000           -0.4016163             -10.9285
       150        2.0000           -0.3993222             -10.8661
       151        2.0000           -0.3920205             -10.6674
       152        2.0000           -0.3865131             -10.5176
       153        2.0000           -0.3843887             -10.4597
       154        2.0000           -0.3772088             -10.2644
       155        2.0000           -0.3770426             -10.2599
       156        2.0000           -0.3708298             -10.0908
       157        2.0000           -0.3701844             -10.0732
       158        2.0000           -0.3635049              -9.8915
       159        2.0000           -0.3629121              -9.8753 (HOMO)
       160                         -0.2620426              -7.1305 (LUMO)
       161                         -0.2606244              -7.0920
       162                         -0.2503640              -6.8128
       163                         -0.2498425              -6.7986
       164                         -0.2458194              -6.6891
       165                         -0.2426871              -6.6039
       166                         -0.2334125              -6.3515
       167                         -0.2331384              -6.3440
       168                         -0.2326911              -6.3318
       169                         -0.2299466              -6.2572
       170                         -0.2278767              -6.2008
       ...                                ...                  ...
       314                          0.7445883              20.2613
      -------------------------------------------------------------
                  HL-Gap            0.1008696 Eh            2.7448 eV

     #   Z          covCN         q      C6AA      α(0)
     1   6 C        2.920    -0.033    28.819     8.803
     2   6 C        2.919    -0.030    28.754     8.793
     3   6 C        2.925    -0.032    28.789     8.799
     4   6 C        2.977     0.016    27.646     8.625
     5   6 C        2.982     0.001    28.009     8.681
     6   6 C        2.982     0.001    28.009     8.681
     7   6 C        2.977     0.016    27.645     8.625
     8   6 C        2.924    -0.033    28.811     8.802
     9   6 C        2.919    -0.032    28.805     8.801
    10   6 C        2.920    -0.033    28.819     8.803
    11   6 C        2.919    -0.030    28.753     8.793
    12   6 C        2.925    -0.032    28.788     8.799
    13   6 C        2.982    -0.001    28.047     8.687
    14   6 C        2.978     0.011    27.771     8.644
    15   6 C        2.923    -0.033    28.821     8.804
    16   6 C        2.923    -0.035    28.883     8.813
    17   6 C        2.976     0.008    27.840     8.655
    18   6 C        2.968    -0.016    28.398     8.741
    19   6 C        2.927    -0.040    28.991     8.830
    20   6 C        2.918    -0.044    29.090     8.845
    21   6 C        2.912    -0.037    28.911     8.817
    22   6 C        3.070    -0.018    28.391     8.737
    23   6 C        3.076     0.050    26.807     8.489
    24   7 N        2.755    -0.122    23.649     7.223
    25   6 C        3.073     0.054    26.708     8.473
    26   6 C        2.909    -0.056    29.392     8.890
    27   6 C        2.924    -0.035    28.859     8.810
    28   6 C        2.920    -0.044    29.087     8.844
    29   6 C        2.912    -0.035    28.863     8.810
    30   6 C        3.071    -0.018    28.387     8.736
    31   6 C        2.924    -0.041    29.010     8.833
    32   6 C        2.923    -0.034    28.845     8.807
    33   6 C        2.986     0.001    28.008     8.681
    34   6 C        2.966     0.114    25.492     8.282
    35   6 C        2.918    -0.041    29.026     8.835
    36   6 C        2.928    -0.011    28.301     8.724
    37   6 C        2.914    -0.044    29.086     8.844
    38   6 C        2.907     0.062    26.608     8.458
    39   7 N        1.843    -0.259    27.580     7.783
    40   6 C        2.986     0.001    28.008     8.681
    41   6 C        2.966     0.114    25.492     8.282
    42   6 C        2.918    -0.041    29.025     8.835
    43   6 C        2.928    -0.011    28.301     8.724
    44   6 C        2.914    -0.044    29.086     8.844
    45   6 C        2.907     0.062    26.608     8.458
    46   7 N        1.843    -0.259    27.580     7.783
    47   6 C        2.982    -0.001    28.047     8.687
    48   6 C        2.978     0.011    27.771     8.644
    49   6 C        2.923    -0.033    28.820     8.804
    50   6 C        2.923    -0.035    28.884     8.813
    51   6 C        2.975     0.008    27.840     8.655
    52   6 C        2.968    -0.016    28.398     8.741
    53   6 C        2.927    -0.040    28.991     8.830
    54   6 C        2.918    -0.044    29.090     8.845
    55   6 C        2.912    -0.037    28.911     8.817
    56   6 C        3.070    -0.018    28.391     8.737
    57   6 C        3.075     0.050    26.807     8.489
    58   7 N        2.755    -0.122    23.649     7.223
    59   6 C        3.073     0.054    26.708     8.473
    60   6 C        2.909    -0.056    29.392     8.890
    61   6 C        2.924    -0.034    28.859     8.810
    62   6 C        2.920    -0.044    29.086     8.844
    63   6 C        2.912    -0.035    28.863     8.810
    64   6 C        3.071    -0.018    28.387     8.736
    65   6 C        2.924    -0.041    29.010     8.833
    66   6 C        2.923    -0.034    28.845     8.807
    67   6 C        2.925    -0.033    28.811     8.802
    68   6 C        2.919    -0.032    28.803     8.801
    69   1 H        0.926     0.033     2.543     2.494
    70   1 H        0.926     0.034     2.534     2.489
    71   1 H        0.926     0.030     2.587     2.515
    72   1 H        0.926     0.028     2.611     2.527
    73   1 H        0.926     0.032     2.558     2.501
    74   1 H        0.926     0.033     2.544     2.494
    75   1 H        0.926     0.034     2.533     2.489
    76   1 H        0.926     0.030     2.587     2.515
    77   1 H        0.926     0.026     2.639     2.541
    78   1 H        0.926     0.034     2.526     2.485
    79   1 H        0.926     0.030     2.581     2.512
    80   1 H        0.926     0.029     2.607     2.525
    81   1 H        0.926     0.031     2.567     2.506
    82   1 H        0.860     0.164     1.309     1.793
    83   1 H        0.926     0.029     2.605     2.524
    84   1 H        0.926     0.031     2.579     2.511
    85   1 H        0.926     0.028     2.620     2.531
    86   1 H        0.926     0.030     2.581     2.513
    87   1 H        0.926     0.033     2.541     2.493
    88   1 H        0.926     0.032     2.558     2.501
    89   1 H        0.926     0.038     2.477     2.461
    90   1 H        0.926     0.042     2.421     2.433
    91   1 H        0.926     0.040     2.443     2.444
    92   1 H        0.925     0.032     2.565     2.504
    93   1 H        0.926     0.038     2.477     2.461
    94   1 H        0.926     0.042     2.421     2.433
    95   1 H        0.926     0.040     2.444     2.444
    96   1 H        0.925     0.031     2.565     2.505
    97   1 H        0.926     0.026     2.640     2.541
    98   1 H        0.926     0.034     2.525     2.485
    99   1 H        0.926     0.030     2.581     2.512
   100   1 H        0.926     0.029     2.607     2.525
   101   1 H        0.926     0.031     2.567     2.506
   102   1 H        0.860     0.164     1.309     1.792
   103   1 H        0.926     0.029     2.605     2.524
   104   1 H        0.926     0.031     2.578     2.511
   105   1 H        0.926     0.028     2.620     2.531
   106   1 H        0.926     0.030     2.581     2.512
   107   1 H        0.926     0.033     2.541     2.493
   108   1 H        0.926     0.032     2.558     2.501
   109   1 H        0.926     0.028     2.610     2.527
   110   1 H        0.926     0.032     2.557     2.501

molecular dipole:
                 x           y           z       tot (Debye)
 q only:       -0.000      -0.657      -0.005
   full:        0.002      -0.331       0.001       0.842

 projected vibrational frequencies (cm⁻¹)
eigval :       -0.00    -0.00    -0.00     0.00     0.00     0.00
eigval :        7.48     9.32    13.19    15.95    19.88    23.04
eigval :       25.13    28.86    38.81    42.59    45.08    50.31
eigval :       52.04    53.48    55.17    57.38    69.30    69.43
eigval :       72.56    87.15    91.05    98.35   108.49   110.73
eigval :      112.92   115.91   119.11   129.07   146.14   164.30
eigval :      172.98   184.40   193.45   193.72   195.68   217.99
eigval :      221.30   227.64   231.57   244.97   246.25   255.88
eigval :      258.14   269.88   278.72   279.81   305.66   311.45
eigval :      330.72   336.45   342.16   356.84   367.36   372.48
eigval :      374.91   375.35   376.45   378.54   380.99   409.79
eigval :      413.25   421.64   425.26   446.17   461.91   463.38
eigval :      472.07   473.12   481.54   489.05   491.25   514.80
eigval :      518.82   522.70   523.58   532.19   532.88   536.49
eigval :      544.96   546.20   552.07   555.69   561.44   578.88
eigval :      584.81   586.44   589.75   590.01   594.11   594.86
eigval :      600.90   603.05   611.05   614.46   626.67   640.88
eigval :      645.15   648.40   651.70   656.04   674.19   680.35
eigval :      685.10   686.42   692.14   696.65   700.26   707.07
eigval :      709.73   710.99   713.95   727.59   731.12   750.09
eigval :      762.25   769.37   772.26   772.97   784.39   784.90
eigval :      789.60   796.76   797.87   821.56   830.05   833.48
eigval :      846.21   856.19   856.40   860.29   862.31   865.10
eigval :      866.47   875.09   880.76   882.16   883.61   885.33
eigval :      887.42   888.31   889.49   889.91   890.08   900.19
eigval :      900.58   906.93   907.93   914.11   915.07   915.13
eigval :      915.64   920.73   921.24   925.59   927.78   932.00
eigval :      932.23   934.75   935.47   936.17   937.16   937.79
eigval :      938.31   964.01   973.47   988.54   992.73  1003.14
eigval :     1005.55  1028.61  1033.15  1051.56  1066.58  1066.69
eigval :     1078.50  1084.53  1088.30  1094.02  1095.74  1100.22
eigval :     1100.40  1119.43  1119.59  1119.85  1120.84  1122.31
eigval :     1124.01  1137.61  1138.55  1147.60  1148.00  1162.36
eigval :     1162.99  1166.15  1166.16  1175.93  1178.22  1181.32
eigval :     1181.66  1182.21  1182.28  1193.35  1193.72  1198.44
eigval :     1199.36  1202.24  1202.92  1230.65  1230.76  1242.37
eigval :     1245.27  1253.76  1257.33  1270.73  1270.88  1271.19
eigval :     1272.45  1279.14  1279.70  1281.85  1282.83  1284.87
eigval :     1287.96  1290.48  1309.75  1310.52  1311.74  1313.14
eigval :     1314.32  1316.32  1316.67  1322.69  1326.99  1353.11
eigval :     1353.24  1370.77  1371.44  1373.50  1388.57  1390.55
eigval :     1399.95  1406.78  1409.55  1410.13  1414.43  1422.88
eigval :     1428.51  1428.57  1430.92  1431.14  1448.98  1456.32
eigval :     1480.04  1481.78  1487.29  1487.43  1488.27  1488.45
eigval :     1509.08  1511.00  1535.96  1538.11  1555.47  1558.98
eigval :     1559.62  1560.47  1575.06  1575.10  1580.90  1581.37
eigval :     1581.51  1582.36  1584.68  1584.92  1596.40  1596.45
eigval :     1599.57  1599.76  1600.13  1600.45  1614.08  1614.20
eigval :     3040.39  3041.01  3066.78  3067.05  3068.36  3068.52
eigval :     3069.33  3069.67  3069.89  3069.96  3070.12  3070.25
eigval :     3070.57  3070.63  3070.81  3071.11  3074.98  3075.16
eigval :     3077.67  3078.19  3079.09  3079.18  3081.47  3081.62
eigval :     3081.82  3082.13  3082.62  3083.05  3085.16  3085.49
eigval :     3088.99  3089.07  3089.76  3090.03  3091.48  3091.60
eigval :     3092.88  3093.06  3097.77  3098.18  3478.67  3478.90

   temp. (K)  partition function   enthalpy   heat capacity  entropy
                                   cal/mol     cal/K/mol   cal/K/mol   J/K/mol
 298.15  VIB  0.168E+27            32176.003    200.302    202.990
         ROT  0.235E+09              888.752      2.981     41.287
         INT  0.395E+35            33064.756    203.283    244.278
         TR   0.247E+29             1481.254      4.968     46.135
         TOT                       34546.0096   208.2512   290.4131  1215.0884

       T/K    H(0)-H(T)+PV         H(T)/Eh          T*S/Eh         G(T)/Eh
   ------------------------------------------------------------------------
    298.15    0.550526E-01    0.900709E+00    0.137985E+00    0.762725E+00
   ------------------------------------------------------------------------

         :::::::::::::::::::::::::::::::::::::::::::::::::::::
         ::                  THERMODYNAMIC                  ::
         :::::::::::::::::::::::::::::::::::::::::::::::::::::
         :: total free energy        -169.524183460603 Eh   ::
         ::.................................................::
         :: total energy             -170.286908060147 Eh   ::
         :: zero point energy           0.845656661861 Eh   ::
         :: G(RRHO) w/o ZPVE           -0.082932062317 Eh   ::
         :: G(RRHO) contrib.            0.762724599544 Eh   ::
         :::::::::::::::::::::::::::::::::::::::::::::::::::::

           -------------------------------------------------
          | TOTAL ENERGY             -170.286908060147 Eh   |
          | TOTAL ENTHALPY           -169.386198827734 Eh   |
          | TOTAL FREE ENERGY        -169.524183460603 Eh   |
          | GRADIENT NORM               0.000066349079 Eh/α |
          | HOMO-LUMO GAP               2.744801176710 eV   |
           -------------------------------------------------

 * finished run on 2025/08/30 at 12:21:30.635
