   * xtb version 6.7.1 (edcfbbe) compiled by 'albert@albert-system' on 2024-07-22

   ID    Z sym.   atoms
    1    6 C      1-23, 25-38, 40-45, 47-57, 59-68
    2    7 N      24, 39, 46, 58
    3    1 H      69-110

          program call               : xtb data2507/toluene/CzppT/CzppT_toluene_T1_crest.xyz --gfn 2 --uhf 2 --gbsa toluene --ohess vtight --parallel 40 --molden --ceasefiles --namespace data2507/toluene/CzppT/CzppT_toluene_T1_finalOpt
      * Solvation model:               GBSA
        Solvent                        toluene
        Solvent mass                       9.2140E+01 g/mol
          :  Hamiltonian                  GFN2-xTB          :
 * total energy  :  -170.1875435 Eh     change       -0.1904510E-08 Eh
 * total energy  :  -170.1876646 Eh     change       -0.1210452E-03 Eh
 * total energy  :  -170.1877789 Eh     change       -0.1143620E-03 Eh
 * total energy  :  -170.1878362 Eh     change       -0.5731024E-04 Eh
 * total energy  :  -170.1879207 Eh     change       -0.8445219E-04 Eh
 * total energy  :  -170.1879876 Eh     change       -0.6687711E-04 Eh
 * total energy  :  -170.1880186 Eh     change       -0.3106602E-04 Eh
 * total energy  :  -170.1880441 Eh     change       -0.2551434E-04 Eh
 * total energy  :  -170.1880627 Eh     change       -0.1859034E-04 Eh
 * total energy  :  -170.1880896 Eh     change       -0.2691738E-04 Eh
 * total energy  :  -170.1900961 Eh     change       -0.1211925E-05 Eh
 * total energy  :  -170.1900973 Eh     change       -0.1178414E-05 Eh
 * total energy  :  -170.1900984 Eh     change       -0.1072003E-05 Eh
 * total energy  :  -170.1900997 Eh     change       -0.1286342E-05 Eh
 * total energy  :  -170.1901009 Eh     change       -0.1224112E-05 Eh
 * total energy  :  -170.1901022 Eh     change       -0.1283867E-05 Eh
 * total energy  :  -170.1901035 Eh     change       -0.1382007E-05 Eh
 * total energy  :  -170.1901051 Eh     change       -0.1526334E-05 Eh
 * total energy  :  -170.1901051 Eh     change       -0.5611611E-08 Eh
   *** GEOMETRY OPTIMIZATION CONVERGED AFTER 185 ITERATIONS ***

 final structure:
================
110
 xtb: 6.7.1 (edcfbbe)
C            2.77095389890373       -4.04093432198488        0.12158219625928
C            1.88879255154495       -3.77683932380455       -0.91374436283776
C            1.21638930138336       -2.57007439011091       -0.96440079527696
C            1.42303418023905       -1.60242389481070        0.01637554979177
C            0.69826565794791       -0.31611872467378       -0.01444366347155
C           -0.68454137050769       -0.31560785627961        0.02403075724997
C           -1.42496113615760       -1.59585802269831        0.00070464228610
C           -2.31219877000705       -1.87115490804812       -1.03637702220572
C           -3.00033363768800       -3.06989990604133       -1.07238398973600
C           -2.82031467044130       -4.00686199260448       -0.06787202838202
C           -1.94338426549392       -3.73969019011674        0.97061994199044
C           -1.24853882205247       -2.54471351701659        1.00395077038678
C           -1.40700545907482        0.90363908745628        0.05643842784244
C           -2.86313281161582        0.89854680493229        0.07429212000809
C           -3.60269773382090        1.68917914560864       -0.81651071703616
C           -4.97664203852931        1.63626616074668       -0.84074950051369
C           -5.68194401233356        0.79129342770097        0.02363243416054
C           -7.13731193051088        0.68662098603871       -0.04766745749166
C           -7.95391160343502        1.80561822894480       -0.21427742713217
C           -9.33747642121131        1.70649713585977       -0.27453742662872
C           -9.97680565152367        0.48106505339174       -0.18875827598369
C           -9.19772122921706       -0.65987965378089       -0.04463691567301
C           -7.78901690935256       -0.55084027273012        0.02878593016022
N           -7.25258444751755       -1.80830578890950        0.12853117947379
C           -8.26022884978054       -2.73672560148296        0.12655602989353
C           -8.18804409449927       -4.12000300086294        0.20734420296911
C           -9.37593970285941       -4.82596160710590        0.19049991303919
C          -10.60517326992662       -4.17450104439820        0.09598986396119
C          -10.68175893097798       -2.79693033087527        0.01391902005826
C           -9.50222359016247       -2.06387721127221        0.02988551074874
C           -4.94701120590799        0.03838308098571        0.94749899408754
C           -3.57375885112400        0.08928601994048        0.97170644345504
C           -0.68918540694172        2.11720178155118        0.05973423234152
C           -1.41117847782464        3.40503902368526        0.09676106705309
C           -2.25435028209526        3.71657880563328        1.16373836916887
C           -2.89659806170166        4.93957548564167        1.16889382967725
C           -2.68654507833316        5.81235429417028        0.10975136461062
C           -1.83624311665798        5.40811988767642       -0.90531679450602
N           -1.21648782523887        4.24104719818985       -0.91989755039479
C            0.69506672871102        2.12633087347691        0.04588279235324
C            1.38095368158508        3.42626227219998       -0.00850070670755
C            2.27688929499994        3.72004024677763       -1.04035624112660
C            2.86069272756523        4.97003376391639       -1.08169557068554
C            2.54329893132985        5.89380545454363       -0.09320354419067
C            1.64653258535190        5.50845324211395        0.88882156038741
N            1.08071507398127        4.31601348475257        0.93795180107294
C            1.42928544492286        0.90833144187021        0.00304289647940
C            2.86259828160796        0.90506737701873       -0.01097587830084
C            3.62576109602735        1.77891775053566        0.80923454248507
C            4.98614305769381        1.72065315688536        0.84685455415089
C            5.71577408698387        0.78238536650759        0.06746737616900
C            7.13693009028850        0.66742175864565        0.16387398600295
C            7.96729309688022        1.77747808264953        0.46452948670824
C            9.34061197770978        1.68449324615178        0.49968078723235
C           10.00260384520432        0.47826984975385        0.26841461568846
C            9.23007175079055       -0.65060205571345        0.01303210868213
C            7.82150367777116       -0.55566446151709       -0.03360044365007
N            7.30410352928061       -1.80935847352412       -0.21166355569003
C            8.31974306944224       -2.72266567590039       -0.30174224355080
C            8.26130990978246       -4.09702304110572       -0.48412171664752
C            9.45807575905787       -4.78519009155864       -0.54620659899559
C           10.68106785522813       -4.12226816283852       -0.43030299820616
C           10.74383018037038       -2.75377894289440       -0.24483429202335
C            9.55530611127521       -2.03761143237060       -0.17999329302314
C            4.95570960270103       -0.03244398464354       -0.81453087142044
C            3.59594301151216        0.02072055600756       -0.84658117137008
C            2.31521059512476       -1.87637208114490        1.05153599773895
C            2.97893268419071       -3.08772451618690        1.10544454386714
H            3.29130806418592       -4.98681880524015        0.16317309716756
H            1.72310006341350       -4.51491116291069       -1.68538257390831
H            0.53531228421669       -2.36446804017187       -1.77753668063206
H           -2.45115793208593       -1.14252296887458       -1.82269314302983
H           -3.68019835545191       -3.27305022871844       -1.88799821037667
H           -3.35974482619927       -4.94261575554353       -0.09530813270642
H           -1.79973312761075       -4.46528107286480        1.75834532585867
H           -0.57030161720277       -2.33557696696079        1.81878190136862
H           -3.07840369165102        2.31214354833676       -1.52675293081335
H           -5.52116342485441        2.22273498797570       -1.56664293476435
H           -7.49065742392247        2.77986818095124       -0.27065896180800
H           -9.92327003958771        2.60700161522900       -0.38874734476549
H          -11.05259805298024        0.41173316590758       -0.23968602966346
H           -6.26738753454391       -2.01365231554408        0.14312877284048
H           -7.23571115689487       -4.62404630336425        0.28072579843164
H           -9.35389436919418       -5.90422530233911        0.25190108161634
H          -11.51184854558175       -4.76155397434834        0.08649553798991
H          -11.63714361646091       -2.29940894667432       -0.06000838116732
H           -5.46829867810914       -0.55960864158209        1.68206604051288
H           -3.03196392368262       -0.48011051758366        1.71194364559771
H           -2.38340397797624        3.01254497905954        1.97136915951381
H           -3.55094542364867        5.21203710945567        1.98478037792035
H           -3.16854783047711        6.77699596268638        0.07322868796679
H           -1.63669426311812        6.04419054427557       -1.75964785409028
H            2.48400975751428        2.98081281341436       -1.79891915824074
H            3.55049656516476        5.22699404111041       -1.87306489104420
H            2.97823321460209        6.88110332690280       -0.08660746084884
H            1.36208209103700        6.18367984440735        1.68742480849295
H            3.10283815427389        2.45095879385014        1.47407692564839
H            5.52277484410840        2.35137898186094        1.53980081376747
H            7.50074899375920        2.73793140868129        0.62048661750787
H            9.92178328847099        2.57176545175248        0.70639898196907
H           11.07857728762512        0.41887200291242        0.30577862711769
H            6.32188115860604       -2.03311547025309       -0.20591588068343
H            7.31366984795261       -4.60700133687900       -0.57381446400100
H            9.44961447017051       -5.85576919313206       -0.68768979201596
H           11.59501561147861       -4.69528970954784       -0.48518876789265
H           11.69482992327590       -2.25108821858874       -0.15404314292559
H            5.47409886952775       -0.64510990843659       -1.53851863249173
H            3.05725831198907       -0.57002616661142       -1.57191316330245
H            2.47284960966674       -1.13712618363709        1.82428739974862
H            3.66120952536212       -3.28873472152513        1.91949443465668

          :  Hamiltonian                  GFN2-xTB          :
         :: gradient norm              0.000060907638 Eh/a0 ::
         :: HOMO-LUMO gap              0.423109192037 eV    ::
         :: SCC energy              -173.405195995381 Eh    ::
         :: -> dispersion             -0.174052320994 Eh    ::
         :: -> Gsolv                  -0.069033390143 Eh    ::
         :: repulsion energy           3.215090917055 Eh    ::

    * Orbital Energies and Occupations

         #    Occupation            Energy/Eh            Energy/eV
      -------------------------------------------------------------
         1        2.0000           -0.6839614             -18.6115
       ...           ...                  ...                  ...
       148        2.0000           -0.4003032             -10.8928
       149        2.0000           -0.3977078             -10.8222
       150        2.0000           -0.3957629             -10.7693
       151        2.0000           -0.3895172             -10.5993
       152        2.0000           -0.3824519             -10.4070
       153        2.0000           -0.3816291             -10.3847
       154        2.0000           -0.3801192             -10.3436
       155        2.0000           -0.3773117             -10.2672
       156        1.9991           -0.3682175             -10.0197
       157        1.9957           -0.3667625              -9.9801
       158        1.9681           -0.3648410              -9.9278
       159        1.0372           -0.3585070              -9.7555
       160        0.9997           -0.2714140              -7.3856 (HOMO)
       161        0.0003           -0.2558652              -6.9624 (LUMO)
       162        0.0001           -0.2545334              -6.9262
       163        0.0000           -0.2486601              -6.7664
       164                         -0.2440002              -6.6396
       165                         -0.2429377              -6.6107
       166                         -0.2368420              -6.4448
       167                         -0.2320724              -6.3150
       168                         -0.2305361              -6.2732
       169                         -0.2276542              -6.1948
       170                         -0.2261159              -6.1529
       171                         -0.2236355              -6.0854
       ...                                ...                  ...
       314                          0.7415356              20.1782
      -------------------------------------------------------------
                  HL-Gap            0.0155488 Eh            0.4231 eV

     #   Z          covCN         q      C6AA      α(0)
     1   6 C        2.920    -0.034    28.845     8.807
     2   6 C        2.918    -0.031    28.762     8.795
     3   6 C        2.924    -0.032    28.809     8.802
     4   6 C        2.977     0.018    27.598     8.617
     5   6 C        2.977    -0.005    28.131     8.700
     6   6 C        2.977    -0.004    28.117     8.698
     7   6 C        2.977     0.017    27.631     8.622
     8   6 C        2.925    -0.032    28.809     8.802
     9   6 C        2.918    -0.033    28.828     8.805
    10   6 C        2.920    -0.034    28.853     8.809
    11   6 C        2.918    -0.031    28.769     8.796
    12   6 C        2.924    -0.032    28.808     8.802
    13   6 C        2.977    -0.011    28.294     8.725
    14   6 C        2.974     0.009    27.804     8.649
    15   6 C        2.921    -0.036    28.885     8.813
    16   6 C        2.921    -0.037    28.908     8.817
    17   6 C        2.974     0.003    27.955     8.673
    18   6 C        2.967    -0.011    28.292     8.725
    19   6 C        2.926    -0.040    29.001     8.832
    20   6 C        2.918    -0.041    29.010     8.832
    21   6 C        2.911    -0.036    28.884     8.813
    22   6 C        3.070    -0.017    28.363     8.733
    23   6 C        3.073     0.050    26.806     8.489
    24   7 N        2.757    -0.113    23.456     7.193
    25   6 C        3.072     0.054    26.709     8.474
    26   6 C        2.909    -0.053    29.326     8.880
    27   6 C        2.924    -0.034    28.839     8.807
    28   6 C        2.920    -0.041    29.014     8.833
    29   6 C        2.912    -0.033    28.830     8.805
    30   6 C        3.071    -0.016    28.335     8.728
    31   6 C        2.921    -0.042    29.054     8.839
    32   6 C        2.921    -0.036    28.895     8.815
    33   6 C        2.982    -0.001    28.039     8.686
    34   6 C        2.966     0.117    25.412     8.269
    35   6 C        2.918    -0.041    29.011     8.832
    36   6 C        2.928    -0.012    28.326     8.728
    37   6 C        2.914    -0.045    29.129     8.850
    38   6 C        2.906     0.063    26.596     8.456
    39   7 N        1.842    -0.262    27.662     7.795
    40   6 C        2.981    -0.005    28.146     8.702
    41   6 C        2.964     0.114    25.476     8.279
    42   6 C        2.918    -0.040    29.006     8.832
    43   6 C        2.927    -0.014    28.351     8.732
    44   6 C        2.914    -0.047    29.161     8.855
    45   6 C        2.904     0.063    26.589     8.455
    46   7 N        1.842    -0.264    27.720     7.803
    47   6 C        2.973    -0.011    28.277     8.722
    48   6 C        2.971     0.007    27.858     8.658
    49   6 C        2.914    -0.036    28.896     8.815
    50   6 C        2.915    -0.037    28.914     8.818
    51   6 C        2.970    -0.002    28.071     8.691
    52   6 C        2.963    -0.007    28.182     8.708
    53   6 C        2.922    -0.045    29.126     8.850
    54   6 C        2.914    -0.036    28.887     8.813
    55   6 C        2.910    -0.039    28.958     8.824
    56   6 C        3.070    -0.018    28.373     8.734
    57   6 C        3.067     0.049    26.835     8.494
    58   7 N        2.761    -0.097    23.141     7.145
    59   6 C        3.071     0.052    26.767     8.483
    60   6 C        2.908    -0.050    29.239     8.867
    61   6 C        2.923    -0.035    28.859     8.810
    62   6 C        2.920    -0.037    28.918     8.819
    63   6 C        2.911    -0.033    28.818     8.803
    64   6 C        3.072    -0.014    28.284     8.720
    65   6 C        2.915    -0.045    29.117     8.848
    66   6 C        2.915    -0.036    28.898     8.815
    67   6 C        2.925    -0.031    28.782     8.798
    68   6 C        2.918    -0.033    28.823     8.804
    69   1 H        0.926     0.033     2.551     2.498
    70   1 H        0.926     0.032     2.555     2.499
    71   1 H        0.926     0.028     2.621     2.532
    72   1 H        0.926     0.026     2.649     2.545
    73   1 H        0.926     0.030     2.586     2.515
    74   1 H        0.926     0.032     2.564     2.504
    75   1 H        0.926     0.032     2.560     2.502
    76   1 H        0.926     0.027     2.632     2.537
    77   1 H        0.926     0.024     2.677     2.559
    78   1 H        0.926     0.031     2.569     2.506
    79   1 H        0.926     0.033     2.551     2.497
    80   1 H        0.926     0.031     2.566     2.505
    81   1 H        0.926     0.035     2.521     2.483
    82   1 H        0.860     0.168     1.283     1.775
    83   1 H        0.926     0.032     2.558     2.501
    84   1 H        0.926     0.034     2.534     2.489
    85   1 H        0.926     0.031     2.566     2.505
    86   1 H        0.926     0.034     2.533     2.489
    87   1 H        0.926     0.030     2.581     2.512
    88   1 H        0.926     0.030     2.585     2.514
    89   1 H        0.926     0.035     2.519     2.482
    90   1 H        0.926     0.040     2.445     2.445
    91   1 H        0.926     0.038     2.471     2.458
    92   1 H        0.925     0.029     2.596     2.520
    93   1 H        0.926     0.034     2.525     2.485
    94   1 H        0.926     0.039     2.461     2.453
    95   1 H        0.926     0.037     2.491     2.468
    96   1 H        0.925     0.028     2.619     2.531
    97   1 H        0.926     0.022     2.706     2.573
    98   1 H        0.926     0.031     2.573     2.509
    99   1 H        0.926     0.033     2.540     2.492
   100   1 H        0.926     0.032     2.555     2.500
   101   1 H        0.926     0.035     2.517     2.481
   102   1 H        0.860     0.174     1.246     1.748
   103   1 H        0.926     0.035     2.510     2.477
   104   1 H        0.926     0.036     2.500     2.472
   105   1 H        0.926     0.035     2.522     2.483
   106   1 H        0.926     0.036     2.500     2.472
   107   1 H        0.926     0.030     2.593     2.518
   108   1 H        0.926     0.030     2.587     2.515
   109   1 H        0.926     0.027     2.633     2.538
   110   1 H        0.926     0.031     2.572     2.508

molecular dipole:
                 x           y           z       tot (Debye)
 q only:        0.552      -1.634      -0.020
   full:        0.547      -1.281      -0.012       3.541

 projected vibrational frequencies (cm⁻¹)
eigval :       -0.00    -0.00    -0.00     0.00     0.00     0.00
eigval :        6.24     6.30    14.21    16.95    21.01    21.90
eigval :       26.32    34.21    36.47    44.88    46.56    50.13
eigval :       51.49    52.68    53.61    58.24    70.70    74.51
eigval :       77.91    87.34    95.36   102.17   109.27   113.74
eigval :      115.90   117.33   129.01   139.40   149.11   168.19
eigval :      179.36   188.76   191.88   195.02   199.38   214.85
eigval :      216.22   226.45   234.20   247.85   252.05   255.41
eigval :      261.21   267.82   279.21   284.64   296.14   311.68
eigval :      317.14   333.63   335.00   350.74   358.30   370.03
eigval :      374.42   375.33   376.51   385.85   389.91   402.13
eigval :      408.67   416.37   421.44   443.49   453.35   458.19
eigval :      468.20   481.74   483.56   486.69   494.46   506.19
eigval :      513.06   513.56   515.85   524.39   528.26   532.09
eigval :      541.24   547.40   551.55   554.34   557.12   575.15
eigval :      579.52   582.19   583.95   584.92   588.35   589.57
eigval :      590.36   598.41   601.55   610.72   620.34   627.17
eigval :      634.23   638.54   642.87   647.88   667.21   671.52
eigval :      677.43   681.18   685.23   689.83   694.74   696.92
eigval :      703.38   704.56   711.30   715.88   721.83   742.07
eigval :      757.78   760.48   764.17   770.04   770.61   781.36
eigval :      782.31   787.93   790.46   813.25   820.55   823.95
eigval :      828.86   838.46   842.30   849.32   854.84   858.00
eigval :      861.43   863.65   863.98   864.16   868.61   876.86
eigval :      880.02   880.92   881.64   882.23   888.04   898.42
eigval :      899.27   901.53   903.82   905.28   910.98   911.56
eigval :      911.95   917.46   919.24   919.77   924.55   927.50
eigval :      928.13   929.11   931.14   931.63   932.42   935.40
eigval :      935.97   951.74   962.33   974.78   984.38   989.44
eigval :      994.58  1002.90  1022.66  1035.35  1058.69  1061.98
eigval :     1064.66  1081.95  1083.02  1085.49  1092.00  1093.93
eigval :     1098.32  1101.30  1112.65  1116.47  1117.96  1119.59
eigval :     1121.25  1130.14  1138.36  1140.25  1145.95  1148.26
eigval :     1159.16  1160.14  1162.79  1163.45  1171.38  1172.86
eigval :     1179.30  1180.06  1180.61  1181.73  1191.08  1195.08
eigval :     1196.30  1198.96  1206.93  1217.18  1224.94  1227.18
eigval :     1238.36  1244.10  1250.16  1258.15  1262.90  1263.67
eigval :     1271.17  1275.41  1280.14  1280.95  1281.85  1282.33
eigval :     1286.90  1289.57  1298.05  1302.58  1310.58  1311.64
eigval :     1312.35  1313.72  1315.96  1321.02  1321.70  1338.08
eigval :     1346.08  1350.76  1357.61  1366.84  1371.21  1375.18
eigval :     1386.55  1389.00  1394.83  1399.81  1402.85  1411.45
eigval :     1413.49  1417.70  1420.70  1424.73  1427.46  1430.19
eigval :     1432.15  1434.07  1451.76  1465.72  1471.09  1474.30
eigval :     1477.28  1477.45  1482.39  1489.30  1493.47  1505.93
eigval :     1508.54  1519.63  1532.02  1545.13  1548.80  1560.91
eigval :     1564.06  1568.89  1572.97  1573.59  1574.55  1577.87
eigval :     1581.27  1587.33  1587.49  1591.85  1596.05  1603.04
eigval :     3034.63  3036.89  3063.58  3064.02  3064.90  3066.24
eigval :     3066.69  3067.61  3067.79  3068.33  3071.77  3071.97
eigval :     3072.73  3073.32  3074.51  3074.67  3075.02  3075.32
eigval :     3077.61  3078.32  3078.53  3080.11  3082.94  3084.42
eigval :     3085.28  3086.40  3087.22  3087.47  3087.76  3088.81
eigval :     3089.55  3090.02  3091.14  3091.51  3092.14  3092.91
eigval :     3093.19  3094.01  3094.05  3100.93  3454.52  3470.66

   temp. (K)  partition function   enthalpy   heat capacity  entropy
                                   cal/mol     cal/K/mol   cal/K/mol   J/K/mol
 298.15  VIB  0.164E+27            32314.118    202.338    203.444
         ROT  0.238E+09              888.752      2.981     41.307
         INT  0.389E+35            33202.870    205.319    244.752
         TR   0.247E+29             1481.254      4.968     46.135
         TOT                       34684.1243   210.2873   290.8871  1217.0715

       T/K    H(0)-H(T)+PV         H(T)/Eh          T*S/Eh         G(T)/Eh
   ------------------------------------------------------------------------
    298.15    0.552727E-01    0.895915E+00    0.138210E+00    0.757705E+00
   ------------------------------------------------------------------------

         :::::::::::::::::::::::::::::::::::::::::::::::::::::
         ::                  THERMODYNAMIC                  ::
         :::::::::::::::::::::::::::::::::::::::::::::::::::::
         :: total free energy        -169.432400043548 Eh   ::
         ::.................................................::
         :: total energy             -170.190105077998 Eh   ::
         :: zero point energy           0.840642196874 Eh   ::
         :: G(RRHO) w/o ZPVE           -0.082937162423 Eh   ::
         :: G(RRHO) contrib.            0.757705034450 Eh   ::
         :::::::::::::::::::::::::::::::::::::::::::::::::::::

           -------------------------------------------------
          | TOTAL ENERGY             -170.190105077998 Eh   |
          | TOTAL ENTHALPY           -169.294190210805 Eh   |
          | TOTAL FREE ENERGY        -169.432400043548 Eh   |
          | GRADIENT NORM               0.000060772275 Eh/α |
          | HOMO-LUMO GAP               0.423104572603 eV   |
           -------------------------------------------------

 * finished run on 2025/08/30 at 12:35:27.052
