   * xtb version 6.7.1 (edcfbbe) compiled by 'albert@albert-system' on 2024-07-22

   ID    Z sym.   atoms
    1    6 C      1-23, 25-38, 40-45, 47-57, 59-68
    2    7 N      24, 39, 46, 58
    3    1 H      69-110

          program call               : xtb data2507/toluene/CzppT/CzppT_toluene_S0_finalOpt.xtbopt.xyz --gfn 2 --uhf 2 --gbsa toluene --ohess vtight --parallel 40 --molden --ceasefiles --namespace data2507/toluene/CzppT/CzppT_toluene_T1_preOpt
      * Solvation model:               GBSA
        Solvent                        toluene
        Solvent mass                       9.2140E+01 g/mol
          :  Hamiltonian                  GFN2-xTB          :
 * total energy  :  -170.1813702 Eh     change       -0.2123500E-08 Eh
 * total energy  :  -170.1841073 Eh     change       -0.2737161E-02 Eh
 * total energy  :  -170.1862290 Eh     change       -0.2121656E-02 Eh
 * total energy  :  -170.1871205 Eh     change       -0.8914741E-03 Eh
 * total energy  :  -170.1881964 Eh     change       -0.1075950E-02 Eh
 * total energy  :  -170.1888831 Eh     change       -0.6867142E-03 Eh
 * total energy  :  -170.1892234 Eh     change       -0.3403245E-03 Eh
 * total energy  :  -170.1894119 Eh     change       -0.1884142E-03 Eh
 * total energy  :  -170.1895321 Eh     change       -0.1202337E-03 Eh
 * total energy  :  -170.1896136 Eh     change       -0.8154431E-04 Eh
 * total energy  :  -170.1902110 Eh     change       -0.4549693E-06 Eh
 * total energy  :  -170.1902115 Eh     change       -0.5292067E-06 Eh
 * total energy  :  -170.1902122 Eh     change       -0.6550680E-06 Eh
 * total energy  :  -170.1902130 Eh     change       -0.8232298E-06 Eh
 * total energy  :  -170.1902138 Eh     change       -0.7784276E-06 Eh
 * total energy  :  -170.1902144 Eh     change       -0.6240703E-06 Eh
 * total energy  :  -170.1902149 Eh     change       -0.5200484E-06 Eh
 * total energy  :  -170.1902154 Eh     change       -0.4703373E-06 Eh
 * total energy  :  -170.1902154 Eh     change       -0.3495046E-08 Eh
   *** GEOMETRY OPTIMIZATION CONVERGED AFTER 68 ITERATIONS ***

 final structure:
================
110
 xtb: 6.7.1 (edcfbbe)
C            2.74298571045126       -4.12850084516648        0.08101344975232
C            1.88062370993425       -3.84093592340541       -0.96468568060787
C            1.21689385378329       -2.62904046097909       -1.00588293817126
C            1.41295538724930       -1.68000452333159       -0.00507258234909
C            0.69602848027082       -0.38913836692503       -0.02804086947065
C           -0.68727342959663       -0.38171794248780       -0.00785973289853
C           -1.43368572041046       -1.65772644998344       -0.05313772876869
C           -2.30997765837543       -1.91724423435166       -1.10345458063268
C           -3.00221698122830       -3.11273116687873       -1.16136870636499
C           -2.83852771820908       -4.06150961330865       -0.16520359116981
C           -1.97289003018469       -3.80987426496438        0.88655533128892
C           -1.27318755982987       -2.61854292643582        0.94139342047756
C           -1.40443079634063        0.84064179914989        0.02550874708419
C           -2.86060901021765        0.84753094882812        0.03135441192736
C           -3.58542953829435        1.65596002559197       -0.85592031546321
C           -4.96001825586349        1.63357069724531       -0.87658476703091
C           -5.68227348637864        0.80372729285661       -0.01109943061704
C           -7.14093086244608        0.75001613803134       -0.06512591042844
C           -7.91568813854319        1.90022183076717       -0.22239264016543
C           -9.30264888774216        1.85641722953231       -0.26196143158917
C           -9.98884069009451        0.65757862056663       -0.16268892225872
C           -9.25334303731644       -0.51278077362142       -0.02633748870264
C           -7.84028599276651       -0.46034410055408        0.02477330345682
N           -7.35390280178097       -1.73824987608210        0.12169231094604
C           -8.39822964983881       -2.62509124129021        0.14020479966681
C           -8.38102072888123       -4.00976873579123        0.22725721567203
C           -9.59673129472015       -4.66688838152417        0.23323665349161
C          -10.79991277028680       -3.96648806255876        0.15467938589619
C          -10.82176618561908       -2.58731597166983        0.06652926701272
C           -9.61326992522866       -1.90289630381128        0.05954292028501
C           -4.96090208884963        0.02437795454943        0.90161318563181
C           -3.58654925473730        0.04318510968530        0.92084928488308
C           -0.68031569276582        2.05030498816285        0.04714664605299
C           -1.39448591877812        3.34268679436112        0.08423407069140
C           -2.24573635355570        3.65427970553440        1.14473433552284
C           -2.87856858685069        4.88215510840965        1.15099267106513
C           -2.65138852348489        5.75963707484230        0.09931400437207
C           -1.79439721092454        5.35486341650037       -0.90987616209275
N           -1.18354312082646        4.18311534560083       -0.92546955082269
C            0.70394069901471        2.05220503158889        0.05317511930986
C            1.39630616850699        3.34934292563029        0.01802111884269
C            2.31027604193611        3.64625663558858       -0.99706262538128
C            2.89958260412432        4.89412349202172       -1.02062790102259
C            2.56983228527081        5.81276866452341       -0.03139687974210
C            1.65534460308043        5.42474909852847        0.93310889870227
N            1.08398514950656        4.23446008745864        0.96497925994131
C            1.43307864444607        0.83067874601129        0.01270666471083
C            2.86661992147936        0.82559651038690        0.02399715351415
C            3.61224739090231        1.69680334545144        0.86295627444442
C            4.97283803064818        1.65760544557973        0.90929558666618
C            5.72180125085942        0.74280374826662        0.12043830932906
C            7.14629456713089        0.66679355825839        0.20993622497932
C            7.94250477875122        1.80014400158279        0.51690780532475
C            9.31822103723272        1.75171828517037        0.54487157166166
C           10.01747129573004        0.56982147760900        0.29889612227182
C            9.28015178659296       -0.58056110646769        0.03585955135280
C            7.86889844405827       -0.53138878174924       -0.00332274224029
N            7.39238815858716       -1.79972703434035       -0.19235007079854
C            8.43722354494119       -2.67818824692399       -0.29583074772136
C            8.42373023614853       -4.05204859914850       -0.49049319963106
C            9.64243383863566       -4.69955779755326       -0.56297170835357
C           10.84333089377803       -3.99762006037209       -0.44572998528204
C           10.86141982287913       -2.62949670099214       -0.24845649515224
C            9.64999147607571       -1.95393421065874       -0.17259825569682
C            4.97823329357189       -0.08139960945272       -0.76657208373655
C            3.61759668465927       -0.04757044740454       -0.80723364492032
C            2.28560060872145       -1.97698057981616        1.04007422375613
C            2.94005740088542       -3.19380929596544        1.08463336831054
H            3.25648724440268       -5.07840119580785        0.11520376913906
H            1.72381671270639       -4.56443003143347       -1.75184256545559
H            0.55087655027000       -2.40425553879844       -1.82642420036651
H           -2.43652337608764       -1.17905961082844       -1.88292577329988
H           -3.67380428863634       -3.30363519862488       -1.98667952130516
H           -3.38179521949755       -4.99438814525213       -0.20950888191394
H           -1.84174141886357       -4.54482893208747        1.66778515903159
H           -0.60318124512442       -2.42201645211664        1.76607462922006
H           -3.04946285554736        2.27113997360935       -1.56423882211133
H           -5.49314417019017        2.23551929999474       -1.59825457398950
H           -7.41516972036621        2.85532178274285       -0.28730885768897
H           -9.85369174053526        2.77933820713378       -0.36999669426784
H          -11.06718802645496        0.63070904756052       -0.19693306165324
H           -6.37796085411544       -1.98405135474412        0.12123351775971
H           -7.44898252972933       -4.55197997903436        0.28812572093311
H           -9.61723776850373       -5.74486225898340        0.30013230154923
H          -11.72967064528144       -4.51627519955087        0.16291043979595
H          -11.75716216919713       -2.05153546047230        0.00553247638534
H           -5.49259569339020       -0.56619806046275        1.63468659328193
H           -3.05536715599566       -0.54490105113039        1.65418810132337
H           -2.38807732196870        2.94640066932468        1.94677281412303
H           -3.53873193237667        5.15475494171220        1.96214062284138
H           -3.12532751913958        6.72832452917890        0.06408489890868
H           -1.58145452392590        5.99447570794224       -1.75830053372058
H            2.52712318623531        2.91135935813950       -1.75709082510855
H            3.60329891947518        5.15327247417194       -1.79892739509118
H            3.00871577855678        6.79812863259429       -0.01097477402126
H            1.36037870756620        6.09595128879072        1.73129953151231
H            3.07527612181984        2.35291281952513        1.53253966199388
H            5.49536767501920        2.28716936416893        1.61398318979845
H            7.44616143239413        2.74370905685650        0.68358206574650
H            9.87125156498589        2.65542846124908        0.75739915829411
H           11.09496931943772        0.54446099994311        0.33055847660476
H            6.41832504951721       -2.05639263850494       -0.18402711289071
H            7.49335233110046       -4.59272587619754       -0.58110582704003
H            9.66878841011539       -5.76856253879054       -0.71378717589864
H           11.77550679451373       -4.53957119021980       -0.50905763628814
H           11.79550372457924       -2.09618225547465       -0.15677565322597
H            5.50883204413535       -0.68427932568585       -1.48986293188325
H            3.09270259459616       -0.64363486662793       -1.53827143581997
H            2.43510933047526       -1.25170839505582        1.82754573705322
H            3.60736926522582       -3.41332183634411        1.90620881263765

          :  Hamiltonian                  GFN2-xTB          :
         :: gradient norm              0.000045139639 Eh/a0 ::
         :: HOMO-LUMO gap              0.421096894113 eV    ::
         :: SCC energy              -173.405209107554 Eh    ::
         :: -> dispersion             -0.173697000455 Eh    ::
         :: -> Gsolv                  -0.069309113836 Eh    ::
         :: repulsion energy           3.214993691584 Eh    ::

    * Orbital Energies and Occupations

         #    Occupation            Energy/Eh            Energy/eV
      -------------------------------------------------------------
         1        2.0000           -0.6839221             -18.6105
       ...           ...                  ...                  ...
       148        2.0000           -0.4002643             -10.8917
       149        2.0000           -0.3975615             -10.8182
       150        2.0000           -0.3956843             -10.7671
       151        2.0000           -0.3895081             -10.5991
       152        2.0000           -0.3824014             -10.4057
       153        2.0000           -0.3815412             -10.3823
       154        2.0000           -0.3801356             -10.3440
       155        2.0000           -0.3773142             -10.2672
       156        1.9990           -0.3681904             -10.0190
       157        1.9954           -0.3667168              -9.9789
       158        1.9681           -0.3648539              -9.9282
       159        1.0375           -0.3585292              -9.7561
       160        0.9997           -0.2713349              -7.3834 (HOMO)
       161        0.0003           -0.2558593              -6.9623 (LUMO)
       162        0.0001           -0.2544194              -6.9231
       163        0.0000           -0.2486608              -6.7664
       164                         -0.2439997              -6.6396
       165                         -0.2429010              -6.6097
       166                         -0.2368492              -6.4450
       167                         -0.2320169              -6.3135
       168                         -0.2303872              -6.2692
       169                         -0.2274974              -6.1905
       170                         -0.2257615              -6.1433
       171                         -0.2234219              -6.0796
       ...                                ...                  ...
       314                          0.7415736              20.1792
      -------------------------------------------------------------
                  HL-Gap            0.0154756 Eh            0.4211 eV

     #   Z          covCN         q      C6AA      α(0)
     1   6 C        2.920    -0.034    28.842     8.807
     2   6 C        2.918    -0.031    28.761     8.794
     3   6 C        2.924    -0.032    28.810     8.802
     4   6 C        2.977     0.018    27.599     8.617
     5   6 C        2.977    -0.004    28.128     8.700
     6   6 C        2.977    -0.004    28.118     8.698
     7   6 C        2.977     0.017    27.633     8.623
     8   6 C        2.925    -0.032    28.807     8.802
     9   6 C        2.918    -0.033    28.822     8.804
    10   6 C        2.920    -0.034    28.852     8.808
    11   6 C        2.918    -0.031    28.770     8.796
    12   6 C        2.924    -0.032    28.810     8.802
    13   6 C        2.977    -0.011    28.292     8.725
    14   6 C        2.974     0.009    27.803     8.649
    15   6 C        2.921    -0.036    28.884     8.813
    16   6 C        2.921    -0.037    28.909     8.817
    17   6 C        2.974     0.003    27.956     8.673
    18   6 C        2.966    -0.011    28.292     8.725
    19   6 C        2.926    -0.040    29.002     8.832
    20   6 C        2.917    -0.041    29.008     8.832
    21   6 C        2.911    -0.036    28.884     8.813
    22   6 C        3.070    -0.017    28.363     8.732
    23   6 C        3.072     0.050    26.807     8.489
    24   7 N        2.757    -0.112    23.452     7.193
    25   6 C        3.072     0.054    26.711     8.474
    26   6 C        2.909    -0.053    29.326     8.880
    27   6 C        2.924    -0.034    28.839     8.807
    28   6 C        2.920    -0.041    29.013     8.833
    29   6 C        2.912    -0.033    28.830     8.805
    30   6 C        3.071    -0.016    28.335     8.728
    31   6 C        2.921    -0.042    29.053     8.839
    32   6 C        2.921    -0.036    28.895     8.815
    33   6 C        2.982    -0.001    28.038     8.686
    34   6 C        2.966     0.118    25.409     8.268
    35   6 C        2.918    -0.041    29.009     8.832
    36   6 C        2.928    -0.012    28.325     8.728
    37   6 C        2.914    -0.045    29.129     8.850
    38   6 C        2.906     0.063    26.596     8.456
    39   7 N        1.842    -0.262    27.662     7.795
    40   6 C        2.981    -0.005    28.150     8.703
    41   6 C        2.964     0.114    25.476     8.279
    42   6 C        2.918    -0.040    29.006     8.832
    43   6 C        2.927    -0.014    28.352     8.732
    44   6 C        2.914    -0.047    29.162     8.855
    45   6 C        2.904     0.063    26.589     8.455
    46   7 N        1.842    -0.264    27.722     7.803
    47   6 C        2.973    -0.011    28.276     8.722
    48   6 C        2.971     0.007    27.858     8.658
    49   6 C        2.915    -0.036    28.895     8.815
    50   6 C        2.915    -0.037    28.918     8.818
    51   6 C        2.969    -0.002    28.071     8.691
    52   6 C        2.963    -0.007    28.184     8.708
    53   6 C        2.922    -0.045    29.127     8.850
    54   6 C        2.914    -0.036    28.888     8.814
    55   6 C        2.910    -0.039    28.959     8.824
    56   6 C        3.070    -0.018    28.373     8.734
    57   6 C        3.066     0.049    26.835     8.494
    58   7 N        2.761    -0.097    23.142     7.145
    59   6 C        3.070     0.052    26.768     8.483
    60   6 C        2.908    -0.050    29.240     8.867
    61   6 C        2.923    -0.035    28.860     8.810
    62   6 C        2.920    -0.037    28.919     8.819
    63   6 C        2.911    -0.033    28.818     8.803
    64   6 C        3.072    -0.014    28.284     8.720
    65   6 C        2.915    -0.045    29.111     8.848
    66   6 C        2.915    -0.036    28.899     8.815
    67   6 C        2.925    -0.031    28.781     8.798
    68   6 C        2.918    -0.033    28.816     8.803
    69   1 H        0.926     0.033     2.551     2.498
    70   1 H        0.926     0.032     2.556     2.500
    71   1 H        0.926     0.027     2.623     2.533
    72   1 H        0.926     0.026     2.649     2.545
    73   1 H        0.926     0.030     2.584     2.514
    74   1 H        0.926     0.032     2.563     2.504
    75   1 H        0.926     0.032     2.562     2.503
    76   1 H        0.926     0.027     2.632     2.537
    77   1 H        0.926     0.024     2.677     2.559
    78   1 H        0.926     0.031     2.570     2.507
    79   1 H        0.926     0.033     2.551     2.498
    80   1 H        0.926     0.031     2.566     2.505
    81   1 H        0.926     0.035     2.521     2.483
    82   1 H        0.860     0.168     1.283     1.774
    83   1 H        0.926     0.032     2.557     2.501
    84   1 H        0.926     0.034     2.533     2.489
    85   1 H        0.926     0.031     2.566     2.505
    86   1 H        0.926     0.034     2.532     2.489
    87   1 H        0.926     0.030     2.580     2.512
    88   1 H        0.926     0.030     2.585     2.514
    89   1 H        0.926     0.035     2.521     2.483
    90   1 H        0.926     0.040     2.444     2.445
    91   1 H        0.926     0.038     2.471     2.458
    92   1 H        0.925     0.029     2.596     2.519
    93   1 H        0.926     0.034     2.526     2.485
    94   1 H        0.926     0.039     2.461     2.453
    95   1 H        0.926     0.037     2.492     2.468
    96   1 H        0.925     0.028     2.619     2.531
    97   1 H        0.926     0.022     2.706     2.572
    98   1 H        0.926     0.031     2.576     2.510
    99   1 H        0.926     0.033     2.541     2.493
   100   1 H        0.926     0.032     2.556     2.500
   101   1 H        0.926     0.035     2.518     2.481
   102   1 H        0.860     0.174     1.247     1.749
   103   1 H        0.926     0.035     2.510     2.477
   104   1 H        0.926     0.036     2.500     2.473
   105   1 H        0.926     0.035     2.522     2.484
   106   1 H        0.926     0.036     2.500     2.473
   107   1 H        0.926     0.030     2.593     2.518
   108   1 H        0.926     0.030     2.586     2.515
   109   1 H        0.926     0.027     2.634     2.538
   110   1 H        0.926     0.031     2.571     2.508

molecular dipole:
                 x           y           z       tot (Debye)
 q only:        0.534      -1.628      -0.023
   full:        0.534      -1.289      -0.013       3.547

 projected vibrational frequencies (cm⁻¹)
eigval :       -0.00    -0.00    -0.00     0.00     0.00     0.00
eigval :        5.67     7.59    13.33    17.60    20.58    22.17
eigval :       26.53    33.32    35.55    43.87    46.68    49.89
eigval :       50.56    52.28    53.30    57.54    69.95    72.97
eigval :       75.27    88.52    95.60   102.38   109.54   113.89
eigval :      115.39   116.67   129.16   139.12   148.68   168.60
eigval :      179.73   188.08   191.71   194.92   199.32   214.55
eigval :      216.11   226.18   234.03   247.64   251.89   255.70
eigval :      261.24   268.45   279.03   285.10   296.38   310.71
eigval :      317.06   332.88   334.98   350.44   359.39   369.39
eigval :      374.35   374.96   375.90   386.06   389.40   402.30
eigval :      409.01   416.59   421.30   444.10   453.07   458.74
eigval :      468.45   481.64   483.50   486.38   493.84   505.99
eigval :      513.09   513.26   515.76   524.42   528.28   532.25
eigval :      541.32   547.21   551.66   554.23   557.82   575.18
eigval :      579.55   582.25   583.85   584.81   588.27   589.53
eigval :      590.44   598.29   601.22   610.68   620.35   627.33
eigval :      634.22   638.44   642.77   647.72   667.22   671.25
eigval :      677.05   681.22   685.47   689.61   694.74   696.67
eigval :      704.09   704.42   711.40   715.59   721.31   741.71
eigval :      757.27   760.81   763.60   770.30   770.46   781.05
eigval :      782.32   787.58   790.03   813.15   820.95   823.38
eigval :      828.78   838.15   842.87   849.27   854.98   858.19
eigval :      861.64   863.51   864.29   864.77   868.48   876.77
eigval :      879.44   880.40   880.80   882.29   885.97   897.96
eigval :      899.93   900.64   902.49   905.63   909.62   911.00
eigval :      912.56   917.01   919.85   920.01   925.26   926.31
eigval :      926.81   929.44   931.45   931.56   933.21   934.15
eigval :      936.38   951.45   962.35   974.68   984.28   989.34
eigval :      994.34  1002.78  1022.90  1035.37  1058.98  1062.44
eigval :     1064.92  1082.03  1082.92  1084.92  1091.63  1092.89
eigval :     1099.31  1101.56  1112.43  1116.46  1118.13  1119.51
eigval :     1120.89  1129.58  1138.38  1140.27  1146.36  1148.83
eigval :     1159.67  1159.86  1162.13  1163.22  1171.40  1172.95
eigval :     1180.03  1180.10  1181.29  1182.29  1191.68  1195.98
eigval :     1196.65  1199.26  1207.54  1217.77  1225.46  1227.46
eigval :     1237.57  1242.55  1249.46  1258.44  1262.88  1264.04
eigval :     1272.20  1275.87  1279.79  1281.01  1281.86  1282.54
eigval :     1287.02  1290.03  1297.70  1302.75  1310.68  1311.81
eigval :     1312.34  1313.82  1316.01  1321.03  1321.58  1338.74
eigval :     1345.59  1350.67  1357.82  1366.95  1371.34  1375.01
eigval :     1386.59  1388.80  1395.02  1399.88  1402.62  1411.68
eigval :     1413.63  1418.08  1420.78  1424.84  1427.52  1430.06
eigval :     1431.96  1433.80  1451.48  1465.78  1470.79  1474.55
eigval :     1477.24  1477.46  1482.27  1488.79  1493.27  1505.35
eigval :     1508.35  1519.28  1531.69  1545.08  1548.78  1560.84
eigval :     1563.59  1568.73  1573.15  1573.50  1574.77  1577.89
eigval :     1581.24  1587.38  1587.45  1592.13  1596.08  1602.84
eigval :     3035.08  3036.85  3063.86  3064.36  3065.14  3065.65
eigval :     3066.49  3067.41  3067.87  3068.35  3071.70  3071.77
eigval :     3072.57  3073.08  3074.38  3074.82  3075.04  3075.14
eigval :     3076.66  3078.46  3078.66  3080.26  3083.07  3083.92
eigval :     3085.18  3086.47  3087.31  3087.37  3087.98  3088.76
eigval :     3089.33  3089.81  3091.38  3091.56  3092.09  3092.87
eigval :     3093.27  3093.97  3094.11  3100.90  3458.86  3471.30

   temp. (K)  partition function   enthalpy   heat capacity  entropy
                                   cal/mol     cal/K/mol   cal/K/mol   J/K/mol
 298.15  VIB  0.180E+27            32329.396    202.235    203.508
         ROT  0.238E+09              888.752      2.981     41.311
         INT  0.430E+35            33218.148    205.215    244.819
         TR   0.247E+29             1481.254      4.968     46.135
         TOT                       34699.4020   210.1836   290.9544  1217.3534

       T/K    H(0)-H(T)+PV         H(T)/Eh          T*S/Eh         G(T)/Eh
   ------------------------------------------------------------------------
    298.15    0.552970E-01    0.895903E+00    0.138242E+00    0.757661E+00
   ------------------------------------------------------------------------

         :::::::::::::::::::::::::::::::::::::::::::::::::::::
         ::                  THERMODYNAMIC                  ::
         :::::::::::::::::::::::::::::::::::::::::::::::::::::
         :: total free energy        -169.432554370872 Eh   ::
         ::.................................................::
         :: total energy             -170.190215415466 Eh   ::
         :: zero point energy           0.840605874874 Eh   ::
         :: G(RRHO) w/o ZPVE           -0.082944830280 Eh   ::
         :: G(RRHO) contrib.            0.757661044594 Eh   ::
         :::::::::::::::::::::::::::::::::::::::::::::::::::::

           -------------------------------------------------
          | TOTAL ENERGY             -170.190215415466 Eh   |
          | TOTAL ENTHALPY           -169.294312523728 Eh   |
          | TOTAL FREE ENERGY        -169.432554370872 Eh   |
          | GRADIENT NORM               0.000045048386 Eh/α |
          | HOMO-LUMO GAP               0.421112357313 eV   |
           -------------------------------------------------

 * finished run on 2025/08/30 at 12:21:51.143
