   * xtb version 6.7.1 (edcfbbe) compiled by 'albert@albert-system' on 2024-07-22

   ID    Z sym.   atoms
    1    6 C      1-4, 6-10, 12, 13, 15-19, 21, 22
    2    7 N      5, 11, 14, 20
    3    1 H      23-32

          program call               : xtb data2507/toluene/TPA-CN-N4/TPA-CN-N4_toluene_T1_crest.xyz --gfn 2 --uhf 2 --gbsa toluene --ohess vtight --parallel 40 --molden --ceasefiles --namespace data2507/toluene/TPA-CN-N4/TPA-CN-N4_toluene_T1_finalOpt
      * Solvation model:               GBSA
        Solvent                        toluene
        Solvent mass                       9.2140E+01 g/mol
          :  Hamiltonian                  GFN2-xTB          :
 * total energy  :   -55.3220491 Eh     change       -0.2711622E-07 Eh
 * total energy  :   -55.3220652 Eh     change       -0.1614490E-04 Eh
 * total energy  :   -55.3220687 Eh     change       -0.3408342E-05 Eh
 * total energy  :   -55.3220704 Eh     change       -0.1731890E-05 Eh
 * total energy  :   -55.3220721 Eh     change       -0.1720130E-05 Eh
 * total energy  :   -55.3220732 Eh     change       -0.1055324E-05 Eh
 * total energy  :   -55.3220740 Eh     change       -0.8827478E-06 Eh
 * total energy  :   -55.3220747 Eh     change       -0.6643584E-06 Eh
 * total energy  :   -55.3220751 Eh     change       -0.3697373E-06 Eh
 * total energy  :   -55.3220753 Eh     change       -0.2212355E-06 Eh
 * total energy  :   -55.3220755 Eh     change       -0.1509715E-06 Eh
 * total energy  :   -55.3220755 Eh     change       -0.9502419E-07 Eh
   *** GEOMETRY OPTIMIZATION CONVERGED AFTER 12 ITERATIONS ***

 final structure:
================
32
 xtb: 6.7.1 (edcfbbe)
C            5.02729315183969       -0.69399762765766       -0.00507234766033
C            5.02734189961192        0.69368437955551        0.00003310351999
C            3.83327663498029        1.39257078872233        0.00152918267171
C            2.61138714816600        0.72466135518133       -0.00154232459341
N            1.43880813858510        1.35720095752208       -0.00101210717838
C            0.28131337219813        0.71691865204123       -0.00238448113221
C           -0.95983407588438        1.41359366336178       -0.00228444073821
C           -1.00319722054954        2.81945624036428       -0.00360837639967
C           -2.21745438131724        3.45663458139126       -0.00366323106923
C           -3.38123357188841        2.67312818770154       -0.00221044734218
N           -3.36564650579467        1.36600867534027       -0.00092765795464
C           -2.19829627909513        0.71980718447158       -0.00099940306820
C           -2.19834200236488       -0.71962937794415        0.00035901618044
N           -3.36572366897590       -1.36575660433500        0.00393393166318
C           -3.38139446884011       -2.67287188865197        0.00510401840939
C           -2.21767161453559       -3.45645283073008        0.00235824353075
C           -1.00337935101478       -2.81935362147654       -0.00121970154389
C           -0.95992647420744       -1.41349550307085       -0.00194870390052
C            0.28126437725771       -0.71690066824370       -0.00391943605747
N            1.43871455841014       -1.35725817082820       -0.00635228277850
C            2.61133633167380       -0.72479854338046       -0.00555081810139
C            3.83317817423822       -1.39279657465753       -0.00775037105093
H            5.96048083444843       -1.23561331578159       -0.00668926121572
H            5.96056754925088        1.23523211384239        0.00268070513191
H            3.81833531475498        2.47159798526388        0.00506210620729
H           -0.06735605927022        3.35969455930400       -0.00470558263515
H           -2.28649686678783        4.53268002702812       -0.00482611753038
H           -4.36134799665202        3.13147910632919       -0.00216883948383
H           -4.36153461817055       -3.13115788706169        0.00854352557274
H           -2.28678495244073       -4.53249334410479        0.00326206700619
H           -0.06757491737674       -3.35965157048680       -0.00328369201814
H            3.81815674975089       -2.47182247150977       -0.01126256524123

          :  Hamiltonian                  GFN2-xTB          :
         :: gradient norm              0.000034568793 Eh/a0 ::
         :: HOMO-LUMO gap              0.830236674999 eV    ::
         :: SCC energy               -56.283982114355 Eh    ::
         :: -> dispersion             -0.041016979158 Eh    ::
         :: -> Gsolv                  -0.025245244864 Eh    ::
         :: repulsion energy           0.961906567058 Eh    ::

    * Orbital Energies and Occupations

         #    Occupation            Energy/Eh            Energy/eV
      -------------------------------------------------------------
         1        2.0000           -0.6937704             -18.8785
       ...           ...                  ...                  ...
        40        2.0000           -0.4538056             -12.3487
        41        2.0000           -0.4501014             -12.2479
        42        2.0000           -0.4491391             -12.2217
        43        2.0000           -0.4487558             -12.2113
        44        2.0000           -0.4440476             -12.0831
        45        2.0000           -0.4413377             -12.0094
        46        2.0000           -0.4201685             -11.4334
        47        2.0000           -0.4130063             -11.2385
        48        2.0000           -0.4010046             -10.9119
        49        1.9923           -0.3786773             -10.3043
        50        1.9758           -0.3775730             -10.2743
        51        1.0319           -0.3708179             -10.0905
        52        1.0000           -0.3185521              -8.6682 (HOMO)
        53        0.0000           -0.2880416              -7.8380 (LUMO)
        54                         -0.2798126              -7.6141
        55                         -0.2401681              -6.5353
        56                         -0.2327966              -6.3347
        57                         -0.2137560              -5.8166
        58                         -0.2121734              -5.7735
        59                         -0.1673537              -4.5539
        60                         -0.1286957              -3.5020
        61                         -0.0955634              -2.6004
        62                         -0.0554400              -1.5086
        63                          0.0727944               1.9808
       ...                                ...                  ...
        98                          0.6984329              19.0053
      -------------------------------------------------------------
                  HL-Gap            0.0305106 Eh            0.8302 eV

     #   Z          covCN         q      C6AA      α(0)
     1   6 C        2.916    -0.032    28.795     8.799
     2   6 C        2.916    -0.032    28.795     8.799
     3   6 C        2.918    -0.054    29.336     8.882
     4   6 C        2.938     0.088    26.036     8.368
     5   7 N        1.849    -0.216    26.558     7.638
     6   6 C        2.937     0.079    26.233     8.400
     7   6 C        2.982    -0.018    28.445     8.749
     8   6 C        2.927    -0.012    28.313     8.726
     9   6 C        2.911    -0.041    29.015     8.833
    10   6 C        2.902     0.061    26.638     8.463
    11   7 N        1.841    -0.206    26.320     7.603
    12   6 C        2.967     0.078    26.260     8.406
    13   6 C        2.967     0.078    26.260     8.406
    14   7 N        1.841    -0.206    26.320     7.603
    15   6 C        2.902     0.061    26.638     8.463
    16   6 C        2.911    -0.041    29.015     8.833
    17   6 C        2.927    -0.012    28.313     8.726
    18   6 C        2.982    -0.018    28.445     8.749
    19   6 C        2.937     0.079    26.233     8.400
    20   7 N        1.849    -0.216    26.558     7.638
    21   6 C        2.938     0.088    26.036     8.368
    22   6 C        2.918    -0.054    29.336     8.882
    23   1 H        0.926     0.049     2.333     2.389
    24   1 H        0.926     0.049     2.333     2.389
    25   1 H        0.926     0.055     2.254     2.348
    26   1 H        0.926     0.058     2.219     2.329
    27   1 H        0.926     0.058     2.224     2.332
    28   1 H        0.925     0.053     2.288     2.365
    29   1 H        0.925     0.053     2.288     2.365
    30   1 H        0.926     0.058     2.224     2.332
    31   1 H        0.926     0.058     2.219     2.329
    32   1 H        0.926     0.055     2.254     2.348

molecular dipole:
                 x           y           z       tot (Debye)
 q only:        0.569      -0.000      -0.000
   full:        1.128      -0.000      -0.001       2.866

 projected vibrational frequencies (cm⁻¹)
eigval :       -0.00    -0.00    -0.00     0.00     0.00     0.00
eigval :       45.13    55.78    80.53   108.58   132.33   154.73
eigval :      186.51   197.51   271.80   274.20   299.92   333.51
eigval :      359.48   391.15   396.48   417.00   433.91   450.06
eigval :      506.86   517.81   524.01   524.05   539.49   569.71
eigval :      573.65   592.75   628.96   669.70   671.25   689.03
eigval :      698.73   735.98   759.28   774.65   785.86   789.37
eigval :      809.19   832.07   845.69   875.48   902.51   903.16
eigval :      904.40   909.85   915.95   916.48  1025.75  1051.07
eigval :     1072.73  1079.94  1088.20  1118.95  1124.13  1125.74
eigval :     1164.48  1178.72  1209.68  1220.13  1227.95  1246.83
eigval :     1257.56  1259.82  1278.64  1300.03  1323.44  1335.48
eigval :     1343.71  1362.87  1383.60  1387.40  1416.62  1425.13
eigval :     1457.03  1474.51  1493.23  1494.88  1533.42  1545.50
eigval :     1549.74  1566.68  3055.40  3055.69  3073.35  3073.69
eigval :     3085.82  3087.72  3094.23  3101.00  3101.16  3103.54

   temp. (K)  partition function   enthalpy   heat capacity  entropy
                                   cal/mol     cal/K/mol   cal/K/mol   J/K/mol
 298.15  VIB  0.445E+05             8041.399     57.805     46.822
         ROT  0.320E+07              888.752      2.981     32.750
         INT  0.142E+12             8930.151     60.786     79.572
         TR   0.459E+28             1481.254      4.968     42.792
         TOT                       10411.4051    65.7544   122.3643   511.9722

       T/K    H(0)-H(T)+PV         H(T)/Eh          T*S/Eh         G(T)/Eh
   ------------------------------------------------------------------------
    298.15    0.165916E-01    0.244203E+00    0.581392E-01    0.186063E+00
   ------------------------------------------------------------------------

         :::::::::::::::::::::::::::::::::::::::::::::::::::::
         ::                  THERMODYNAMIC                  ::
         :::::::::::::::::::::::::::::::::::::::::::::::::::::
         :: total free energy         -55.136012112909 Eh   ::
         ::.................................................::
         :: total energy              -55.322075547293 Eh   ::
         :: zero point energy           0.227611024109 Eh   ::
         :: G(RRHO) w/o ZPVE           -0.041547589725 Eh   ::
         :: G(RRHO) contrib.            0.186063434384 Eh   ::
         :::::::::::::::::::::::::::::::::::::::::::::::::::::

           -------------------------------------------------
          | TOTAL ENERGY              -55.322075547293 Eh   |
          | TOTAL ENTHALPY            -55.077872893125 Eh   |
          | TOTAL FREE ENERGY         -55.136012112909 Eh   |
          | GRADIENT NORM               0.000034089208 Eh/α |
          | HOMO-LUMO GAP               0.830234722847 eV   |
           -------------------------------------------------

 * finished run on 2025/09/04 at 18:59:31.411
