   * xtb version 6.7.1 (edcfbbe) compiled by 'albert@albert-system' on 2024-07-22

   ID    Z sym.   atoms
    1    6 C      1-4, 6-10, 12, 13, 15-19, 21, 22
    2    7 N      5, 11, 14, 20
    3    1 H      23-32

          program call               : xtb data2507/toluene/TPA-CN-N4/TPA-CN-N4.xyz --gfn 2 --gbsa toluene --ohess vtight --parallel 40 --molden --ceasefiles --namespace data2507/toluene/TPA-CN-N4/TPA-CN-N4_toluene_S0_preOpt
      * Solvation model:               GBSA
        Solvent                        toluene
        Solvent mass                       9.2140E+01 g/mol
          :  Hamiltonian                  GFN2-xTB          :
 * total energy  :   -55.3570270 Eh     change       -0.8065015E-09 Eh
 * total energy  :   -55.3706186 Eh     change       -0.1359156E-01 Eh
 * total energy  :   -55.3731281 Eh     change       -0.2509504E-02 Eh
 * total energy  :   -55.3732728 Eh     change       -0.1447203E-03 Eh
 * total energy  :   -55.3733257 Eh     change       -0.5286387E-04 Eh
 * total energy  :   -55.3733288 Eh     change       -0.3158378E-05 Eh
 * total energy  :   -55.3733292 Eh     change       -0.3898360E-06 Eh
 * total energy  :   -55.3733288 Eh     change        0.4290352E-06 Eh
 * total energy  :   -55.3733293 Eh     change       -0.4563783E-06 Eh
 * total energy  :   -55.3733291 Eh     change        0.1407747E-06 Eh
 * total energy  :   -55.3733291 Eh     change        0.1390602E-06 Eh
 * total energy  :   -55.3733293 Eh     change       -0.1391932E-06 Eh
 * total energy  :   -55.3733291 Eh     change        0.1372067E-06 Eh
 * total energy  :   -55.3733293 Eh     change       -0.1371796E-06 Eh
 * total energy  :   -55.3733291 Eh     change        0.1349054E-06 Eh
 * total energy  :   -55.3733293 Eh     change       -0.1342975E-06 Eh
 * total energy  :   -55.3733291 Eh     change        0.1332298E-06 Eh
 * total energy  :   -55.3733293 Eh     change       -0.1336730E-06 Eh
 * total energy  :   -55.3733293 Eh     change       -0.8297150E-09 Eh
   *** GEOMETRY OPTIMIZATION CONVERGED AFTER 22 ITERATIONS ***

 final structure:
================
32
 xtb: 6.7.1 (edcfbbe)
C            4.79628114580955       -0.70461008981241       -0.00000087628129
C            4.79628035740864        0.70461556230596        0.00000100343677
C            3.62462647153444        1.40607646451128        0.00000157930709
C            2.39380107187354        0.71417288657606        0.00000051102390
N            1.24026730970855        1.39944231873708        0.00000091686629
C            0.11203010974780        0.71486462006418        0.00000065279982
C           -1.14448491285236        1.43112409096874        0.00000038844087
C           -1.18842906364101        2.82961337986014        0.00000029532922
C           -2.41306376323038        3.46087732054925       -0.00000038881409
C           -3.56173559282511        2.66836329171728       -0.00000102949134
N           -3.54158789960556        1.35516046233274       -0.00000086110457
C           -2.36528337359287        0.72769046898946       -0.00000005906675
C           -2.36528253973962       -0.72769309385129        0.00000010496778
N           -3.54158633730028       -1.35516445482205       -0.00000031527243
C           -3.56173250318557       -2.66836730667846       -0.00000021037250
C           -2.41305975071708       -3.46088000416575        0.00000057353066
C           -1.18842578414063       -2.82961464212378        0.00000079289184
C           -1.14448327006586       -1.43112530213051        0.00000043121769
C            0.11203092005328       -0.71486438000242        0.00000029891698
N            1.24026888743826       -1.39944080541733       -0.00000058884244
C            2.39380187528961       -0.71417007457124       -0.00000077840633
C            3.62462803933177       -1.40607228979802       -0.00000158395574
H            5.74024263691433       -1.22882401087893       -0.00000175132540
H            5.74024126779754        1.22883053066012        0.00000068314205
H            3.60200153098607        2.48493213062752        0.00000239503514
H           -0.25880943088623        3.37824258445925        0.00000065860541
H           -2.48823798358920        4.53678738756372       -0.00000014216095
H           -4.54763354504185        3.11544231473959       -0.00000096789467
H           -4.54762994087689       -3.11544747052276       -0.00000000813328
H           -2.48823271507722       -4.53679016018657        0.00000098552086
H           -0.25880549827421       -3.37824274825446        0.00000138700709
H            3.60200428074852       -2.48492798144637       -0.00000209691766

          :  Hamiltonian                  GFN2-xTB          :
         :: gradient norm              0.000011869959 Eh/a0 ::
         :: HOMO-LUMO gap              1.340728943003 eV    ::
         :: SCC energy               -56.327761882089 Eh    ::
         :: -> dispersion             -0.041094624522 Eh    ::
         :: -> Gsolv                  -0.026379702450 Eh    ::
         :: repulsion energy           0.954432619024 Eh    ::

    * Orbital Energies and Occupations

         #    Occupation            Energy/Eh            Energy/eV
      -------------------------------------------------------------
         1        2.0000           -0.6897393             -18.7688
       ...           ...                  ...                  ...
        39        2.0000           -0.4557793             -12.4024
        40        2.0000           -0.4546818             -12.3725
        41        2.0000           -0.4519831             -12.2991
        42        2.0000           -0.4494706             -12.2307
        43        2.0000           -0.4480063             -12.1909
        44        2.0000           -0.4457361             -12.1291
        45        2.0000           -0.4292826             -11.6814
        46        2.0000           -0.4230211             -11.5110
        47        2.0000           -0.4141236             -11.2689
        48        2.0000           -0.4071241             -11.0784
        49        2.0000           -0.3763294             -10.2404
        50        2.0000           -0.3754194             -10.2157
        51        2.0000           -0.3661261              -9.9628 (HOMO)
        52                         -0.3168553              -8.6221 (LUMO)
        53                         -0.2863301              -7.7914
        54                         -0.2809758              -7.6457
        55                         -0.2425883              -6.6012
        56                         -0.2354828              -6.4078
        57                         -0.2192151              -5.9651
        58                         -0.2161980              -5.8830
        59                         -0.1694882              -4.6120
        60                         -0.1291656              -3.5148
        61                         -0.0990059              -2.6941
        62                         -0.0583087              -1.5867
       ...                                ...                  ...
        98                          0.7032169              19.1355
      -------------------------------------------------------------
                  HL-Gap            0.0492709 Eh            1.3407 eV

     #   Z          covCN         q      C6AA      α(0)
     1   6 C        2.916    -0.024    28.595     8.769
     2   6 C        2.916    -0.024    28.595     8.769
     3   6 C        2.916    -0.041    29.026     8.835
     4   6 C        2.966     0.083    26.137     8.386
     5   7 N        1.848    -0.253    27.451     7.765
     6   6 C        2.957     0.082    26.166     8.390
     7   6 C        2.982    -0.017    28.420     8.745
     8   6 C        2.928    -0.012    28.312     8.726
     9   6 C        2.912    -0.038    28.941     8.821
    10   6 C        2.905     0.064    26.566     8.451
    11   7 N        1.841    -0.220    26.630     7.648
    12   6 C        2.969     0.085    26.098     8.380
    13   6 C        2.969     0.085    26.098     8.380
    14   7 N        1.841    -0.220    26.630     7.648
    15   6 C        2.905     0.064    26.566     8.451
    16   6 C        2.912    -0.038    28.941     8.821
    17   6 C        2.928    -0.012    28.312     8.726
    18   6 C        2.982    -0.017    28.420     8.745
    19   6 C        2.957     0.082    26.166     8.390
    20   7 N        1.848    -0.253    27.451     7.765
    21   6 C        2.966     0.083    26.137     8.386
    22   6 C        2.916    -0.041    29.026     8.835
    23   1 H        0.926     0.057     2.236     2.338
    24   1 H        0.926     0.057     2.236     2.338
    25   1 H        0.926     0.058     2.218     2.329
    26   1 H        0.926     0.065     2.146     2.291
    27   1 H        0.926     0.057     2.236     2.338
    28   1 H        0.925     0.053     2.285     2.364
    29   1 H        0.925     0.053     2.285     2.364
    30   1 H        0.926     0.057     2.236     2.338
    31   1 H        0.926     0.065     2.146     2.291
    32   1 H        0.926     0.058     2.218     2.329

molecular dipole:
                 x           y           z       tot (Debye)
 q only:        0.915      -0.000      -0.000
   full:        1.505      -0.000      -0.000       3.826

 projected vibrational frequencies (cm⁻¹)
eigval :       -0.00    -0.00    -0.00    -0.00     0.00     0.00
eigval :       37.01    51.87    83.29    97.98   136.92   153.37
eigval :      197.54   199.33   280.43   287.51   307.88   328.76
eigval :      365.82   375.89   397.78   414.24   435.08   440.29
eigval :      513.75   526.13   534.93   543.22   550.54   586.74
eigval :      588.98   599.47   684.85   690.93   699.95   704.16
eigval :      748.72   766.68   772.14   781.36   795.20   808.89
eigval :      838.92   864.56   876.92   914.84   915.81   916.48
eigval :      927.68   928.27   931.51   957.86  1045.47  1053.11
eigval :     1070.68  1089.08  1100.38  1129.77  1130.48  1141.96
eigval :     1165.03  1183.03  1213.86  1220.60  1251.66  1275.13
eigval :     1281.37  1294.73  1316.06  1322.09  1334.14  1347.74
eigval :     1388.17  1398.76  1402.94  1430.54  1444.74  1466.48
eigval :     1484.43  1502.19  1527.82  1545.95  1549.83  1560.08
eigval :     1573.64  1603.69  3051.60  3051.81  3082.93  3089.22
eigval :     3090.02  3090.04  3098.56  3101.51  3101.76  3102.64

   temp. (K)  partition function   enthalpy   heat capacity  entropy
                                   cal/mol     cal/K/mol   cal/K/mol   J/K/mol
 298.15  VIB  0.495E+05             7888.865     56.212     46.027
         ROT  0.319E+07              888.752      2.981     32.740
         INT  0.158E+12             8777.617     59.193     78.767
         TR   0.459E+28             1481.254      4.968     42.792
         TOT                       10258.8713    64.1615   121.5589   508.6026

       T/K    H(0)-H(T)+PV         H(T)/Eh          T*S/Eh         G(T)/Eh
   ------------------------------------------------------------------------
    298.15    0.163486E-01    0.247050E+00    0.577566E-01    0.189293E+00
   ------------------------------------------------------------------------

         :::::::::::::::::::::::::::::::::::::::::::::::::::::
         ::                  THERMODYNAMIC                  ::
         :::::::::::::::::::::::::::::::::::::::::::::::::::::
         :: total free energy         -55.184035792398 Eh   ::
         ::.................................................::
         :: total energy              -55.373329263066 Eh   ::
         :: zero point energy           0.230701494150 Eh   ::
         :: G(RRHO) w/o ZPVE           -0.041408023483 Eh   ::
         :: G(RRHO) contrib.            0.189293470668 Eh   ::
         :::::::::::::::::::::::::::::::::::::::::::::::::::::

           -------------------------------------------------
          | TOTAL ENERGY              -55.373329263066 Eh   |
          | TOTAL ENTHALPY            -55.126279216900 Eh   |
          | TOTAL FREE ENERGY         -55.184035792398 Eh   |
          | GRADIENT NORM               0.000011873587 Eh/α |
          | HOMO-LUMO GAP               1.340729015965 eV   |
           -------------------------------------------------

 * finished run on 2025/09/04 at 18:57:35.341
