   * xtb version 6.7.1 (edcfbbe) compiled by 'albert@albert-system' on 2024-07-22

   ID    Z sym.   atoms
    1    6 C      1-4, 6-10, 12, 13, 15-19, 21, 22
    2    7 N      5, 11, 14, 20
    3    1 H      23-32

          program call               : xtb data2507/toluene/TPA-CN-N4/TPA-CN-N4_toluene_S0_crest.xyz --gfn 2 --gbsa toluene --ohess vtight --parallel 40 --molden --ceasefiles --namespace data2507/toluene/TPA-CN-N4/TPA-CN-N4_toluene_S0_finalOpt
      * Solvation model:               GBSA
        Solvent                        toluene
        Solvent mass                       9.2140E+01 g/mol
          :  Hamiltonian                  GFN2-xTB          :
 * total energy  :   -55.3733094 Eh     change       -0.8855281E-09 Eh
 * total energy  :   -55.3733251 Eh     change       -0.1567336E-04 Eh
 * total energy  :   -55.3733271 Eh     change       -0.2015644E-05 Eh
 * total energy  :   -55.3733278 Eh     change       -0.6402515E-06 Eh
 * total energy  :   -55.3733276 Eh     change        0.1503170E-06 Eh
 * total energy  :   -55.3733280 Eh     change       -0.3512285E-06 Eh
 * total energy  :   -55.3733281 Eh     change       -0.1314155E-06 Eh
 * total energy  :   -55.3733281 Eh     change       -0.3481009E-07 Eh
 * total energy  :   -55.3733283 Eh     change       -0.1219733E-06 Eh
 * total energy  :   -55.3733284 Eh     change       -0.1421395E-06 Eh
 * total energy  :   -55.3733284 Eh     change       -0.3233978E-07 Eh
 * total energy  :   -55.3733285 Eh     change       -0.7557310E-07 Eh
   *** GEOMETRY OPTIMIZATION CONVERGED AFTER 12 ITERATIONS ***

 final structure:
================
32
 xtb: 6.7.1 (edcfbbe)
C            4.98864288127640       -0.70462878456550       -0.00522127010046
C            4.98866006062587        0.70452890960445        0.00566685037953
C            3.81702106804731        1.40597019434577        0.01000910506869
C            2.58620019482831        0.71412329590815        0.00398737356097
N            1.43271881434567        1.39941947503603        0.00563130432021
C            0.30452390202179        0.71486515157417        0.00126555278257
C           -0.95198691500581        1.43110852167560       -0.00018885074709
C           -0.99588239957299        2.82955969369549       -0.00101669730497
C           -2.22049499101408        3.46082580760474       -0.00422728201458
C           -3.36918471559357        2.66833541745960       -0.00669422432243
N           -3.34908593385622        1.35518342911653       -0.00526454743632
C           -2.17281299258342        0.72772135136816       -0.00181510205019
C           -2.17282994942243       -0.72765406306685        0.00029845788961
N           -3.34911664485318       -1.35509080289495        0.00377318038873
C           -3.36924164709946       -2.66824199405173        0.00561760488978
C           -2.22056738724472       -3.46075723155195        0.00364675287647
C           -0.99594214733851       -2.82951705683316        0.00026179024624
C           -0.95201934607095       -1.43106710855691       -0.00109454343026
C            0.30450734918636       -0.71485080323534       -0.00256352435543
N            1.43268725731359       -1.39943124278186       -0.00675110814067
C            2.58618405422722       -0.71416405052847       -0.00478401558443
C            3.81698825017043       -1.40604776045822       -0.01024816560780
H            5.93262148033875       -1.22880260076649       -0.00923342904389
H            5.93266089141251        1.22869174884274        0.01015381416787
H            3.79442392315370        2.48478514146265        0.01770535685854
H           -0.06623919898661        3.37813335850884        0.00056644824073
H           -2.29565260512197        4.53675438222246       -0.00516854690174
H           -4.35502469592807        3.11551080334096       -0.01015158077564
H           -4.35509293053920       -3.11539698269551        0.00916135925764
H           -2.29574588229892       -4.53668361083949        0.00511832481891
H           -0.06630944227324       -3.37810871479597       -0.00104703551381
H            3.79436459275544       -2.48486626944396       -0.01800685531677

          :  Hamiltonian                  GFN2-xTB          :
         :: gradient norm              0.000150557386 Eh/a0 ::
         :: HOMO-LUMO gap              1.340788998386 eV    ::
         :: SCC energy               -56.327872893710 Eh    ::
         :: -> dispersion             -0.041095597414 Eh    ::
         :: -> Gsolv                  -0.026378582628 Eh    ::
         :: repulsion energy           0.954544384578 Eh    ::

    * Orbital Energies and Occupations

         #    Occupation            Energy/Eh            Energy/eV
      -------------------------------------------------------------
         1        2.0000           -0.6897516             -18.7691
       ...           ...                  ...                  ...
        39        2.0000           -0.4557780             -12.4024
        40        2.0000           -0.4546858             -12.3726
        41        2.0000           -0.4519857             -12.2992
        42        2.0000           -0.4494786             -12.2309
        43        2.0000           -0.4480054             -12.1908
        44        2.0000           -0.4457336             -12.1290
        45        2.0000           -0.4292905             -11.6816
        46        2.0000           -0.4230206             -11.5110
        47        2.0000           -0.4141270             -11.2690
        48        2.0000           -0.4071241             -11.0784
        49        2.0000           -0.3763303             -10.2405
        50        2.0000           -0.3754208             -10.2157
        51        2.0000           -0.3661255              -9.9628 (HOMO)
        52                         -0.3168525              -8.6220 (LUMO)
        53                         -0.2863236              -7.7913
        54                         -0.2809709              -7.6456
        55                         -0.2425822              -6.6010
        56                         -0.2354748              -6.4076
        57                         -0.2192083              -5.9650
        58                         -0.2161963              -5.8830
        59                         -0.1694782              -4.6117
        60                         -0.1291528              -3.5144
        61                         -0.0989926              -2.6937
        62                         -0.0582961              -1.5863
       ...                                ...                  ...
        98                          0.7032865              19.1374
      -------------------------------------------------------------
                  HL-Gap            0.0492731 Eh            1.3408 eV

     #   Z          covCN         q      C6AA      α(0)
     1   6 C        2.916    -0.024    28.595     8.769
     2   6 C        2.916    -0.024    28.595     8.769
     3   6 C        2.916    -0.041    29.026     8.835
     4   6 C        2.966     0.083    26.137     8.386
     5   7 N        1.848    -0.253    27.451     7.765
     6   6 C        2.958     0.082    26.165     8.390
     7   6 C        2.982    -0.017    28.420     8.745
     8   6 C        2.928    -0.012    28.312     8.726
     9   6 C        2.912    -0.038    28.941     8.822
    10   6 C        2.905     0.064    26.566     8.451
    11   7 N        1.841    -0.220    26.630     7.648
    12   6 C        2.969     0.085    26.098     8.380
    13   6 C        2.969     0.085    26.098     8.380
    14   7 N        1.841    -0.220    26.630     7.648
    15   6 C        2.905     0.064    26.566     8.451
    16   6 C        2.912    -0.038    28.941     8.822
    17   6 C        2.928    -0.012    28.312     8.726
    18   6 C        2.982    -0.017    28.420     8.745
    19   6 C        2.958     0.082    26.165     8.390
    20   7 N        1.848    -0.253    27.451     7.765
    21   6 C        2.966     0.083    26.137     8.386
    22   6 C        2.916    -0.041    29.026     8.835
    23   1 H        0.926     0.057     2.236     2.338
    24   1 H        0.926     0.057     2.236     2.338
    25   1 H        0.926     0.058     2.218     2.329
    26   1 H        0.926     0.065     2.146     2.291
    27   1 H        0.926     0.057     2.236     2.338
    28   1 H        0.925     0.053     2.285     2.364
    29   1 H        0.925     0.053     2.285     2.364
    30   1 H        0.926     0.057     2.236     2.338
    31   1 H        0.926     0.065     2.146     2.291
    32   1 H        0.926     0.058     2.218     2.329

molecular dipole:
                 x           y           z       tot (Debye)
 q only:        0.915      -0.000       0.000
   full:        1.505      -0.000       0.001       3.825

 projected vibrational frequencies (cm⁻¹)
eigval :       -0.00    -0.00     0.00     0.00     0.00     0.00
eigval :       36.54    52.22    79.65    97.35   136.86   153.95
eigval :      197.46   199.18   281.55   287.04   307.88   328.77
eigval :      365.63   376.85   397.78   411.94   435.07   439.83
eigval :      512.89   524.78   534.87   543.21   550.54   586.74
eigval :      588.96   599.46   684.67   690.93   699.96   704.56
eigval :      748.72   766.57   772.30   781.38   796.37   809.64
eigval :      838.94   864.56   876.80   915.28   916.27   916.50
eigval :      927.41   927.63   931.35   957.86  1045.51  1053.14
eigval :     1070.71  1089.08  1100.38  1129.79  1130.52  1141.92
eigval :     1164.98  1183.08  1213.90  1220.61  1251.81  1275.22
eigval :     1281.43  1294.81  1316.16  1322.14  1334.21  1347.86
eigval :     1388.22  1398.81  1402.97  1430.62  1444.85  1466.54
eigval :     1484.51  1502.42  1527.88  1546.03  1549.89  1560.22
eigval :     1573.78  1603.76  3051.71  3051.92  3082.89  3089.24
eigval :     3090.02  3090.04  3098.69  3101.39  3101.66  3102.69

   temp. (K)  partition function   enthalpy   heat capacity  entropy
                                   cal/mol     cal/K/mol   cal/K/mol   J/K/mol
 298.15  VIB  0.519E+05             7895.142     56.196     46.106
         ROT  0.319E+07              888.752      2.981     32.740
         INT  0.165E+12             8783.894     59.177     78.846
         TR   0.459E+28             1481.254      4.968     42.792
         TOT                       10265.1480    64.1453   121.6379   508.9329

       T/K    H(0)-H(T)+PV         H(T)/Eh          T*S/Eh         G(T)/Eh
   ------------------------------------------------------------------------
    298.15    0.163586E-01    0.247052E+00    0.577941E-01    0.189258E+00
   ------------------------------------------------------------------------

         :::::::::::::::::::::::::::::::::::::::::::::::::::::
         ::                  THERMODYNAMIC                  ::
         :::::::::::::::::::::::::::::::::::::::::::::::::::::
         :: total free energy         -55.184070626408 Eh   ::
         ::.................................................::
         :: total energy              -55.373328509027 Eh   ::
         :: zero point energy           0.230693410935 Eh   ::
         :: G(RRHO) w/o ZPVE           -0.041435528317 Eh   ::
         :: G(RRHO) contrib.            0.189257882618 Eh   ::
         :::::::::::::::::::::::::::::::::::::::::::::::::::::

           -------------------------------------------------
          | TOTAL ENERGY              -55.373328509027 Eh   |
          | TOTAL ENTHALPY            -55.126276543509 Eh   |
          | TOTAL FREE ENERGY         -55.184070626408 Eh   |
          | GRADIENT NORM               0.000150522502 Eh/α |
          | HOMO-LUMO GAP               1.340789166651 eV   |
           -------------------------------------------------

 * finished run on 2025/09/04 at 18:58:22.272
