   * xtb version 6.7.1 (edcfbbe) compiled by 'albert@albert-system' on 2024-07-22

   ID    Z sym.   atoms
    1    6 C      1-4, 6-10, 12, 13, 15-19, 21, 22
    2    7 N      5, 11, 14, 20
    3    1 H      23-32

          program call               : xtb data2507/toluene/TPA-CN-N4/TPA-CN-N4_toluene_S0_finalOpt.xtbopt.xyz --gfn 2 --uhf 2 --gbsa toluene --ohess vtight --parallel 40 --molden --ceasefiles --namespace data2507/toluene/TPA-CN-N4/TPA-CN-N4_toluene_T1_preOpt
      * Solvation model:               GBSA
        Solvent                        toluene
        Solvent mass                       9.2140E+01 g/mol
          :  Hamiltonian                  GFN2-xTB          :
 * total energy  :   -55.3172318 Eh     change       -0.4066578E-09 Eh
 * total energy  :   -55.3206760 Eh     change       -0.3444130E-02 Eh
 * total energy  :   -55.3218970 Eh     change       -0.1221074E-02 Eh
 * total energy  :   -55.3220279 Eh     change       -0.1308981E-03 Eh
 * total energy  :   -55.3220727 Eh     change       -0.4475056E-04 Eh
 * total energy  :   -55.3220749 Eh     change       -0.2189581E-05 Eh
 * total energy  :   -55.3220753 Eh     change       -0.4385200E-06 Eh
 * total energy  :   -55.3220754 Eh     change       -0.8655886E-07 Eh
   *** GEOMETRY OPTIMIZATION CONVERGED AFTER 8 ITERATIONS ***

 final structure:
================
32
 xtb: 6.7.1 (edcfbbe)
C            5.02420653192542       -0.69391362542988       -0.00353657605044
C            5.02422900723911        0.69376451270948        0.00364549731692
C            3.83014026391708        1.39261712895175        0.00650967385172
C            2.60828026930204        0.72467064072437        0.00269936865902
N            1.43566772544195        1.35719222015877        0.00369014179415
C            0.27818719021479        0.71690508737207        0.00085022324893
C           -0.96298572566757        1.41357157473327       -0.00024656211613
C           -1.00633039425305        2.81942900112174       -0.00110244342306
C           -2.22061184414090        3.45658607104173       -0.00345951181361
C           -3.38436281255346        2.67305971168494       -0.00483174716468
N           -3.36879284751832        1.36593541650687       -0.00359038634165
C           -2.20141672370415        0.71977190164508       -0.00126629055669
C           -2.20144045661673       -0.71968234206119        0.00016296117574
N           -3.36883832600625       -1.36580704602041        0.00237698525342
C           -3.38445125911761       -2.67293071847930        0.00370842563486
C           -2.22072609700671       -3.45649536199835        0.00254679040491
C           -1.00642324260591       -2.81937833981391        0.00026552368072
C           -0.96303235760115       -1.41352247453271       -0.00069065789492
C            0.27816391739303       -0.71689664321892       -0.00166791643014
N            1.43562345268365       -1.35722103505514       -0.00433908130826
C            2.60825668245877       -0.72473879785643       -0.00311958410759
C            3.83009497384347       -1.39272619163729       -0.00667279371777
H            5.95741465130549       -1.23549169640659       -0.00641345929478
H            5.95745449762421        1.23531150094304        0.00673880364010
H            3.81518831284440        2.47163796239174        0.01149842387765
H           -0.07049801648773        3.35967314096433       -0.00016581386987
H           -2.28965122417130        4.53262888043830       -0.00443031562051
H           -4.36448235007795        3.13141091549524       -0.00705838183236
H           -4.36458617850062       -3.13125000323968        0.00584188138925
H           -2.28980137307198       -4.53253585794490        0.00361559593743
H           -0.07060884883559       -3.35965369624428       -0.00052573378138
H            3.81510746056044       -2.47174649908476       -0.01166804268132

          :  Hamiltonian                  GFN2-xTB          :
         :: gradient norm              0.000081799465 Eh/a0 ::
         :: HOMO-LUMO gap              0.830336732098 eV    ::
         :: SCC energy               -56.283976699229 Eh    ::
         :: -> dispersion             -0.041016991109 Eh    ::
         :: -> Gsolv                  -0.025245447060 Eh    ::
         :: repulsion energy           0.961901288326 Eh    ::

    * Orbital Energies and Occupations

         #    Occupation            Energy/Eh            Energy/eV
      -------------------------------------------------------------
         1        2.0000           -0.6937718             -18.8785
       ...           ...                  ...                  ...
        40        2.0000           -0.4538048             -12.3487
        41        2.0000           -0.4501007             -12.2479
        42        2.0000           -0.4491397             -12.2217
        43        2.0000           -0.4487561             -12.2113
        44        2.0000           -0.4440466             -12.0831
        45        2.0000           -0.4413359             -12.0094
        46        2.0000           -0.4201689             -11.4334
        47        2.0000           -0.4130096             -11.2386
        48        2.0000           -0.4010067             -10.9119
        49        1.9923           -0.3786803             -10.3044
        50        1.9758           -0.3775755             -10.2744
        51        1.0319           -0.3708207             -10.0905
        52        1.0000           -0.3185525              -8.6683 (HOMO)
        53        0.0000           -0.2880384              -7.8379 (LUMO)
        54                         -0.2798153              -7.6142
        55                         -0.2401690              -6.5353
        56                         -0.2327986              -6.3348
        57                         -0.2137581              -5.8167
        58                         -0.2121776              -5.7736
        59                         -0.1673552              -4.5540
        60                         -0.1286967              -3.5020
        61                         -0.0955631              -2.6004
        62                         -0.0554410              -1.5086
        63                          0.0727874               1.9806
       ...                                ...                  ...
        98                          0.6984382              19.0055
      -------------------------------------------------------------
                  HL-Gap            0.0305141 Eh            0.8303 eV

     #   Z          covCN         q      C6AA      α(0)
     1   6 C        2.916    -0.032    28.795     8.799
     2   6 C        2.916    -0.032    28.795     8.799
     3   6 C        2.918    -0.054    29.336     8.882
     4   6 C        2.938     0.088    26.036     8.368
     5   7 N        1.849    -0.216    26.558     7.638
     6   6 C        2.937     0.079    26.233     8.400
     7   6 C        2.982    -0.018    28.445     8.749
     8   6 C        2.927    -0.012    28.313     8.726
     9   6 C        2.911    -0.041    29.015     8.833
    10   6 C        2.902     0.061    26.638     8.463
    11   7 N        1.841    -0.206    26.320     7.603
    12   6 C        2.967     0.078    26.260     8.406
    13   6 C        2.967     0.078    26.260     8.406
    14   7 N        1.841    -0.206    26.320     7.603
    15   6 C        2.902     0.061    26.638     8.463
    16   6 C        2.911    -0.041    29.015     8.833
    17   6 C        2.927    -0.012    28.313     8.726
    18   6 C        2.982    -0.018    28.445     8.749
    19   6 C        2.937     0.079    26.233     8.400
    20   7 N        1.849    -0.216    26.558     7.638
    21   6 C        2.938     0.088    26.036     8.368
    22   6 C        2.918    -0.054    29.336     8.882
    23   1 H        0.926     0.049     2.333     2.389
    24   1 H        0.926     0.049     2.333     2.389
    25   1 H        0.926     0.055     2.254     2.348
    26   1 H        0.926     0.058     2.219     2.329
    27   1 H        0.926     0.058     2.224     2.332
    28   1 H        0.925     0.053     2.288     2.365
    29   1 H        0.925     0.053     2.288     2.365
    30   1 H        0.926     0.058     2.224     2.332
    31   1 H        0.926     0.058     2.219     2.329
    32   1 H        0.926     0.055     2.254     2.348

molecular dipole:
                 x           y           z       tot (Debye)
 q only:        0.569      -0.000       0.000
   full:        1.128      -0.000       0.000       2.866

 projected vibrational frequencies (cm⁻¹)
eigval :       -0.00    -0.00     0.00     0.00     0.00     0.00
eigval :       44.95    55.72    80.38   108.56   132.30   154.74
eigval :      186.40   197.50   271.80   274.13   299.88   333.50
eigval :      359.42   391.25   396.47   417.06   433.89   450.10
eigval :      506.88   517.84   524.03   524.05   539.48   569.71
eigval :      573.64   592.74   628.97   669.70   671.25   689.05
eigval :      698.74   735.99   759.08   774.63   785.93   789.43
eigval :      809.19   832.08   845.69   875.24   902.60   903.12
eigval :      903.94   909.81   915.98   916.51  1025.76  1051.10
eigval :     1072.69  1079.95  1088.20  1118.94  1124.14  1125.72
eigval :     1164.50  1178.72  1209.68  1220.10  1227.95  1246.79
eigval :     1257.58  1259.80  1278.65  1300.04  1323.44  1335.46
eigval :     1343.68  1362.88  1383.58  1387.38  1416.62  1425.08
eigval :     1456.99  1474.53  1493.26  1494.89  1533.41  1545.51
eigval :     1549.70  1566.65  3055.34  3055.61  3073.39  3073.73
eigval :     3085.83  3087.74  3094.25  3101.03  3101.19  3103.54

   temp. (K)  partition function   enthalpy   heat capacity  entropy
                                   cal/mol     cal/K/mol   cal/K/mol   J/K/mol
 298.15  VIB  0.448E+05             8042.137     57.801     46.828
         ROT  0.320E+07              888.752      2.981     32.750
         INT  0.143E+12             8930.890     60.782     79.578
         TR   0.459E+28             1481.254      4.968     42.792
         TOT                       10412.1435    65.7501   122.3699   511.9957

       T/K    H(0)-H(T)+PV         H(T)/Eh          T*S/Eh         G(T)/Eh
   ------------------------------------------------------------------------
    298.15    0.165928E-01    0.244201E+00    0.581419E-01    0.186059E+00
   ------------------------------------------------------------------------

         :::::::::::::::::::::::::::::::::::::::::::::::::::::
         ::                  THERMODYNAMIC                  ::
         :::::::::::::::::::::::::::::::::::::::::::::::::::::
         :: total free energy         -55.136016377014 Eh   ::
         ::.................................................::
         :: total energy              -55.322075410791 Eh   ::
         :: zero point energy           0.227608118625 Eh   ::
         :: G(RRHO) w/o ZPVE           -0.041549084849 Eh   ::
         :: G(RRHO) contrib.            0.186059033776 Eh   ::
         :::::::::::::::::::::::::::::::::::::::::::::::::::::

           -------------------------------------------------
          | TOTAL ENERGY              -55.322075410791 Eh   |
          | TOTAL ENTHALPY            -55.077874485251 Eh   |
          | TOTAL FREE ENERGY         -55.136016377014 Eh   |
          | GRADIENT NORM               0.000081328887 Eh/α |
          | HOMO-LUMO GAP               0.830331325603 eV   |
           -------------------------------------------------

 * finished run on 2025/09/04 at 18:58:23.102
