   * xtb version 6.7.1 (edcfbbe) compiled by 'albert@albert-system' on 2024-07-22

   ID    Z sym.   atoms
    1    6 C      1-25
    2    1 H      26-45

          program call               : xtb data2507/toluene/CMP/CMP_toluene_S0_finalOpt.xtbopt.xyz --gfn 2 --uhf 2 --gbsa toluene --ohess vtight --parallel 40 --molden --ceasefiles --namespace data2507/toluene/CMP/CMP_toluene_T1_preOpt
      * Solvation model:               GBSA
        Solvent                        toluene
        Solvent mass                       9.2140E+01 g/mol
          :  Hamiltonian                  GFN2-xTB          :
 * total energy  :   -63.5636130 Eh     change       -0.1314191E-08 Eh
 * total energy  :   -63.5704097 Eh     change       -0.6796742E-02 Eh
 * total energy  :   -63.5721823 Eh     change       -0.1772620E-02 Eh
 * total energy  :   -63.5726059 Eh     change       -0.4235553E-03 Eh
 * total energy  :   -63.5729577 Eh     change       -0.3517495E-03 Eh
 * total energy  :   -63.5732948 Eh     change       -0.3371860E-03 Eh
 * total energy  :   -63.5741924 Eh     change       -0.8975449E-03 Eh
 * total energy  :   -63.5779271 Eh     change       -0.3734763E-02 Eh
 * total energy  :   -63.5822095 Eh     change       -0.4282349E-02 Eh
 * total energy  :   -63.5870640 Eh     change       -0.4854491E-02 Eh
 * total energy  :   -63.6000264 Eh     change       -0.1166012E-05 Eh
 * total energy  :   -63.6000269 Eh     change       -0.5371217E-06 Eh
 * total energy  :   -63.6000269 Eh     change       -0.2478424E-07 Eh
 * total energy  :   -63.6000273 Eh     change       -0.4155195E-06 Eh
 * total energy  :   -63.6000277 Eh     change       -0.3548149E-06 Eh
 * total energy  :   -63.6000281 Eh     change       -0.3888753E-06 Eh
 * total energy  :   -63.6000285 Eh     change       -0.4097278E-06 Eh
 * total energy  :   -63.6000288 Eh     change       -0.3112313E-06 Eh
 * total energy  :   -63.6000289 Eh     change       -0.6138789E-07 Eh
   *** GEOMETRY OPTIMIZATION CONVERGED AFTER 42 ITERATIONS ***

 final structure:
================
45
 xtb: 6.7.1 (edcfbbe)
C            2.68952739100023       -1.76988624580874       -2.93854087030998
C            2.27349196443785       -2.50794083986828       -1.84249352982155
C            1.43680489320863       -1.94087602241961       -0.89844864780785
C            0.99979624541880       -0.62761793921645       -1.04305337319945
C            0.13966402268179        0.00025608153585        0.00021586534682
C           -1.18504202074922       -0.67903403103333        0.40535622758541
C           -1.56864722508863       -1.90865311658120       -0.29031906194037
C           -2.20224951227356       -2.93051745777909        0.34835429106235
C           -2.54203519911403       -2.85051914904464        1.70401841388439
C           -2.21277671150226       -1.68916827041011        2.41284369050848
C           -1.57823460545767       -0.64340570135220        1.81497389957340
C            0.99596485375486        0.62662667164694        1.04752958040042
C            1.43599221339098        1.93910340164451        0.90498436393568
C            2.26937740148202        2.50462176183800        1.85287053816439
C            2.67910113951733        1.76575347002791        2.95074600462482
C            2.25409409331068        0.45505299839301        3.09307486977146
C            1.42073176133828       -0.11338935711155        2.14678089380251
C           -1.18204555201619        0.68163416625065       -0.41104793292547
C           -1.56693214850508        1.91186865277830        0.28283200704758
C           -2.19688091737293        2.93430820999411       -0.35851258820495
C           -2.53129678808973        2.85446970446396       -1.71548319676484
C           -2.20007673342733        1.69282648829927       -2.42291991080573
C           -1.56902313906145        0.64650322301544       -1.82238365282692
C            1.43102695627379        0.11161007756775       -2.14031195764605
C            2.26762451762317       -0.45840401916756       -3.08280452976418
H            3.34099272171259       -2.21466080425144       -3.67658949854877
H            2.60071744311868       -3.53067637146238       -1.72215324187031
H            1.11067821472035       -2.51892394081992       -0.04614044363123
H           -1.31259006180095       -2.01226386686073       -1.33184502940882
H           -2.45337245376732       -3.82369201733631       -0.20717722032002
H           -3.05379550489926       -3.66484049142871        2.19113780885451
H           -2.47338596195703       -1.61801693320528        3.45995165012510
H           -1.33190925902996        0.22962967044315        2.39651456513286
H            1.11486839575072        2.51776202686684        0.05119339776973
H            2.59908690391200        3.52671858784054        1.73401304539816
H            3.32814910084522        2.20927513274525        3.69167041972891
H            2.57256895135166       -0.12817258418931        3.94515421025380
H            1.08863811766537       -1.13505089555956        2.26071730315164
H           -1.31510802008346        2.01526373147885        1.32544534232912
H           -2.44944051723033        3.82773659580931        0.19593532121891
H           -3.04009645542569        3.66940120474904       -2.20483875089255
H           -2.45577204143974        1.62220203956614       -3.47130941816021
H           -1.32081701103280       -0.22663615985762       -2.40294310269780
H            1.10139841748724        1.13389845374199       -2.25574812378802
H            2.59104313898073        0.12422255684997       -3.93343194223420

          :  Hamiltonian                  GFN2-xTB          :
         :: gradient norm              0.000175879493 Eh/a0 ::
         :: HOMO-LUMO gap              1.451422184118 eV    ::
         :: SCC energy               -64.814102790980 Eh    ::
         :: -> dispersion             -0.059829273750 Eh    ::
         :: -> Gsolv                  -0.024341562318 Eh    ::
         :: repulsion energy           1.214073922792 Eh    ::

    * Orbital Energies and Occupations

         #    Occupation            Energy/Eh            Energy/eV
      -------------------------------------------------------------
         1        2.0000           -0.6656452             -18.1131
       ...           ...                  ...                  ...
        49        2.0000           -0.4257376             -11.5849
        50        2.0000           -0.4231465             -11.5144
        51        2.0000           -0.4199071             -11.4263
        52        2.0000           -0.4110689             -11.1858
        53        2.0000           -0.4109465             -11.1824
        54        2.0000           -0.4070809             -11.0772
        55        2.0000           -0.4066137             -11.0645
        56        2.0000           -0.4060816             -11.0500
        57        2.0000           -0.4035400             -10.9809
        58        2.0000           -0.4013529             -10.9214
        59        2.0000           -0.3925232             -10.6811
        60        1.0000           -0.3236296              -8.8064
        61        1.0000           -0.2867274              -7.8022 (HOMO)
        62                         -0.2333886              -6.3508 (LUMO)
        63                         -0.2252869              -6.1304
        64                         -0.2246273              -6.1124
        65                         -0.2189210              -5.9571
        66                         -0.2160433              -5.8788
        67                         -0.2099877              -5.7141
        68                         -0.1508679              -4.1053
        69                         -0.1224555              -3.3322
        70                         -0.0995546              -2.7090
        71                         -0.0900602              -2.4507
        72                         -0.0185581              -0.5050
       ...                                ...                  ...
       120                          0.6640997              18.0711
      -------------------------------------------------------------
                  HL-Gap            0.0533388 Eh            1.4514 eV

     #   Z          covCN         q      C6AA      α(0)
     1   6 C        2.919    -0.033    28.817     8.803
     2   6 C        2.919    -0.030    28.753     8.793
     3   6 C        2.923    -0.034    28.842     8.807
     4   6 C        2.979     0.013    27.727     8.637
     5   6 C        3.921     0.018    20.216     6.390
     6   6 C        3.912     0.029    20.022     6.360
     7   6 C        2.909    -0.042    29.052     8.838
     8   6 C        2.907    -0.032    28.793     8.799
     9   6 C        2.915    -0.048    29.196     8.860
    10   6 C        2.907    -0.032    28.793     8.799
    11   6 C        2.909    -0.042    29.052     8.838
    12   6 C        2.979     0.013    27.727     8.637
    13   6 C        2.923    -0.034    28.842     8.807
    14   6 C        2.919    -0.030    28.753     8.793
    15   6 C        2.919    -0.033    28.817     8.803
    16   6 C        2.919    -0.030    28.753     8.793
    17   6 C        2.923    -0.034    28.842     8.807
    18   6 C        3.912     0.029    20.022     6.360
    19   6 C        2.909    -0.042    29.052     8.838
    20   6 C        2.907    -0.032    28.793     8.799
    21   6 C        2.915    -0.048    29.195     8.860
    22   6 C        2.907    -0.032    28.793     8.799
    23   6 C        2.909    -0.042    29.052     8.838
    24   6 C        2.923    -0.034    28.842     8.807
    25   6 C        2.919    -0.030    28.753     8.793
    26   1 H        0.926     0.033     2.541     2.493
    27   1 H        0.926     0.034     2.531     2.488
    28   1 H        0.926     0.033     2.541     2.493
    29   1 H        0.926     0.029     2.604     2.523
    30   1 H        0.925     0.028     2.615     2.529
    31   1 H        0.926     0.025     2.655     2.548
    32   1 H        0.925     0.028     2.615     2.529
    33   1 H        0.926     0.029     2.602     2.523
    34   1 H        0.926     0.033     2.541     2.493
    35   1 H        0.926     0.034     2.531     2.488
    36   1 H        0.926     0.033     2.541     2.493
    37   1 H        0.926     0.034     2.531     2.488
    38   1 H        0.926     0.033     2.541     2.493
    39   1 H        0.926     0.029     2.604     2.523
    40   1 H        0.925     0.028     2.615     2.529
    41   1 H        0.926     0.025     2.655     2.548
    42   1 H        0.925     0.028     2.615     2.529
    43   1 H        0.926     0.029     2.602     2.523
    44   1 H        0.926     0.033     2.541     2.493
    45   1 H        0.926     0.034     2.531     2.488

molecular dipole:
                 x           y           z       tot (Debye)
 q only:        0.462      -0.000       0.001
   full:        0.491      -0.000       0.001       1.247

 projected vibrational frequencies (cm⁻¹)
eigval :       -0.00    -0.00    -0.00    -0.00     0.00     0.00
eigval :       39.32    44.48    45.04    53.46    61.78    65.97
eigval :       84.20   128.80   150.37   153.40   209.31   247.96
eigval :      260.78   266.77   268.02   269.72   298.22   365.39
eigval :      376.73   377.73   392.45   399.04   421.29   442.91
eigval :      452.47   507.17   555.94   567.25   576.36   584.50
eigval :      587.16   588.56   593.96   637.01   662.09   662.60
eigval :      676.45   687.51   707.88   730.35   745.38   763.03
eigval :      767.33   783.30   790.76   808.12   817.04   870.66
eigval :      877.13   894.84   897.57   904.10   904.35   908.96
eigval :      910.25   913.71   918.31   925.14   928.94   929.42
eigval :      931.40   933.39   935.10   987.20   997.25  1003.42
eigval :     1052.55  1066.17  1082.81  1084.85  1108.15  1117.47
eigval :     1122.95  1125.96  1166.50  1166.98  1168.91  1181.45
eigval :     1182.26  1194.41  1199.32  1202.07  1231.91  1256.71
eigval :     1257.91  1273.97  1278.08  1279.91  1286.54  1312.15
eigval :     1315.84  1327.17  1336.42  1384.37  1389.55  1392.69
eigval :     1410.66  1426.66  1430.48  1468.11  1469.37  1496.43
eigval :     1503.06  1574.97  1575.28  1577.68  1578.36  1590.23
eigval :     1594.92  3061.12  3061.49  3062.10  3062.91  3068.90
eigval :     3069.26  3070.45  3071.31  3079.16  3080.55  3082.58
eigval :     3084.50  3090.18  3091.42  3097.89  3099.74  3100.04
eigval :     3104.61  3109.63  3113.40

   temp. (K)  partition function   enthalpy   heat capacity  entropy
                                   cal/mol     cal/K/mol   cal/K/mol   J/K/mol
 298.15  VIB  0.315E+08            11202.837     75.939     67.922
         ROT  0.397E+07              888.752      2.981     33.174
         INT  0.125E+15            12091.589     78.920    101.096
         TR   0.555E+28             1481.254      4.968     43.169
         TOT                       13572.8431    83.8883   144.2657   603.6076

       T/K    H(0)-H(T)+PV         H(T)/Eh          T*S/Eh         G(T)/Eh
   ------------------------------------------------------------------------
    298.15    0.216297E-01    0.377366E+00    0.685453E-01    0.308820E+00
   ------------------------------------------------------------------------

         :::::::::::::::::::::::::::::::::::::::::::::::::::::
         ::                  THERMODYNAMIC                  ::
         :::::::::::::::::::::::::::::::::::::::::::::::::::::
         :: total free energy         -63.291208612227 Eh   ::
         ::.................................................::
         :: total energy              -63.600028868512 Eh   ::
         :: zero point energy           0.355735828806 Eh   ::
         :: G(RRHO) w/o ZPVE           -0.046915572522 Eh   ::
         :: G(RRHO) contrib.            0.308820256284 Eh   ::
         :::::::::::::::::::::::::::::::::::::::::::::::::::::

           -------------------------------------------------
          | TOTAL ENERGY              -63.600028868512 Eh   |
          | TOTAL ENTHALPY            -63.222663337436 Eh   |
          | TOTAL FREE ENERGY         -63.291208612227 Eh   |
          | GRADIENT NORM               0.000175943191 Eh/α |
          | HOMO-LUMO GAP               1.451422181915 eV   |
           -------------------------------------------------

 * finished run on 2025/09/10 at 05:09:40.903
