   * xtb version 6.7.1 (edcfbbe) compiled by 'albert@albert-system' on 2024-07-22

   ID    Z sym.   atoms
    1    6 C      1-25
    2    1 H      26-45

          program call               : xtb data2507/toluene/CMP/CMP.xyz --gfn 2 --gbsa toluene --ohess vtight --parallel 40 --molden --ceasefiles --namespace data2507/toluene/CMP/CMP_toluene_S0_preOpt
      * Solvation model:               GBSA
        Solvent                        toluene
        Solvent mass                       9.2140E+01 g/mol
          :  Hamiltonian                  GFN2-xTB          :
 * total energy  :   -63.6970319 Eh     change       -0.5869083E-09 Eh
 * total energy  :   -63.7090559 Eh     change       -0.1202402E-01 Eh
 * total energy  :   -63.7135793 Eh     change       -0.4523437E-02 Eh
 * total energy  :   -63.7141214 Eh     change       -0.5420638E-03 Eh
 * total energy  :   -63.7141950 Eh     change       -0.7361493E-04 Eh
 * total energy  :   -63.7142136 Eh     change       -0.1864405E-04 Eh
 * total energy  :   -63.7142238 Eh     change       -0.1012312E-04 Eh
 * total energy  :   -63.7142318 Eh     change       -0.8077738E-05 Eh
 * total energy  :   -63.7142399 Eh     change       -0.8025535E-05 Eh
 * total energy  :   -63.7142464 Eh     change       -0.6514100E-05 Eh
 * total energy  :   -63.7142804 Eh     change       -0.1242238E-06 Eh
 * total energy  :   -63.7142806 Eh     change       -0.1252441E-06 Eh
 * total energy  :   -63.7142807 Eh     change       -0.1262671E-06 Eh
 * total energy  :   -63.7142808 Eh     change       -0.1292494E-06 Eh
 * total energy  :   -63.7142809 Eh     change       -0.1328606E-06 Eh
 * total energy  :   -63.7142811 Eh     change       -0.1339240E-06 Eh
 * total energy  :   -63.7142812 Eh     change       -0.1356971E-06 Eh
 * total energy  :   -63.7142814 Eh     change       -0.1404936E-06 Eh
 * total energy  :   -63.7142814 Eh     change       -0.3635158E-08 Eh
   *** GEOMETRY OPTIMIZATION CONVERGED AFTER 44 ITERATIONS ***

 final structure:
================
45
 xtb: 6.7.1 (edcfbbe)
C            2.88973017713080       -3.04418465828417       -1.00307001953284
C            2.43775617754105       -2.16243070743502       -1.96987642664490
C            1.49250038182438       -1.20350342183555       -1.65222254596713
C            0.96721005154701       -1.11841701575672       -0.36719404734393
C           -0.00000493140597       -0.00000131593087       -0.00000010404463
C           -0.96734623077584        0.36719599617021       -1.11829759146966
C           -1.49263920222473        1.65223026631275       -1.20330018452091
C           -2.43793334832601        1.96992943489719       -2.16217396063837
C           -2.88995753735040        1.00315934922954       -3.04394196268897
C           -2.39782744723214       -0.28694551582192       -2.94723910583530
C           -1.45225110107649       -0.60350077932379       -1.98784201721137
C           -0.96724885601039       -0.36711855283365        1.11840336138194
C           -1.49265641135178       -1.65210240395679        1.20344584371382
C           -2.43791562774183       -1.96971194789810        2.16238190502253
C           -2.88977354145553       -1.00290395014198        3.04419386494699
C           -2.39752282079553        0.28715264751799        2.94746045632944
C           -1.45199364325986        0.60362215983131        1.98798907295793
C            0.96732992239986        1.11833784027914        0.36710301306106
C            1.49275857964235        1.20337098009574        1.65207978522237
C            2.43813033611076        2.16221280947149        1.96964413928473
C            2.89008298093193        3.04393413261236        1.00279783485186
C            2.39781957519345        2.94719975652404       -0.28725407041851
C            1.45217001469057        1.98783147938461       -0.60367342335550
C            1.45206332753632       -1.98795543190859        0.60353768808470
C            2.39759726991492       -2.94740855131869        0.28702850919227
H            3.62711901895317       -3.79386272401708       -1.25069749459331
H            2.82617573234096       -2.21667199083057       -2.97690661633116
H            1.16009125074123       -0.51532586510642       -2.41534954838662
H           -1.16015235440167        2.41534286714450       -0.51514480399620
H           -2.82640959150872        2.97694340505416       -2.21630275899157
H           -3.62747871185022        1.25078892208445       -3.79348897295547
H           -2.75508831358568       -1.05496491721373       -3.61838212475556
H           -1.08861126623414       -1.61813126247170       -1.91906888193388
H           -1.16033637743993       -2.41522896680036        0.51522454130987
H           -2.82647519941168       -2.97669253791625        2.21654666752340
H           -3.62721597563712       -1.25047937884139        3.79383693016693
H           -2.75461298554554        1.05518861914214        3.61867629073481
H           -1.08825645886642        1.61821693158921        1.91919635942619
H            1.16038807423748        0.51519850803425        2.41522830220651
H            2.82665182808740        2.21641928239071        2.97663737847623
H            3.62753667635625        3.79356919635697        1.25036324859708
H            2.75494053492707        3.61837901033541       -1.05530805695867
H            1.08844740508495        1.91900895468198       -1.61827150520420
H            1.08844586583771       -1.91909670697102        1.61817060824811
H            2.75476175245835       -3.61859194652576        1.05505842304031

          :  Hamiltonian                  GFN2-xTB          :
         :: gradient norm              0.000047003718 Eh/a0 ::
         :: HOMO-LUMO gap              4.076815883164 eV    ::
         :: SCC energy               -64.958182680005 Eh    ::
         :: -> dispersion             -0.060635263713 Eh    ::
         :: -> Gsolv                  -0.024369524047 Eh    ::
         :: repulsion energy           1.243901320034 Eh    ::

    * Orbital Energies and Occupations

         #    Occupation            Energy/Eh            Energy/eV
      -------------------------------------------------------------
         1        2.0000           -0.6524776             -17.7548
       ...           ...                  ...                  ...
        48        2.0000           -0.4262258             -11.5982
        49        2.0000           -0.4199176             -11.4265
        50        2.0000           -0.4188786             -11.3983
        51        2.0000           -0.4154062             -11.3038
        52        2.0000           -0.4154039             -11.3037
        53        2.0000           -0.4123242             -11.2199
        54        2.0000           -0.4033853             -10.9767
        55        2.0000           -0.4033851             -10.9767
        56        2.0000           -0.4023839             -10.9494
        57        2.0000           -0.3987066             -10.8494
        58        2.0000           -0.3944735             -10.7342
        59        2.0000           -0.3844068             -10.4602
        60        2.0000           -0.3844031             -10.4601 (HOMO)
        61                         -0.2345829              -6.3833 (LUMO)
        62                         -0.2306491              -6.2763
        63                         -0.2229369              -6.0664
        64                         -0.2229362              -6.0664
        65                         -0.2217841              -6.0351
        66                         -0.2151450              -5.8544
        67                         -0.2087262              -5.6797
        68                         -0.2087247              -5.6797
        69                         -0.0990598              -2.6956
        70                         -0.0981215              -2.6700
        71                         -0.0828662              -2.2549
       ...                                ...                  ...
       120                          0.6675256              18.1643
      -------------------------------------------------------------
                  HL-Gap            0.1498202 Eh            4.0768 eV

     #   Z          covCN         q      C6AA      α(0)
     1   6 C        2.919    -0.034    28.853     8.808
     2   6 C        2.919    -0.032    28.800     8.800
     3   6 C        2.924    -0.036    28.891     8.815
     4   6 C        2.997     0.015    27.661     8.627
     5   6 C        3.919     0.006    20.409     6.421
     6   6 C        2.997     0.015    27.661     8.627
     7   6 C        2.924    -0.036    28.891     8.815
     8   6 C        2.919    -0.032    28.800     8.800
     9   6 C        2.919    -0.034    28.853     8.808
    10   6 C        2.919    -0.032    28.800     8.800
    11   6 C        2.924    -0.036    28.892     8.815
    12   6 C        2.997     0.015    27.661     8.627
    13   6 C        2.924    -0.036    28.891     8.815
    14   6 C        2.919    -0.032    28.800     8.800
    15   6 C        2.919    -0.034    28.853     8.808
    16   6 C        2.919    -0.032    28.800     8.800
    17   6 C        2.924    -0.036    28.892     8.815
    18   6 C        2.997     0.015    27.661     8.627
    19   6 C        2.924    -0.036    28.891     8.815
    20   6 C        2.919    -0.032    28.800     8.800
    21   6 C        2.919    -0.034    28.853     8.808
    22   6 C        2.919    -0.032    28.800     8.800
    23   6 C        2.924    -0.036    28.892     8.815
    24   6 C        2.924    -0.036    28.892     8.815
    25   6 C        2.919    -0.032    28.800     8.800
    26   1 H        0.926     0.030     2.591     2.517
    27   1 H        0.926     0.030     2.586     2.515
    28   1 H        0.926     0.032     2.561     2.502
    29   1 H        0.926     0.032     2.561     2.502
    30   1 H        0.926     0.030     2.586     2.515
    31   1 H        0.926     0.030     2.591     2.517
    32   1 H        0.926     0.030     2.585     2.514
    33   1 H        0.926     0.032     2.562     2.503
    34   1 H        0.926     0.032     2.561     2.502
    35   1 H        0.926     0.030     2.586     2.515
    36   1 H        0.926     0.030     2.591     2.517
    37   1 H        0.926     0.030     2.585     2.514
    38   1 H        0.926     0.032     2.562     2.503
    39   1 H        0.926     0.032     2.561     2.502
    40   1 H        0.926     0.030     2.586     2.515
    41   1 H        0.926     0.030     2.591     2.517
    42   1 H        0.926     0.030     2.585     2.514
    43   1 H        0.926     0.032     2.562     2.503
    44   1 H        0.926     0.032     2.562     2.503
    45   1 H        0.926     0.030     2.585     2.514

molecular dipole:
                 x           y           z       tot (Debye)
 q only:        0.000       0.000      -0.000
   full:       -0.000       0.000      -0.000       0.000

 projected vibrational frequencies (cm⁻¹)
eigval :       -0.00    -0.00    -0.00    -0.00     0.00     0.00
eigval :      -19.64    48.91    54.66    59.52    82.68    82.68
eigval :       95.95    95.96   117.39   215.82   215.82   241.71
eigval :      248.65   263.04   282.17   292.33   292.33   334.84
eigval :      366.69   387.40   387.40   391.18   451.99   451.99
eigval :      482.19   521.94   587.18   587.18   587.20   589.83
eigval :      591.87   614.69   614.70   665.53   665.53   679.14
eigval :      684.41   697.26   746.46   746.46   759.65   773.50
eigval :      873.59   883.23   884.66   884.66   898.91   898.91
eigval :      901.94   911.04   911.04   915.60   915.97   927.14
eigval :      931.09   931.09   933.40   936.68   940.26   941.98
eigval :      941.98   979.67   997.77   997.77  1002.75  1087.03
eigval :     1087.03  1088.88  1090.94  1119.03  1124.04  1130.16
eigval :     1130.16  1179.85  1179.90  1180.06  1181.20  1181.20
eigval :     1197.03  1197.03  1207.75  1213.24  1213.24  1214.17
eigval :     1266.19  1273.70  1285.08  1292.99  1292.99  1310.59
eigval :     1320.19  1320.19  1320.85  1421.92  1433.85  1433.85
eigval :     1434.77  1469.80  1469.80  1473.22  1480.37  1580.27
eigval :     1586.64  1586.65  1588.31  1597.53  1597.53  1599.06
eigval :     1601.67  3066.98  3066.99  3067.18  3067.41  3069.13
eigval :     3069.80  3070.24  3070.24  3079.03  3079.04  3080.19
eigval :     3080.98  3082.30  3084.16  3086.27  3086.27  3089.64
eigval :     3089.64  3090.81  3092.90

   temp. (K)  partition function   enthalpy   heat capacity  entropy
                                   cal/mol     cal/K/mol   cal/K/mol   J/K/mol
 298.15  VIB  0.255E+08            10908.782     74.101     66.516
         ROT  0.405E+07              888.752      2.981     33.217
         INT  0.103E+15            11797.534     77.082     99.733
         TR   0.555E+28             1481.254      4.968     43.169
         TOT                       13278.7882    82.0502   142.9026   597.9045

       T/K    H(0)-H(T)+PV         H(T)/Eh          T*S/Eh         G(T)/Eh
   ------------------------------------------------------------------------
    298.15    0.211611E-01    0.381170E+00    0.678976E-01    0.313273E+00
   ------------------------------------------------------------------------

         :::::::::::::::::::::::::::::::::::::::::::::::::::::
         ::                  THERMODYNAMIC                  ::
         :::::::::::::::::::::::::::::::::::::::::::::::::::::
         :: total free energy         -63.401008736437 Eh   ::
         ::.................................................::
         :: total energy              -63.714281360323 Eh   ::
         :: zero point energy           0.360009164182 Eh   ::
         :: G(RRHO) w/o ZPVE           -0.046736540296 Eh   ::
         :: G(RRHO) contrib.            0.313272623886 Eh   ::
         :::::::::::::::::::::::::::::::::::::::::::::::::::::

           -------------------------------------------------
          | TOTAL ENERGY              -63.714281360323 Eh   |
          | TOTAL ENTHALPY            -63.333111100174 Eh   |
          | TOTAL FREE ENERGY         -63.401008736437 Eh   |
          | GRADIENT NORM               0.000047003439 Eh/α |
          | HOMO-LUMO GAP               4.076815863330 eV   |
           -------------------------------------------------

 * finished run on 2025/09/10 at 05:08:30.297
