   * xtb version 6.7.1 (edcfbbe) compiled by 'albert@albert-system' on 2024-07-22

   ID    Z sym.   atoms
    1    6 C      1-25
    2    1 H      26-45

          program call               : xtb data2507/toluene/CMP/CMP_toluene_T1_crest.xyz --gfn 2 --uhf 2 --gbsa toluene --ohess vtight --parallel 40 --molden --ceasefiles --namespace data2507/toluene/CMP/CMP_toluene_T1_finalOpt
      * Solvation model:               GBSA
        Solvent                        toluene
        Solvent mass                       9.2140E+01 g/mol
          :  Hamiltonian                  GFN2-xTB          :
 * total energy  :   -63.6000072 Eh     change       -0.1583544E-08 Eh
 * total energy  :   -63.6000320 Eh     change       -0.2481939E-04 Eh
 * total energy  :   -63.6000369 Eh     change       -0.4919536E-05 Eh
 * total energy  :   -63.6000385 Eh     change       -0.1537838E-05 Eh
 * total energy  :   -63.6000391 Eh     change       -0.6155811E-06 Eh
 * total energy  :   -63.6000396 Eh     change       -0.5563654E-06 Eh
 * total energy  :   -63.6000401 Eh     change       -0.4886653E-06 Eh
 * total energy  :   -63.6000404 Eh     change       -0.2792679E-06 Eh
 * total energy  :   -63.6000405 Eh     change       -0.1516225E-06 Eh
 * total energy  :   -63.6000407 Eh     change       -0.1534187E-06 Eh
 * total energy  :   -63.6000409 Eh     change       -0.1739709E-06 Eh
 * total energy  :   -63.6000411 Eh     change       -0.1937669E-06 Eh
 * total energy  :   -63.6000412 Eh     change       -0.1682052E-06 Eh
 * total energy  :   -63.6000413 Eh     change       -0.1025576E-06 Eh
 * total energy  :   -63.6000414 Eh     change       -0.5070807E-07 Eh
   *** GEOMETRY OPTIMIZATION CONVERGED AFTER 15 ITERATIONS ***

 final structure:
================
45
 xtb: 6.7.1 (edcfbbe)
C            2.75122269651944       -3.38418980217908       -0.00414479765819
C            2.32966384811389       -2.83199237104746        1.19438047306846
C            1.47475714077348       -1.74473127685361        1.19741723810146
C            1.02461169975729       -1.19980577040464       -0.00131983326249
C            0.14436566777614        0.00331190835356       -0.00013960465069
C           -1.17593198855529       -0.01854395564260        0.79813875162773
C           -1.53660975115781       -1.25177906725973        1.49964088035472
C           -2.15868845230092       -1.23664349997064        2.71057448210477
C           -2.50898952451648       -0.03686783572585        3.34100366548924
C           -2.20278221769690        1.17187954165030        2.70484224477142
C           -1.58150445302232        1.20397781333463        1.49381185284376
C            0.98131478200964        1.23690960054075       -0.00601748062543
C            1.40381248971395        1.79573710935368       -1.20841112199507
C            2.22225662209829        2.91067284514739       -1.21239740068093
C            2.63387316970524        3.47773506104821       -0.01736695411534
C            2.22580510514775        2.92020798200448        1.18333259181656
C            1.40751234122032        1.80515414685172        1.19061887034893
C           -1.18198660427509       -0.02219450388293       -0.78829315366949
C           -1.59119430757728        1.19725048708501       -1.48722315912613
C           -2.22136951157610        1.15970802554123       -2.69347711510552
C           -2.53407318749177       -0.05193412056201       -3.32094089620135
C           -2.18064020066557       -1.24888357661338       -2.68691839664757
C           -1.54929518984537       -1.25856439534943       -1.48071732279379
C            1.46175887432963       -1.75194706144594       -1.20157015137924
C            2.31663426745439       -2.83923658888603       -1.20131394990195
H            3.41730412889996       -4.23462831708161       -0.00519230105543
H            2.66784916984157       -3.24962897023296        2.13179014476921
H            1.14483209203514       -1.31711790477442        2.13292271776243
H           -1.27231132913038       -2.19532011380637        1.05138284871863
H           -2.39279597676748       -2.17515071972186        3.19413038946379
H           -3.01057910227660       -0.04379471141135        4.29530920532983
H           -2.47138021152707        2.10346037424648        3.18384502528445
H           -1.35251371629154        2.15439872545672        1.04069553339880
H            1.08159163429260        1.35647001655903       -2.14119463912646
H            2.53964149357392        3.33836538258993       -2.15254103716248
H            3.27159334271160        4.34962547591101       -0.02178763725894
H            2.54571780284832        3.35548643590400        2.11913232970481
H            1.08830020667890        1.37316766455718        2.12782751501879
H           -1.35693993993203        2.14969932293782       -1.04107673550996
H           -2.49214336587741        2.08915016098546       -3.17539648221002
H           -3.04289298581495       -0.06316689854769       -4.27136762868913
H           -2.41972157630240       -2.18957680522132       -3.16375567715644
H           -1.28312944328013       -2.20011957164730       -1.02941879733983
H            1.12175867982957       -1.32995204639374       -2.13601960646874
H            2.64452348244990       -3.26253026999661       -2.13984923018713

          :  Hamiltonian                  GFN2-xTB          :
         :: gradient norm              0.000040078196 Eh/a0 ::
         :: HOMO-LUMO gap              1.453814897818 eV    ::
         :: SCC energy               -64.814128982021 Eh    ::
         :: -> dispersion             -0.059839061054 Eh    ::
         :: -> Gsolv                  -0.024350776919 Eh    ::
         :: repulsion energy           1.214087589928 Eh    ::

    * Orbital Energies and Occupations

         #    Occupation            Energy/Eh            Energy/eV
      -------------------------------------------------------------
         1        2.0000           -0.6656481             -18.1132
       ...           ...                  ...                  ...
        49        2.0000           -0.4257020             -11.5839
        50        2.0000           -0.4231504             -11.5145
        51        2.0000           -0.4198977             -11.4260
        52        2.0000           -0.4110402             -11.1850
        53        2.0000           -0.4109876             -11.1835
        54        2.0000           -0.4070694             -11.0769
        55        2.0000           -0.4066299             -11.0650
        56        2.0000           -0.4061256             -11.0512
        57        2.0000           -0.4035455             -10.9810
        58        2.0000           -0.4013467             -10.9212
        59        2.0000           -0.3925101             -10.6807
        60        1.0000           -0.3234982              -8.8028
        61        1.0000           -0.2868568              -7.8058 (HOMO)
        62                         -0.2334301              -6.3520 (LUMO)
        63                         -0.2253031              -6.1308
        64                         -0.2246328              -6.1126
        65                         -0.2189005              -5.9566
        66                         -0.2159896              -5.8774
        67                         -0.2100293              -5.7152
        68                         -0.1508459              -4.1047
        69                         -0.1225200              -3.3339
        70                         -0.0996056              -2.7104
        71                         -0.0900312              -2.4499
        72                         -0.0185087              -0.5036
       ...                                ...                  ...
       120                          0.6640694              18.0702
      -------------------------------------------------------------
                  HL-Gap            0.0534267 Eh            1.4538 eV

     #   Z          covCN         q      C6AA      α(0)
     1   6 C        2.919    -0.033    28.817     8.803
     2   6 C        2.919    -0.030    28.753     8.793
     3   6 C        2.923    -0.034    28.842     8.807
     4   6 C        2.979     0.013    27.727     8.637
     5   6 C        3.921     0.018    20.216     6.390
     6   6 C        3.912     0.029    20.022     6.360
     7   6 C        2.909    -0.042    29.052     8.838
     8   6 C        2.907    -0.032    28.793     8.799
     9   6 C        2.915    -0.048    29.196     8.860
    10   6 C        2.907    -0.032    28.793     8.799
    11   6 C        2.909    -0.042    29.051     8.838
    12   6 C        2.979     0.013    27.727     8.637
    13   6 C        2.923    -0.034    28.842     8.807
    14   6 C        2.919    -0.030    28.753     8.793
    15   6 C        2.919    -0.033    28.818     8.803
    16   6 C        2.919    -0.030    28.753     8.793
    17   6 C        2.923    -0.034    28.843     8.807
    18   6 C        3.912     0.029    20.022     6.360
    19   6 C        2.909    -0.042    29.051     8.838
    20   6 C        2.907    -0.032    28.793     8.799
    21   6 C        2.915    -0.048    29.196     8.860
    22   6 C        2.907    -0.032    28.793     8.799
    23   6 C        2.909    -0.042    29.051     8.838
    24   6 C        2.923    -0.034    28.842     8.807
    25   6 C        2.919    -0.030    28.753     8.793
    26   1 H        0.926     0.033     2.541     2.493
    27   1 H        0.926     0.034     2.531     2.488
    28   1 H        0.926     0.033     2.541     2.493
    29   1 H        0.926     0.029     2.604     2.523
    30   1 H        0.925     0.028     2.615     2.529
    31   1 H        0.926     0.025     2.655     2.548
    32   1 H        0.925     0.028     2.615     2.529
    33   1 H        0.926     0.029     2.603     2.523
    34   1 H        0.926     0.033     2.541     2.493
    35   1 H        0.926     0.034     2.531     2.488
    36   1 H        0.926     0.033     2.541     2.493
    37   1 H        0.926     0.034     2.531     2.488
    38   1 H        0.926     0.033     2.541     2.493
    39   1 H        0.926     0.029     2.604     2.523
    40   1 H        0.925     0.028     2.615     2.529
    41   1 H        0.926     0.025     2.655     2.548
    42   1 H        0.925     0.028     2.615     2.529
    43   1 H        0.926     0.029     2.603     2.523
    44   1 H        0.926     0.033     2.541     2.493
    45   1 H        0.926     0.034     2.531     2.488

molecular dipole:
                 x           y           z       tot (Debye)
 q only:        0.462       0.008      -0.002
   full:        0.492       0.009      -0.002       1.251

 projected vibrational frequencies (cm⁻¹)
eigval :       -0.00    -0.00    -0.00    -0.00     0.00     0.00
eigval :       38.30    42.98    44.84    51.02    60.95    64.01
eigval :       84.53   129.77   149.12   153.59   209.47   247.01
eigval :      260.40   266.81   267.29   269.32   298.33   367.15
eigval :      378.80   379.87   391.47   397.40   421.03   443.95
eigval :      451.93   507.20   555.63   567.02   576.19   584.48
eigval :      587.28   588.59   593.52   636.34   661.56   663.11
eigval :      676.43   687.25   706.44   729.05   743.47   761.26
eigval :      767.77   783.02   790.86   806.72   815.39   870.53
eigval :      876.75   892.64   896.98   903.87   905.95   908.90
eigval :      912.02   914.86   918.86   924.45   926.61   929.30
eigval :      929.62   933.03   935.05   987.51   996.40  1003.51
eigval :     1052.45  1066.20  1082.11  1084.16  1107.67  1116.56
eigval :     1122.31  1124.94  1165.45  1165.72  1168.64  1178.98
eigval :     1179.82  1193.12  1199.22  1200.78  1231.77  1256.53
eigval :     1257.73  1273.67  1277.63  1279.77  1285.96  1312.03
eigval :     1315.73  1326.73  1336.11  1384.43  1389.44  1392.55
eigval :     1410.34  1426.57  1430.43  1467.92  1469.02  1496.11
eigval :     1502.75  1575.12  1575.22  1577.63  1578.44  1590.17
eigval :     1594.82  3061.96  3062.34  3062.84  3063.69  3068.24
eigval :     3068.64  3070.36  3071.24  3078.90  3080.41  3082.62
eigval :     3084.74  3089.89  3091.31  3097.70  3099.69  3099.96
eigval :     3104.55  3109.74  3113.51

   temp. (K)  partition function   enthalpy   heat capacity  entropy
                                   cal/mol     cal/K/mol   cal/K/mol   J/K/mol
 298.15  VIB  0.361E+08            11216.264     75.842     67.988
         ROT  0.397E+07              888.752      2.981     33.174
         INT  0.143E+15            12105.016     78.823    101.162
         TR   0.555E+28             1481.254      4.968     43.169
         TOT                       13586.2703    83.7909   144.3315   603.8830

       T/K    H(0)-H(T)+PV         H(T)/Eh          T*S/Eh         G(T)/Eh
   ------------------------------------------------------------------------
    298.15    0.216511E-01    0.377295E+00    0.685766E-01    0.308719E+00
   ------------------------------------------------------------------------

         :::::::::::::::::::::::::::::::::::::::::::::::::::::
         ::                  THERMODYNAMIC                  ::
         :::::::::::::::::::::::::::::::::::::::::::::::::::::
         :: total free energy         -63.291322461471 Eh   ::
         ::.................................................::
         :: total energy              -63.600041395916 Eh   ::
         :: zero point energy           0.355644392321 Eh   ::
         :: G(RRHO) w/o ZPVE           -0.046925457876 Eh   ::
         :: G(RRHO) contrib.            0.308718934445 Eh   ::
         :::::::::::::::::::::::::::::::::::::::::::::::::::::

           -------------------------------------------------
          | TOTAL ENERGY              -63.600041395916 Eh   |
          | TOTAL ENTHALPY            -63.222745903742 Eh   |
          | TOTAL FREE ENERGY         -63.291322461471 Eh   |
          | GRADIENT NORM               0.000040059800 Eh/α |
          | HOMO-LUMO GAP               1.453814651640 eV   |
           -------------------------------------------------

 * finished run on 2025/09/10 at 05:13:00.111
