   * xtb version 6.7.1 (edcfbbe) compiled by 'albert@albert-system' on 2024-07-22

   ID    Z sym.   atoms
    1    6 C      1-25
    2    1 H      26-45

          program call               : xtb data2507/toluene/CMP/CMP_toluene_S0_crest.xyz --gfn 2 --gbsa toluene --ohess vtight --parallel 40 --molden --ceasefiles --namespace data2507/toluene/CMP/CMP_toluene_S0_finalOpt
      * Solvation model:               GBSA
        Solvent                        toluene
        Solvent mass                       9.2140E+01 g/mol
          :  Hamiltonian                  GFN2-xTB          :
 * total energy  :   -63.7143934 Eh     change       -0.3089866E-09 Eh
 * total energy  :   -63.7144144 Eh     change       -0.2106932E-04 Eh
 * total energy  :   -63.7144160 Eh     change       -0.1541246E-05 Eh
 * total energy  :   -63.7144167 Eh     change       -0.6729905E-06 Eh
 * total energy  :   -63.7144173 Eh     change       -0.6111236E-06 Eh
 * total energy  :   -63.7144178 Eh     change       -0.5113278E-06 Eh
 * total energy  :   -63.7144182 Eh     change       -0.4239418E-06 Eh
 * total energy  :   -63.7144185 Eh     change       -0.2947968E-06 Eh
 * total energy  :   -63.7144187 Eh     change       -0.2424190E-06 Eh
 * total energy  :   -63.7144190 Eh     change       -0.2482586E-06 Eh
 * total energy  :   -63.7144200 Eh     change       -0.1921550E-06 Eh
 * total energy  :   -63.7144202 Eh     change       -0.1604282E-06 Eh
 * total energy  :   -63.7144203 Eh     change       -0.1523227E-06 Eh
 * total energy  :   -63.7144205 Eh     change       -0.1588033E-06 Eh
 * total energy  :   -63.7144206 Eh     change       -0.1553304E-06 Eh
 * total energy  :   -63.7144208 Eh     change       -0.1405929E-06 Eh
 * total energy  :   -63.7144209 Eh     change       -0.1249864E-06 Eh
 * total energy  :   -63.7144210 Eh     change       -0.1103303E-06 Eh
 * total energy  :   -63.7144210 Eh     change       -0.9910650E-09 Eh
   *** GEOMETRY OPTIMIZATION CONVERGED AFTER 22 ITERATIONS ***

 final structure:
================
45
 xtb: 6.7.1 (edcfbbe)
C            2.88512731188383       -1.56309418611088       -2.80201150465635
C            2.61379811402692       -2.22823123705308       -1.61760427866474
C            1.67070846511018       -1.72734330772104       -0.73979783115016
C            0.96566007333912       -0.56355748399283       -1.03516555879112
C           -0.00003798259443        0.00026377094960       -0.00018491980687
C           -0.96588419868354       -1.03617539306093        0.56070384361304
C           -1.26348946098293       -2.21252706926607       -0.11503563050818
C           -2.21010172122467       -3.09308451630504        0.38191594228285
C           -2.88524059472842       -2.80620458883441        1.55478400194991
C           -2.61781603266211       -1.62132552671757        2.22066098933319
C           -1.67481147299369       -0.74192712819186        1.72241647317268
C            0.96178808187247        0.56251767820272        1.03925198984036
C            1.67010583891895        1.72514246936753        0.74716224076731
C            2.60990845893032        2.22450470930775        1.62935838036626
C            2.87464178451483        1.55893704223470        2.81501601327496
C            2.20001918210107        0.38529146898585        3.09991965415868
C            1.25667726791461       -0.11282494575249        2.21652034235647
C           -0.96170185141204        1.03821879907836       -0.56541817332783
C           -1.26064721373507        2.21492401871264        0.10911785506920
C           -2.20394958248101        3.09677124124349       -0.39181994599460
C           -2.87443881063427        2.81086506570468       -1.56758819657576
C           -2.60558112105719        1.62576996849554       -2.23250260552511
C           -1.66585894796090        0.74509866950931       -1.73031050808886
C            1.26712552191393        0.11131072427543       -2.21103746395813
C            2.21375236360689       -0.38835177662074       -3.09004163335114
H            3.62216760271494       -1.95275781875484       -3.48905499479155
H            3.14370740069372       -3.13774204872361       -1.37302708267133
H            1.47935193001425       -2.24449850928011        0.18926629374063
H           -0.75593287452970       -2.45102515269953       -1.03811948328557
H           -2.42238235287693       -4.00610386544185       -0.15606568086185
H           -3.62216936725793       -3.49452413969599        1.94240241579870
H           -3.15069753017030       -1.37763630799645        3.12867458297790
H           -1.48653186890344        0.18749023282273        2.24006378552260
H            1.48394007877458        2.24258131178628       -0.18279624804628
H            3.14246388611642        3.13312907946469        1.38723332111272
H            3.60908334289751        1.94740606020881        3.50551043515743
H            2.41017475645127       -0.15242014302039        4.01358862749293
H            0.74955941170450       -1.03653599843954        2.45351398556726
H           -0.75677138101630        2.45266111807113        1.03441414574827
H           -2.41737891134693        4.00999442334767        0.14535873637851
H           -3.60888694480341        3.50012233415801       -1.95823369243488
H           -3.13484905862024        1.38288028524423       -3.14284085996797
H           -1.47648699571105       -0.18446163746612       -2.24730174549477
H            0.76263349609517        1.03586026137730       -2.45036276751460
H            2.42906289009101        0.14901074419691       -4.00271555011413

          :  Hamiltonian                  GFN2-xTB          :
         :: gradient norm              0.000028851821 Eh/a0 ::
         :: HOMO-LUMO gap              4.137584207938 eV    ::
         :: SCC energy               -64.957863407400 Eh    ::
         :: -> dispersion             -0.060719876479 Eh    ::
         :: -> Gsolv                  -0.024382052180 Eh    ::
         :: repulsion energy           1.243442401901 Eh    ::

    * Orbital Energies and Occupations

         #    Occupation            Energy/Eh            Energy/eV
      -------------------------------------------------------------
         1        2.0000           -0.6525405             -17.7565
       ...           ...                  ...                  ...
        48        2.0000           -0.4264258             -11.6036
        49        2.0000           -0.4197851             -11.4229
        50        2.0000           -0.4195460             -11.4164
        51        2.0000           -0.4153811             -11.3031
        52        2.0000           -0.4153798             -11.3031
        53        2.0000           -0.4113918             -11.1945
        54        2.0000           -0.4031127             -10.9693
        55        2.0000           -0.4031117             -10.9692
        56        2.0000           -0.4027115             -10.9583
        57        2.0000           -0.3993758             -10.8676
        58        2.0000           -0.3951818             -10.7534
        59        2.0000           -0.3848376             -10.4720
        60        2.0000           -0.3848346             -10.4719 (HOMO)
        61                         -0.2327812              -6.3343 (LUMO)
        62                         -0.2296729              -6.2497
        63                         -0.2229672              -6.0672
        64                         -0.2229662              -6.0672
        65                         -0.2222885              -6.0488
        66                         -0.2159397              -5.8760
        67                         -0.2102960              -5.7224
        68                         -0.2102949              -5.7224
        69                         -0.0975648              -2.6549
        70                         -0.0971921              -2.6447
        71                         -0.0856627              -2.3310
       ...                                ...                  ...
       120                          0.6664191              18.1342
      -------------------------------------------------------------
                  HL-Gap            0.1520534 Eh            4.1376 eV

     #   Z          covCN         q      C6AA      α(0)
     1   6 C        2.919    -0.034    28.849     8.808
     2   6 C        2.919    -0.032    28.800     8.800
     3   6 C        2.925    -0.035    28.880     8.813
     4   6 C        2.995     0.015    27.659     8.627
     5   6 C        3.920     0.006    20.418     6.422
     6   6 C        2.995     0.015    27.659     8.627
     7   6 C        2.923    -0.036    28.902     8.816
     8   6 C        2.920    -0.032    28.795     8.800
     9   6 C        2.919    -0.034    28.849     8.808
    10   6 C        2.919    -0.032    28.800     8.800
    11   6 C        2.925    -0.035    28.880     8.813
    12   6 C        2.995     0.015    27.659     8.627
    13   6 C        2.925    -0.035    28.880     8.813
    14   6 C        2.919    -0.032    28.800     8.800
    15   6 C        2.919    -0.034    28.849     8.808
    16   6 C        2.920    -0.032    28.795     8.800
    17   6 C        2.923    -0.036    28.902     8.816
    18   6 C        2.995     0.015    27.659     8.627
    19   6 C        2.923    -0.036    28.902     8.816
    20   6 C        2.920    -0.032    28.795     8.800
    21   6 C        2.919    -0.034    28.849     8.808
    22   6 C        2.919    -0.032    28.800     8.800
    23   6 C        2.925    -0.035    28.880     8.813
    24   6 C        2.923    -0.036    28.902     8.816
    25   6 C        2.920    -0.032    28.795     8.800
    26   1 H        0.926     0.030     2.590     2.517
    27   1 H        0.926     0.030     2.588     2.515
    28   1 H        0.926     0.032     2.564     2.504
    29   1 H        0.926     0.031     2.566     2.505
    30   1 H        0.926     0.030     2.584     2.514
    31   1 H        0.926     0.030     2.590     2.517
    32   1 H        0.926     0.030     2.588     2.515
    33   1 H        0.926     0.032     2.564     2.504
    34   1 H        0.926     0.032     2.564     2.504
    35   1 H        0.926     0.030     2.588     2.515
    36   1 H        0.926     0.030     2.590     2.517
    37   1 H        0.926     0.030     2.584     2.514
    38   1 H        0.926     0.031     2.566     2.505
    39   1 H        0.926     0.031     2.566     2.505
    40   1 H        0.926     0.030     2.584     2.514
    41   1 H        0.926     0.030     2.590     2.517
    42   1 H        0.926     0.030     2.588     2.515
    43   1 H        0.926     0.032     2.564     2.504
    44   1 H        0.926     0.031     2.566     2.505
    45   1 H        0.926     0.030     2.584     2.514

molecular dipole:
                 x           y           z       tot (Debye)
 q only:       -0.000      -0.000       0.000
   full:        0.000      -0.000       0.000       0.000

 projected vibrational frequencies (cm⁻¹)
eigval :       -0.00    -0.00    -0.00     0.00     0.00     0.00
eigval :       26.46    50.32    53.50    57.96    75.66    75.75
eigval :       94.07    94.28   116.83   215.30   215.35   244.32
eigval :      248.81   263.60   280.30   291.17   291.19   333.79
eigval :      367.50   383.62   383.68   390.43   454.70   454.85
eigval :      485.65   520.84   587.36   587.36   587.69   589.70
eigval :      594.07   613.86   613.87   667.28   667.33   679.07
eigval :      682.63   695.27   747.62   747.66   759.69   772.16
eigval :      875.13   882.57   882.60   884.28   899.48   899.53
eigval :      899.73   911.88   911.89   914.00   917.21   927.92
eigval :      931.00   931.14   932.46   937.86   937.99   939.59
eigval :      939.66   979.57   998.19   998.20  1002.92  1087.41
eigval :     1087.42  1088.09  1090.25  1120.50  1125.21  1129.09
eigval :     1129.11  1178.93  1179.32  1180.01  1180.13  1180.21
eigval :     1198.54  1198.56  1206.57  1212.99  1213.17  1213.18
eigval :     1262.33  1276.01  1287.09  1292.86  1292.88  1312.36
eigval :     1319.53  1319.54  1322.31  1422.82  1433.77  1433.77
eigval :     1435.17  1470.86  1470.87  1473.11  1479.50  1581.28
eigval :     1586.53  1586.55  1588.80  1597.73  1597.73  1599.08
eigval :     1602.23  3066.15  3066.33  3066.62  3066.80  3068.68
eigval :     3069.24  3069.55  3069.62  3078.59  3078.60  3078.90
eigval :     3079.64  3082.31  3083.78  3084.29  3084.30  3089.26
eigval :     3089.31  3089.53  3091.44

   temp. (K)  partition function   enthalpy   heat capacity  entropy
                                   cal/mol     cal/K/mol   cal/K/mol   J/K/mol
 298.15  VIB  0.235E+08            10926.185     74.061     66.673
         ROT  0.405E+07              888.752      2.981     33.216
         INT  0.951E+14            11814.937     77.042     99.889
         TR   0.555E+28             1481.254      4.968     43.169
         TOT                       13296.1910    82.0105   143.0586   598.5573

       T/K    H(0)-H(T)+PV         H(T)/Eh          T*S/Eh         G(T)/Eh
   ------------------------------------------------------------------------
    298.15    0.211888E-01    0.381125E+00    0.679718E-01    0.313153E+00
   ------------------------------------------------------------------------

         :::::::::::::::::::::::::::::::::::::::::::::::::::::
         ::                  THERMODYNAMIC                  ::
         :::::::::::::::::::::::::::::::::::::::::::::::::::::
         :: total free energy         -63.401267903722 Eh   ::
         ::.................................................::
         :: total energy              -63.714421004600 Eh   ::
         :: zero point energy           0.359936041563 Eh   ::
         :: G(RRHO) w/o ZPVE           -0.046782940685 Eh   ::
         :: G(RRHO) contrib.            0.313153100878 Eh   ::
         :::::::::::::::::::::::::::::::::::::::::::::::::::::

           -------------------------------------------------
          | TOTAL ENERGY              -63.714421004600 Eh   |
          | TOTAL ENTHALPY            -63.333296133883 Eh   |
          | TOTAL FREE ENERGY         -63.401267903722 Eh   |
          | GRADIENT NORM               0.000028852673 Eh/α |
          | HOMO-LUMO GAP               4.137584216437 eV   |
           -------------------------------------------------

 * finished run on 2025/09/10 at 05:09:38.372
