   * xtb version 6.7.1 (edcfbbe) compiled by 'albert@albert-system' on 2024-07-22

   ID    Z sym.   atoms
    1    8 O      1, 3
    2   16 S      2
    3    6 C      4-13, 15-28
    4    7 N      14
    5    1 H      29-45

          program call               : xtb data2507/toluene/TS-1/TS-1_toluene_S0_finalOpt.xtbopt.xyz --gfn 2 --uhf 2 --gbsa toluene --ohess vtight --parallel 40 --molden --ceasefiles --namespace data2507/toluene/TS-1/TS-1_toluene_T1_preOpt
      * Solvation model:               GBSA
        Solvent                        toluene
        Solvent mass                       9.2140E+01 g/mol
          :  Hamiltonian                  GFN2-xTB          :
 * total energy  :   -74.2760176 Eh     change       -0.5300222E-09 Eh
 * total energy  :   -74.2789135 Eh     change       -0.2895868E-02 Eh
 * total energy  :   -74.2797343 Eh     change       -0.8208591E-03 Eh
 * total energy  :   -74.2798732 Eh     change       -0.1388953E-03 Eh
 * total energy  :   -74.2799444 Eh     change       -0.7115055E-04 Eh
 * total energy  :   -74.2799749 Eh     change       -0.3056537E-04 Eh
 * total energy  :   -74.2800084 Eh     change       -0.3349157E-04 Eh
 * total energy  :   -74.2800435 Eh     change       -0.3511915E-04 Eh
 * total energy  :   -74.2800794 Eh     change       -0.3581572E-04 Eh
 * total energy  :   -74.2801089 Eh     change       -0.2950508E-04 Eh
 * total energy  :   -74.2808320 Eh     change       -0.8605611E-06 Eh
 * total energy  :   -74.2808328 Eh     change       -0.8028766E-06 Eh
 * total energy  :   -74.2808336 Eh     change       -0.8297812E-06 Eh
 * total energy  :   -74.2808346 Eh     change       -0.1006273E-05 Eh
 * total energy  :   -74.2808359 Eh     change       -0.1283454E-05 Eh
 * total energy  :   -74.2808375 Eh     change       -0.1567455E-05 Eh
 * total energy  :   -74.2808392 Eh     change       -0.1765051E-05 Eh
 * total energy  :   -74.2808410 Eh     change       -0.1814906E-05 Eh
 * total energy  :   -74.2808410 Eh     change       -0.5275268E-08 Eh
   *** GEOMETRY OPTIMIZATION CONVERGED AFTER 68 ITERATIONS ***

 final structure:
================
45
 xtb: 6.7.1 (edcfbbe)
O           -3.97916014405674        1.19984964423563        2.12340849610532
S           -3.56337600631947        1.28193593042873        0.73297401637258
O           -3.91480233306658        2.49385790601270        0.01173446686268
C           -4.22910098789327       -0.12362196507530       -0.14408729590265
C           -4.49110082915413       -1.29589901197582        0.54950393551081
C           -4.90464670384485       -2.41673676115194       -0.14594405148537
C           -5.04275283053747       -2.36600725645166       -1.52714148385633
C           -4.77319054335604       -1.18870690897653       -2.21369997524312
C           -4.35972681579244       -0.06461852535581       -1.52371737859730
C           -1.82841190669567        1.02189406094218        0.62526108833229
C           -1.19284488130912        0.16519568356481        1.54802508879169
C            0.11752545589399       -0.16958815504368        1.38459044314462
C            0.86331733450005        0.35244304994573        0.28623983374294
N            2.19074748513278        0.03048557790641        0.12707623865771
C            2.73832273623343       -1.22933044852684        0.28518704889064
C            2.10738220605857       -2.43821490862023        0.54552826564592
C            2.89409326680910       -3.57955515903748        0.63199380206626
C            4.27612888789695       -3.51372193749140        0.44727597959598
C            4.91172162317805       -2.31679823056790        0.14659747336138
C            4.14538581399682       -1.16257324020084        0.04626315152533
C            4.43895531587764        0.19811308756588       -0.28213762373815
C            5.60432715138088        0.88091051106678       -0.60600898058302
C            5.53515288769021        2.25010794055478       -0.82384607554607
C            4.33111530944542        2.94693466491868       -0.70923916323949
C            3.15088515876957        2.28538095000548       -0.39540086388206
C            3.20196474421789        0.91010067492934       -0.21352816832124
C            0.20843549024837        1.21723836532638       -0.63944679348866
C           -1.11038058713990        1.52059183804820       -0.48150440545773
H           -4.38613867352502       -1.29661340086705        1.62336561870825
H           -5.12205771892219       -3.33027024687209        0.38713623673291
H           -5.36443430585218       -3.24280721093895       -2.06831936883584
H           -4.88814683100932       -1.14925993010239       -3.28660284692179
H           -4.15461879739914        0.86876910948619       -2.02457669099416
H           -1.76606896771175       -0.17681609636244        2.39491422126129
H            0.63105554784847       -0.76126876414801        2.12664843604104
H            1.03595074575463       -2.49913843644556        0.65418709444352
H            2.42771963668794       -4.53084844736289        0.83333326314198
H            4.85952938271032       -4.41921132093439        0.52292993551793
H            5.97808603294223       -2.28352533314887       -0.01291672433864
H            6.54504675086883        0.35793491282246       -0.67844811211854
H            6.43472850952928        2.79394877988637       -1.07076522056370
H            4.31724978312914        4.01553994503837       -0.85423224398093
H            2.22984465110892        2.83334988467584       -0.27381752697809
H            0.75162371852656        1.55912884185028       -1.50678863597527
H           -1.63636637370069        2.15231792338264       -1.17946421887818

          :  Hamiltonian                  GFN2-xTB          :
         :: gradient norm              0.000057295835 Eh/a0 ::
         :: HOMO-LUMO gap              0.256891039662 eV    ::
         :: SCC energy               -75.520866339000 Eh    ::
         :: -> dispersion             -0.059284783671 Eh    ::
         :: -> Gsolv                  -0.044446122084 Eh    ::
         :: repulsion energy           1.240025295760 Eh    ::

    * Orbital Energies and Occupations

         #    Occupation            Energy/Eh            Energy/eV
      -------------------------------------------------------------
         1        2.0000           -0.7605614             -20.6959
       ...           ...                  ...                  ...
        57        2.0000           -0.4345716             -11.8253
        58        2.0000           -0.4340528             -11.8112
        59        2.0000           -0.4317675             -11.7490
        60        2.0000           -0.4279549             -11.6452
        61        2.0000           -0.4254759             -11.5778
        62        2.0000           -0.4234209             -11.5219
        63        2.0000           -0.4176753             -11.3655
        64        2.0000           -0.4165771             -11.3356
        65        2.0000           -0.4144438             -11.2776
        66        2.0000           -0.3973677             -10.8129
        67        1.9987           -0.3938500             -10.7172
        68        1.0014           -0.3812997             -10.3757
        69        0.9931           -0.2696213              -7.3368 (HOMO)
        70        0.0069           -0.2601810              -7.0799 (LUMO)
        71                         -0.2422682              -6.5925
        72                         -0.2416053              -6.5744
        73                         -0.2366701              -6.4401
        74                         -0.2338282              -6.3628
        75                         -0.2113697              -5.7517
        76                         -0.2028045              -5.5186
        77                         -0.1387278              -3.7750
        78                         -0.1155450              -3.1441
        79                         -0.1080521              -2.9402
        80                         -0.0934007              -2.5416
       ...                                ...                  ...
       134                          1.1525088              31.3614
      -------------------------------------------------------------
                  HL-Gap            0.0094403 Eh            0.2569 eV

     #   Z          covCN         q      C6AA      α(0)
     1   8 O        0.860    -0.589    25.848     6.816
     2  16 S        3.826     0.888   109.928    17.646
     3   8 O        0.860    -0.589    25.844     6.816
     4   6 C        2.970    -0.077    29.907     8.970
     5   6 C        2.957    -0.031    28.776     8.799
     6   6 C        2.920    -0.026    28.656     8.778
     7   6 C        2.919    -0.032    28.798     8.800
     8   6 C        2.920    -0.026    28.656     8.778
     9   6 C        2.957    -0.031    28.776     8.799
    10   6 C        2.964    -0.095    30.380     9.041
    11   6 C        2.950    -0.035    28.860     8.811
    12   6 C        2.913    -0.037    28.932     8.820
    13   6 C        2.910     0.027    27.396     8.583
    14   7 N        2.793     0.048    20.395     6.707
    15   6 C        3.064     0.036    27.129     8.541
    16   6 C        2.907    -0.029    28.720     8.788
    17   6 C        2.919    -0.040    28.987     8.829
    18   6 C        2.918    -0.019    28.489     8.753
    19   6 C        2.909    -0.027    28.682     8.782
    20   6 C        3.054    -0.010    28.217     8.712
    21   6 C        3.055    -0.010    28.216     8.711
    22   6 C        2.909    -0.027    28.683     8.782
    23   6 C        2.918    -0.019    28.490     8.753
    24   6 C        2.919    -0.040    28.986     8.829
    25   6 C        2.907    -0.029    28.717     8.787
    26   6 C        3.063     0.036    27.127     8.541
    27   6 C        2.913    -0.038    28.933     8.820
    28   6 C        2.948    -0.034    28.847     8.809
    29   1 H        0.926     0.044     2.398     2.422
    30   1 H        0.926     0.051     2.303     2.373
    31   1 H        0.926     0.052     2.296     2.369
    32   1 H        0.926     0.051     2.305     2.374
    33   1 H        0.926     0.043     2.408     2.426
    34   1 H        0.926     0.047     2.355     2.400
    35   1 H        0.926     0.061     2.191     2.315
    36   1 H        0.926     0.053     2.285     2.364
    37   1 H        0.926     0.046     2.369     2.407
    38   1 H        0.926     0.050     2.321     2.382
    39   1 H        0.926     0.050     2.315     2.379
    40   1 H        0.926     0.051     2.312     2.378
    41   1 H        0.926     0.050     2.323     2.383
    42   1 H        0.926     0.045     2.380     2.413
    43   1 H        0.926     0.052     2.300     2.372
    44   1 H        0.926     0.060     2.193     2.316
    45   1 H        0.926     0.048     2.348     2.396

molecular dipole:
                 x           y           z       tot (Debye)
 q only:        4.750      -2.593      -1.438
   full:        4.482      -2.430      -1.354      13.408

 projected vibrational frequencies (cm⁻¹)
eigval :       -0.00    -0.00    -0.00    -0.00     0.00     0.00
eigval :       13.76    17.12    28.73    41.96    49.16    85.99
eigval :      100.34   115.21   125.26   137.72   144.54   156.85
eigval :      186.37   228.92   239.90   266.55   278.31   288.14
eigval :      311.72   359.27   364.77   368.81   381.15   386.05
eigval :      398.38   403.88   408.49   425.83   436.61   485.77
eigval :      489.56   506.33   515.34   552.84   563.92   573.30
eigval :      583.44   602.44   616.46   641.76   644.35   655.66
eigval :      677.34   689.69   722.30   743.23   747.14   752.06
eigval :      753.71   781.52   818.43   844.75   850.01   871.20
eigval :      877.76   885.08   887.87   888.24   893.35   897.76
eigval :      899.66   903.02   907.02   920.91   922.26   954.44
eigval :      963.41   972.72  1026.92  1029.02  1050.51  1054.92
eigval :     1062.43  1064.56  1091.32  1099.16  1102.60  1115.16
eigval :     1153.32  1164.75  1168.40  1168.79  1171.38  1178.49
eigval :     1191.04  1192.06  1193.87  1228.59  1233.76  1259.22
eigval :     1279.43  1280.40  1289.11  1323.49  1325.56  1339.54
eigval :     1371.86  1378.41  1382.87  1424.60  1430.09  1436.41
eigval :     1445.54  1455.22  1464.97  1475.68  1495.33  1537.15
eigval :     1539.22  1543.06  1549.76  1578.44  3079.39  3082.46
eigval :     3084.65  3085.33  3088.63  3090.66  3092.97  3094.12
eigval :     3095.24  3098.19  3098.73  3100.53  3100.82  3104.05
eigval :     3105.27  3106.32  3107.37

   temp. (K)  partition function   enthalpy   heat capacity  entropy
                                   cal/mol     cal/K/mol   cal/K/mol   J/K/mol
 298.15  VIB  0.323E+10            12877.017     83.513     78.441
         ROT  0.186E+08              888.752      2.981     36.244
         INT  0.600E+17            13765.769     86.494    114.685
         TR   0.727E+28             1481.254      4.968     43.705
         TOT                       15247.0233    91.4623   158.3898   662.7030

       T/K    H(0)-H(T)+PV         H(T)/Eh          T*S/Eh         G(T)/Eh
   ------------------------------------------------------------------------
    298.15    0.242977E-01    0.355012E+00    0.752561E-01    0.279756E+00
   ------------------------------------------------------------------------

         :::::::::::::::::::::::::::::::::::::::::::::::::::::
         ::                  THERMODYNAMIC                  ::
         :::::::::::::::::::::::::::::::::::::::::::::::::::::
         :: total free energy         -74.001084816539 Eh   ::
         ::.................................................::
         :: total energy              -74.280841043921 Eh   ::
         :: zero point energy           0.330714658552 Eh   ::
         :: G(RRHO) w/o ZPVE           -0.050958431170 Eh   ::
         :: G(RRHO) contrib.            0.279756227382 Eh   ::
         :::::::::::::::::::::::::::::::::::::::::::::::::::::

           -------------------------------------------------
          | TOTAL ENERGY              -74.280841043921 Eh   |
          | TOTAL ENTHALPY            -73.925828707166 Eh   |
          | TOTAL FREE ENERGY         -74.001084816539 Eh   |
          | GRADIENT NORM               0.000057405092 Eh/α |
          | HOMO-LUMO GAP               0.256882547068 eV   |
           -------------------------------------------------

 * finished run on 2025/08/25 at 06:58:21.930
