   * xtb version 6.7.1 (edcfbbe) compiled by 'albert@albert-system' on 2024-07-22

   ID    Z sym.   atoms
    1    8 O      1, 3
    2   16 S      2
    3    6 C      4-13, 15-28
    4    7 N      14
    5    1 H      29-45

          program call               : xtb data2507/toluene/TS-1/TS-1_toluene_T1_crest.xyz --gfn 2 --uhf 2 --gbsa toluene --ohess vtight --parallel 40 --molden --ceasefiles --namespace data2507/toluene/TS-1/TS-1_toluene_T1_finalOpt
      * Solvation model:               GBSA
        Solvent                        toluene
        Solvent mass                       9.2140E+01 g/mol
          :  Hamiltonian                  GFN2-xTB          :
 * total energy  :   -74.2803716 Eh     change       -0.3847447E-09 Eh
 * total energy  :   -74.2806212 Eh     change       -0.2496211E-03 Eh
 * total energy  :   -74.2807858 Eh     change       -0.1646206E-03 Eh
 * total energy  :   -74.2807957 Eh     change       -0.9899924E-05 Eh
 * total energy  :   -74.2808049 Eh     change       -0.9158445E-05 Eh
 * total energy  :   -74.2808091 Eh     change       -0.4192098E-05 Eh
 * total energy  :   -74.2808135 Eh     change       -0.4381818E-05 Eh
 * total energy  :   -74.2808165 Eh     change       -0.3041066E-05 Eh
 * total energy  :   -74.2808209 Eh     change       -0.4407067E-05 Eh
 * total energy  :   -74.2808262 Eh     change       -0.5298211E-05 Eh
 * total energy  :   -74.2808293 Eh     change       -0.5674254E-06 Eh
 * total energy  :   -74.2808303 Eh     change       -0.9824707E-06 Eh
 * total energy  :   -74.2808318 Eh     change       -0.1548927E-05 Eh
 * total energy  :   -74.2808340 Eh     change       -0.2212913E-05 Eh
 * total energy  :   -74.2808368 Eh     change       -0.2774150E-05 Eh
 * total energy  :   -74.2808393 Eh     change       -0.2499195E-05 Eh
 * total energy  :   -74.2808410 Eh     change       -0.1636235E-05 Eh
 * total energy  :   -74.2808423 Eh     change       -0.1295169E-05 Eh
 * total energy  :   -74.2808423 Eh     change       -0.1027954E-07 Eh
   *** GEOMETRY OPTIMIZATION CONVERGED AFTER 22 ITERATIONS ***

 final structure:
================
45
 xtb: 6.7.1 (edcfbbe)
O           -4.00639901126758        0.93320946557561        2.12815226420823
S           -3.58722941148840        1.14364221137873        0.75246246093320
O           -3.95938160943246        2.40670810128204        0.13697642212902
C           -4.22166279194988       -0.19038825942712       -0.25023026939646
C           -4.44344092192898       -1.43114263002504        0.32861647264470
C           -4.83218630041286       -2.49096953739959       -0.46927600961212
C           -4.98536307883074       -2.31115578936706       -1.83819892574719
C           -4.75571495837114       -1.06589928935244       -2.40947537793613
C           -4.36762360574133       -0.00218244213887       -1.61668638313366
C           -1.84741834814372        0.92617720276033        0.63270962969484
C           -1.18532560128964        0.05733316742152        1.52465183315076
C            0.13492188023656       -0.23045012594675        1.35075408622201
C            0.86301021170900        0.34959851536819        0.26943601723253
N            2.20138252278314        0.08255338973808        0.10334930764109
C            2.79987357498390       -1.15714253432475        0.23429985872256
C            2.21989695898043       -2.39629537896086        0.47018582737543
C            3.05331725205594       -3.50521132502613        0.53625478164054
C            4.43154211357389       -3.37875124466921        0.35400987621737
C            5.01644949659409       -2.15123191161264        0.07510370772634
C            4.20283314374462       -1.02820112121824       -0.00391389011704
C            4.44040512448328        0.34955846163788       -0.30496198491120
C            5.57630156876677        1.08483276586687       -0.61845669806756
C            5.45178241358216        2.45424822704961       -0.80796346718410
C            4.22165658850409        3.10005071793629       -0.67322563708360
C            3.07013735218402        2.38565954298926       -0.36896943956816
C            3.17610094754767        1.00959992239722       -0.21868881100692
C            0.17902790664928        1.22038868499974       -0.62939734630361
C           -1.14725338887383        1.48061590720438       -0.45908655544188
H           -4.32714894737995       -1.53280976023851        1.39653515220001
H           -5.01833803276721       -3.45788831173545       -0.02612997552605
H           -5.28775661095747       -3.14038762325843       -2.45960622228829
H           -4.88208030910908       -0.92609274401551       -3.47270030148454
H           -4.19494679558282        0.98131138475193       -2.02546065880568
H           -1.74743794126932       -0.33040997299689        2.35926998776343
H            0.66711453978823       -0.82831998105658        2.07436151546230
H            1.15194521872883       -2.50461364168915        0.57583163819061
H            2.62686795571443       -4.47861388276418        0.71958164443944
H            5.05214471053182       -4.26035004710110        0.41441632434000
H            6.08046219615829       -2.07055550025501       -0.08321305686359
H            6.53664506555856        0.60122244723613       -0.70537229365994
H            6.32773686857804        3.03844889271387       -1.04749943998500
H            4.16480336692182        4.17009444261875       -0.79523350424904
H            2.12902003767184        2.89431165370837       -0.23079466747619
H            0.70848888094324        1.60304208325868       -1.48807925576355
H           -1.69259821137885        2.11899010308716       -1.13566967242083

          :  Hamiltonian                  GFN2-xTB          :
         :: gradient norm              0.000083486959 Eh/a0 ::
         :: HOMO-LUMO gap              0.260312201674 eV    ::
         :: SCC energy               -75.520920051485 Eh    ::
         :: -> dispersion             -0.059289775682 Eh    ::
         :: -> Gsolv                  -0.044374211529 Eh    ::
         :: repulsion energy           1.240077785334 Eh    ::

    * Orbital Energies and Occupations

         #    Occupation            Energy/Eh            Energy/eV
      -------------------------------------------------------------
         1        2.0000           -0.7606237             -20.6976
       ...           ...                  ...                  ...
        57        2.0000           -0.4345306             -11.8242
        58        2.0000           -0.4340692             -11.8116
        59        2.0000           -0.4316476             -11.7457
        60        2.0000           -0.4280060             -11.6466
        61        2.0000           -0.4254739             -11.5777
        62        2.0000           -0.4233374             -11.5196
        63        2.0000           -0.4177584             -11.3678
        64        2.0000           -0.4165857             -11.3359
        65        2.0000           -0.4144400             -11.2775
        66        2.0000           -0.3973839             -10.8134
        67        1.9987           -0.3937707             -10.7150
        68        1.0013           -0.3811678             -10.3721
        69        0.9935           -0.2696541              -7.3377 (HOMO)
        70        0.0065           -0.2600888              -7.0774 (LUMO)
        71                         -0.2422068              -6.5908
        72                         -0.2415974              -6.5742
        73                         -0.2366822              -6.4405
        74                         -0.2338424              -6.3632
        75                         -0.2112298              -5.7479
        76                         -0.2027252              -5.5164
        77                         -0.1386882              -3.7739
        78                         -0.1155312              -3.1438
        79                         -0.1079157              -2.9365
        80                         -0.0933450              -2.5400
       ...                                ...                  ...
       134                          1.1525482              31.3624
      -------------------------------------------------------------
                  HL-Gap            0.0095652 Eh            0.2603 eV

     #   Z          covCN         q      C6AA      α(0)
     1   8 O        0.860    -0.588    25.836     6.815
     2  16 S        3.826     0.888   109.922    17.646
     3   8 O        0.860    -0.589    25.851     6.817
     4   6 C        2.970    -0.077    29.908     8.970
     5   6 C        2.957    -0.031    28.776     8.799
     6   6 C        2.920    -0.026    28.656     8.778
     7   6 C        2.919    -0.032    28.798     8.800
     8   6 C        2.920    -0.026    28.654     8.778
     9   6 C        2.957    -0.031    28.776     8.799
    10   6 C        2.964    -0.095    30.380     9.041
    11   6 C        2.948    -0.034    28.852     8.810
    12   6 C        2.913    -0.038    28.934     8.820
    13   6 C        2.910     0.027    27.394     8.582
    14   7 N        2.793     0.049    20.394     6.707
    15   6 C        3.064     0.036    27.132     8.542
    16   6 C        2.907    -0.029    28.722     8.788
    17   6 C        2.919    -0.040    28.988     8.829
    18   6 C        2.918    -0.019    28.492     8.753
    19   6 C        2.909    -0.027    28.682     8.782
    20   6 C        3.054    -0.010    28.216     8.711
    21   6 C        3.055    -0.010    28.217     8.712
    22   6 C        2.909    -0.027    28.682     8.782
    23   6 C        2.918    -0.019    28.493     8.753
    24   6 C        2.919    -0.040    28.986     8.829
    25   6 C        2.907    -0.029    28.719     8.787
    26   6 C        3.063     0.036    27.131     8.542
    27   6 C        2.913    -0.038    28.935     8.821
    28   6 C        2.949    -0.034    28.853     8.810
    29   1 H        0.926     0.044     2.400     2.422
    30   1 H        0.926     0.051     2.303     2.373
    31   1 H        0.926     0.052     2.296     2.369
    32   1 H        0.926     0.051     2.305     2.374
    33   1 H        0.926     0.043     2.405     2.425
    34   1 H        0.926     0.048     2.349     2.397
    35   1 H        0.926     0.061     2.189     2.314
    36   1 H        0.926     0.053     2.284     2.363
    37   1 H        0.926     0.046     2.370     2.408
    38   1 H        0.926     0.050     2.322     2.383
    39   1 H        0.926     0.050     2.316     2.380
    40   1 H        0.926     0.051     2.313     2.378
    41   1 H        0.926     0.050     2.324     2.384
    42   1 H        0.926     0.045     2.381     2.413
    43   1 H        0.926     0.052     2.299     2.371
    44   1 H        0.926     0.061     2.191     2.315
    45   1 H        0.926     0.047     2.353     2.399

molecular dipole:
                 x           y           z       tot (Debye)
 q only:        4.801      -2.344      -1.601
   full:        4.529      -2.196      -1.508      13.355

 projected vibrational frequencies (cm⁻¹)
eigval :       -0.00    -0.00    -0.00    -0.00     0.00     0.00
eigval :        7.96    15.92    22.02    41.81    45.31    87.69
eigval :       96.77   114.72   124.55   134.60   143.83   156.65
eigval :      186.32   229.61   239.95   266.99   277.18   287.95
eigval :      312.50   359.42   364.62   368.30   381.78   385.63
eigval :      397.71   403.31   408.42   425.35   436.40   486.30
eigval :      489.83   504.27   515.19   552.25   564.16   573.60
eigval :      583.61   602.23   616.95   641.54   643.57   654.52
eigval :      677.12   688.46   722.07   740.67   747.49   752.65
eigval :      753.68   781.21   817.92   845.46   851.08   870.45
eigval :      877.32   885.10   887.82   888.25   890.67   898.50
eigval :      900.26   902.85   908.06   919.41   920.34   954.40
eigval :      963.51   973.36  1027.71  1029.74  1050.91  1055.50
eigval :     1062.89  1064.52  1091.30  1099.85  1100.86  1115.62
eigval :     1153.97  1165.14  1168.90  1170.20  1170.78  1176.10
eigval :     1192.23  1193.14  1194.66  1229.07  1233.91  1258.41
eigval :     1279.66  1280.85  1289.25  1324.25  1325.38  1339.74
eigval :     1371.82  1378.49  1383.03  1424.09  1429.72  1436.72
eigval :     1445.72  1455.56  1465.37  1476.00  1495.54  1537.01
eigval :     1539.10  1543.02  1549.65  1578.33  3079.00  3081.72
eigval :     3084.89  3085.25  3089.32  3091.33  3092.32  3095.52
eigval :     3096.16  3097.32  3099.02  3100.20  3100.57  3103.93
eigval :     3105.75  3106.87  3108.31

   temp. (K)  partition function   enthalpy   heat capacity  entropy
                                   cal/mol     cal/K/mol   cal/K/mol   J/K/mol
 298.15  VIB  0.853E+10            12912.309     83.380     79.327
         ROT  0.186E+08              888.752      2.981     36.250
         INT  0.159E+18            13801.062     86.361    115.577
         TR   0.727E+28             1481.254      4.968     43.705
         TOT                       15282.3157    91.3295   159.2815   666.4336

       T/K    H(0)-H(T)+PV         H(T)/Eh          T*S/Eh         G(T)/Eh
   ------------------------------------------------------------------------
    298.15    0.243539E-01    0.355008E+00    0.756798E-01    0.279329E+00
   ------------------------------------------------------------------------

         :::::::::::::::::::::::::::::::::::::::::::::::::::::
         ::                  THERMODYNAMIC                  ::
         :::::::::::::::::::::::::::::::::::::::::::::::::::::
         :: total free energy         -74.001513562108 Eh   ::
         ::.................................................::
         :: total energy              -74.280842268020 Eh   ::
         :: zero point energy           0.330654544327 Eh   ::
         :: G(RRHO) w/o ZPVE           -0.051325838414 Eh   ::
         :: G(RRHO) contrib.            0.279328705912 Eh   ::
         :::::::::::::::::::::::::::::::::::::::::::::::::::::

           -------------------------------------------------
          | TOTAL ENERGY              -74.280842268020 Eh   |
          | TOTAL ENTHALPY            -73.925833803467 Eh   |
          | TOTAL FREE ENERGY         -74.001513562108 Eh   |
          | GRADIENT NORM               0.000082905159 Eh/α |
          | HOMO-LUMO GAP               0.260283378816 eV   |
           -------------------------------------------------

 * finished run on 2025/08/25 at 07:00:43.080
