   * xtb version 6.7.1 (edcfbbe) compiled by 'albert@albert-system' on 2024-07-22

   ID    Z sym.   atoms
    1    8 O      1, 3
    2   16 S      2
    3    6 C      4-13, 15-28
    4    7 N      14
    5    1 H      29-45

          program call               : xtb data2507/toluene/TS-1/TS-1_toluene_S0_crest.xyz --gfn 2 --gbsa toluene --ohess vtight --parallel 40 --molden --ceasefiles --namespace data2507/toluene/TS-1/TS-1_toluene_S0_finalOpt
      * Solvation model:               GBSA
        Solvent                        toluene
        Solvent mass                       9.2140E+01 g/mol
          :  Hamiltonian                  GFN2-xTB          :
 * total energy  :   -74.3901763 Eh     change       -0.2531522E-09 Eh
 * total energy  :   -74.3902882 Eh     change       -0.1118716E-03 Eh
 * total energy  :   -74.3903481 Eh     change       -0.5987111E-04 Eh
 * total energy  :   -74.3903566 Eh     change       -0.8574893E-05 Eh
 * total energy  :   -74.3903655 Eh     change       -0.8849054E-05 Eh
 * total energy  :   -74.3903684 Eh     change       -0.2876186E-05 Eh
 * total energy  :   -74.3903736 Eh     change       -0.5266486E-05 Eh
 * total energy  :   -74.3903764 Eh     change       -0.2786818E-05 Eh
 * total energy  :   -74.3903833 Eh     change       -0.6911672E-05 Eh
 * total energy  :   -74.3903879 Eh     change       -0.4554273E-05 Eh
 * total energy  :   -74.3904227 Eh     change       -0.1522947E-05 Eh
 * total energy  :   -74.3904245 Eh     change       -0.1800333E-05 Eh
 * total energy  :   -74.3904263 Eh     change       -0.1807115E-05 Eh
 * total energy  :   -74.3904275 Eh     change       -0.1215016E-05 Eh
 * total energy  :   -74.3904280 Eh     change       -0.4406385E-06 Eh
 * total energy  :   -74.3904282 Eh     change       -0.1772227E-06 Eh
 * total energy  :   -74.3904283 Eh     change       -0.1156686E-06 Eh
 * total energy  :   -74.3904284 Eh     change       -0.1106123E-06 Eh
 * total energy  :   -74.3904285 Eh     change       -0.9802574E-07 Eh
   *** GEOMETRY OPTIMIZATION CONVERGED AFTER 40 ITERATIONS ***

 final structure:
================
45
 xtb: 6.7.1 (edcfbbe)
O           -3.87935522289921        1.52854321311539        1.81093433977880
S           -3.52755839008174        1.32746612080873        0.42048415935444
O           -3.83891781613041        2.40439273144741       -0.49669116079991
C           -4.31194777934293       -0.17843687529518       -0.16338727208435
C           -4.93584463036102       -1.02155096629026        0.73503343375251
C           -5.51347755608024       -2.19284994638260        0.27111070272989
C           -5.45313339063695       -2.50455855698995       -1.07833262795061
C           -4.82146561439573       -1.65022809634580       -1.97001514543069
C           -4.24355441565468       -0.47808986604316       -1.51092368124199
C           -1.77244336596547        0.97365334600275        0.31321719760233
C           -1.20078572536641        0.14483483804328        1.26163771388218
C            0.14406308955928       -0.15929354844475        1.17786717934283
C            0.91386168139584        0.35728622739716        0.13261015399466
N            2.27209193366780        0.05017165338610        0.04639546140796
C            2.82689689175298       -1.21429723989054        0.15878622448258
C            2.20331888929117       -2.44539841233877        0.30274612601710
C            3.00269316119357       -3.57229625367705        0.35631729439674
C            4.38964058655061       -3.48639437263152        0.25837840931684
C            5.01382676536719       -2.26671966530210        0.08513579238126
C            4.23093744007903       -1.12073304927085        0.02936759511445
C            4.53392457309808        0.27155293455412       -0.16110447594232
C            5.72134461200057        0.97431449622584       -0.32075614481836
C            5.66453670339672        2.34768639365194       -0.45427498961765
C            4.44541363731742        3.02033618694564       -0.41188495910213
C            3.25103571481650        2.34177398285779       -0.25419228951637
C            3.29941225774495        0.95907743435433       -0.14908300802181
C            0.31920950655565        1.18621069292205       -0.82078046977810
C           -1.02460826280144        1.49497883183658       -0.72573566899041
H           -4.96913269703218       -0.73940268239334        1.77600594508716
H           -6.00905534412099       -2.85806009344794        0.96157557594951
H           -5.90404455988312       -3.41700847049116       -1.43847911230809
H           -4.78015589337093       -1.89540123120688       -3.02021253839610
H           -3.75657986063968        0.21370918429684       -2.17996051066616
H           -1.81062984761682       -0.22891435640935        2.06874338933744
H            0.61066053886446       -0.77823007343002        1.92838921990579
H            1.12880009159551       -2.52842391002595        0.35948228647974
H            2.54015522678412       -4.54136799616840        0.47313062092415
H            4.98004750985040       -4.38943675034383        0.30789550617505
H            6.08715924858469       -2.20092115548242       -0.01037744527766
H            6.66729780013074        0.45415522080610       -0.33331565907825
H            6.57586183219787        2.91303418250809       -0.58213728335386
H            4.43220414973399        4.09693008295756       -0.49963984298643
H            2.31580205768200        2.87781382075992       -0.20110555508226
H            0.90946965078444        1.57026700595599       -1.63817804828599
H           -1.50792565681976        2.14081033726915       -1.44210435487941

          :  Hamiltonian                  GFN2-xTB          :
         :: gradient norm              0.000048270029 Eh/a0 ::
         :: HOMO-LUMO gap              2.709545460042 eV    ::
         :: SCC energy               -75.652267135376 Eh    ::
         :: -> dispersion             -0.059115653796 Eh    ::
         :: -> Gsolv                  -0.038894693389 Eh    ::
         :: repulsion energy           1.261838660454 Eh    ::

    * Orbital Energies and Occupations

         #    Occupation            Energy/Eh            Energy/eV
      -------------------------------------------------------------
         1        2.0000           -0.7760081             -21.1163
       ...           ...                  ...                  ...
        56        2.0000           -0.4398221             -11.9682
        57        2.0000           -0.4388312             -11.9412
        58        2.0000           -0.4331608             -11.7869
        59        2.0000           -0.4294494             -11.6859
        60        2.0000           -0.4278596             -11.6427
        61        2.0000           -0.4273287             -11.6282
        62        2.0000           -0.4252694             -11.5722
        63        2.0000           -0.4216264             -11.4730
        64        2.0000           -0.4211972             -11.4614
        65        2.0000           -0.4099162             -11.1544
        66        2.0000           -0.4080533             -11.1037
        67        2.0000           -0.3824126             -10.4060
        68        2.0000           -0.3692303             -10.0473 (HOMO)
        69                         -0.2696564              -7.3377 (LUMO)
        70                         -0.2534973              -6.8980
        71                         -0.2509490              -6.8287
        72                         -0.2467653              -6.7148
        73                         -0.2457793              -6.6880
        74                         -0.2256487              -6.1402
        75                         -0.1979104              -5.3854
        76                         -0.1895892              -5.1590
        77                         -0.1436995              -3.9103
        78                         -0.1266616              -3.4466
        79                         -0.1189217              -3.2360
       ...                                ...                  ...
       134                          1.1636835              31.6654
      -------------------------------------------------------------
                  HL-Gap            0.0995739 Eh            2.7095 eV

     #   Z          covCN         q      C6AA      α(0)
     1   8 O        0.860    -0.578    25.578     6.781
     2  16 S        3.819     0.934   108.560    17.536
     3   8 O        0.860    -0.578    25.592     6.783
     4   6 C        2.972    -0.071    29.770     8.950
     5   6 C        2.954    -0.024    28.601     8.772
     6   6 C        2.921    -0.021    28.534     8.760
     7   6 C        2.920    -0.021    28.528     8.759
     8   6 C        2.921    -0.021    28.530     8.759
     9   6 C        2.960    -0.026    28.659     8.781
    10   6 C        2.970    -0.078    29.932     8.974
    11   6 C        2.958    -0.025    28.630     8.776
    12   6 C        2.924    -0.038    28.939     8.822
    13   6 C        2.912     0.074    26.356     8.418
    14   7 N        2.801    -0.035    21.920     6.954
    15   6 C        3.069     0.044    26.934     8.510
    16   6 C        2.910    -0.052    29.283     8.873
    17   6 C        2.924    -0.033    28.830     8.805
    18   6 C        2.920    -0.040    29.003     8.831
    19   6 C        2.912    -0.033    28.827     8.804
    20   6 C        3.066    -0.015    28.318     8.726
    21   6 C        3.066    -0.015    28.320     8.726
    22   6 C        2.912    -0.033    28.829     8.804
    23   6 C        2.920    -0.040    29.003     8.831
    24   6 C        2.924    -0.033    28.828     8.805
    25   6 C        2.910    -0.051    29.278     8.873
    26   6 C        3.069     0.045    26.930     8.509
    27   6 C        2.924    -0.038    28.948     8.823
    28   6 C        2.952    -0.023    28.579     8.768
    29   1 H        0.926     0.058     2.228     2.334
    30   1 H        0.926     0.062     2.171     2.304
    31   1 H        0.926     0.064     2.153     2.295
    32   1 H        0.926     0.063     2.165     2.301
    33   1 H        0.926     0.053     2.280     2.361
    34   1 H        0.926     0.060     2.201     2.320
    35   1 H        0.926     0.069     2.099     2.266
    36   1 H        0.926     0.034     2.529     2.487
    37   1 H        0.926     0.035     2.522     2.483
    38   1 H        0.926     0.032     2.558     2.501
    39   1 H        0.926     0.035     2.521     2.483
    40   1 H        0.926     0.035     2.516     2.480
    41   1 H        0.926     0.032     2.561     2.503
    42   1 H        0.926     0.033     2.540     2.492
    43   1 H        0.926     0.032     2.556     2.500
    44   1 H        0.926     0.068     2.104     2.268
    45   1 H        0.926     0.063     2.162     2.299

molecular dipole:
                 x           y           z       tot (Debye)
 q only:        1.073      -2.568      -0.943
   full:        0.919      -2.383      -0.880       6.866

 projected vibrational frequencies (cm⁻¹)
eigval :       -0.00    -0.00    -0.00    -0.00    -0.00     0.00
eigval :        9.26    19.03    23.33    43.88    46.73    72.91
eigval :      100.37   111.67   132.22   138.90   143.43   154.38
eigval :      198.62   236.94   246.37   269.14   284.95   304.51
eigval :      315.42   363.45   364.18   375.78   389.84   394.57
eigval :      414.53   422.67   436.43   446.96   479.81   513.80
eigval :      518.43   533.83   539.37   541.01   580.53   584.39
eigval :      591.70   611.21   649.65   657.17   674.31   679.63
eigval :      692.03   707.73   738.72   751.55   758.22   770.27
eigval :      781.49   817.45   867.59   875.36   878.32   881.81
eigval :      896.98   903.03   904.09   907.52   918.34   920.80
eigval :      925.70   927.42   928.10   932.38   932.70   965.86
eigval :     1003.05  1011.12  1065.51  1069.48  1070.08  1073.53
eigval :     1101.80  1108.02  1115.20  1117.42  1120.52  1151.04
eigval :     1167.07  1174.29  1174.83  1177.18  1179.14  1188.34
eigval :     1195.12  1232.75  1241.97  1244.25  1257.92  1294.85
eigval :     1297.65  1318.54  1321.74  1353.97  1357.00  1357.37
eigval :     1396.87  1420.53  1425.56  1427.02  1441.36  1469.29
eigval :     1472.34  1484.76  1569.84  1570.43  1573.01  1576.43
eigval :     1587.34  1595.43  1596.89  1610.67  3073.95  3074.40
eigval :     3080.18  3080.94  3084.95  3088.49  3089.52  3090.92
eigval :     3094.54  3096.34  3096.52  3097.49  3098.51  3102.14
eigval :     3105.70  3106.60  3108.26

   temp. (K)  partition function   enthalpy   heat capacity  entropy
                                   cal/mol     cal/K/mol   cal/K/mol   J/K/mol
 298.15  VIB  0.411E+10            12548.461     80.935     77.148
         ROT  0.190E+08              888.752      2.981     36.286
         INT  0.781E+17            13437.213     83.916    113.434
         TR   0.727E+28             1481.254      4.968     43.705
         TOT                       14918.4670    88.8837   157.1384   657.4669

       T/K    H(0)-H(T)+PV         H(T)/Eh          T*S/Eh         G(T)/Eh
   ------------------------------------------------------------------------
    298.15    0.237741E-01    0.359865E+00    0.746615E-01    0.285203E+00
   ------------------------------------------------------------------------

         :::::::::::::::::::::::::::::::::::::::::::::::::::::
         ::                  THERMODYNAMIC                  ::
         :::::::::::::::::::::::::::::::::::::::::::::::::::::
         :: total free energy         -74.105225191549 Eh   ::
         ::.................................................::
         :: total energy              -74.390428478275 Eh   ::
         :: zero point energy           0.336090705479 Eh   ::
         :: G(RRHO) w/o ZPVE           -0.050887418754 Eh   ::
         :: G(RRHO) contrib.            0.285203286726 Eh   ::
         :::::::::::::::::::::::::::::::::::::::::::::::::::::

           -------------------------------------------------
          | TOTAL ENERGY              -74.390428478275 Eh   |
          | TOTAL ENTHALPY            -74.030563682395 Eh   |
          | TOTAL FREE ENERGY         -74.105225191549 Eh   |
          | GRADIENT NORM               0.000048232795 Eh/α |
          | HOMO-LUMO GAP               2.709544863968 eV   |
           -------------------------------------------------

 * finished run on 2025/08/25 at 06:58:18.364
