   * xtb version 6.7.1 (edcfbbe) compiled by 'albert@albert-system' on 2024-07-22

   ID    Z sym.   atoms
    1    6 C      1-9, 11-19, 21-39, 41-43, 45-61, 63, 64, 66-72
    2    7 N      10, 20, 40, 44, 62, 65
    3    1 H      73-122

          program call               : xtb data2507/gas/3DMAC-BP-CN/3DMAC-BP-CN_gas_S0_crest.xyz --gfn 2 --ohess vtight --parallel 40 --molden --ceasefiles --namespace data2507/gas/3DMAC-BP-CN/3DMAC-BP-CN_gas_S0_finalOpt
          :  Hamiltonian                  GFN2-xTB          :
 * total energy  :  -184.4885089 Eh     change       -0.2187875E-08 Eh
 * total energy  :  -184.4885105 Eh     change       -0.1658215E-05 Eh
 * total energy  :  -184.4885124 Eh     change       -0.1861644E-05 Eh
 * total energy  :  -184.4885154 Eh     change       -0.3016774E-05 Eh
 * total energy  :  -184.4885198 Eh     change       -0.4355156E-05 Eh
 * total energy  :  -184.4885258 Eh     change       -0.6076644E-05 Eh
 * total energy  :  -184.4885328 Eh     change       -0.6919022E-05 Eh
 * total energy  :  -184.4885396 Eh     change       -0.6837496E-05 Eh
 * total energy  :  -184.4885463 Eh     change       -0.6695011E-05 Eh
 * total energy  :  -184.4885530 Eh     change       -0.6692120E-05 Eh
 * total energy  :  -184.4886696 Eh     change       -0.6722170E-06 Eh
 * total energy  :  -184.4886703 Eh     change       -0.7125155E-06 Eh
 * total energy  :  -184.4886709 Eh     change       -0.6505837E-06 Eh
 * total energy  :  -184.4886714 Eh     change       -0.5320065E-06 Eh
 * total energy  :  -184.4886719 Eh     change       -0.4943503E-06 Eh
 * total energy  :  -184.4886724 Eh     change       -0.4760062E-06 Eh
 * total energy  :  -184.4886729 Eh     change       -0.4616163E-06 Eh
 * total energy  :  -184.4886735 Eh     change       -0.5997084E-06 Eh
 * total energy  :  -184.4886735 Eh     change       -0.4381121E-08 Eh
   *** GEOMETRY OPTIMIZATION CONVERGED AFTER 68 ITERATIONS ***

 final structure:
================
122
 xtb: 6.7.1 (edcfbbe)
C           -7.41560032549796        4.63696465113894        2.29019699628271
C           -6.18650264196990        4.11567383015141        1.54646552827497
C           -5.12255193536941        3.72807339699448        2.59348605985413
C           -6.49776642798029        2.90407152211019        0.68525131588293
C           -7.67040492061411        2.16852839170175        0.75806043388562
C           -7.87960393998624        1.08033439005433       -0.07200421353761
C           -6.92764188472893        0.72659737541911       -1.01146955712917
C           -5.75849812270935        1.45599656950839       -1.11086296122481
C           -5.52912874489386        2.52228997101095       -0.24861226911786
N           -4.36910589441634        3.31490160201715       -0.36151929906519
C           -3.08766247045971        2.80343032527967       -0.29576581516807
C           -1.96416122134623        3.64788359043536       -0.27459301585458
C           -0.70375809965596        3.11508546533092       -0.20986432750435
C           -0.49246852527407        1.73338225556671       -0.15301593124326
C           -1.60565640825601        0.87091347961930       -0.10568052688475
C           -2.87782208904736        1.43153738311048       -0.15955805397205
C           -1.39802665264419       -0.56855000542819        0.00651656547165
C           -2.45971338088494       -1.46402422246653        0.08143783032879
C           -2.27323950146159       -2.83952102469877        0.21874241371143
N           -3.35808587043026       -3.68814457325357        0.31443030008717
C           -3.25491053445991       -5.09375845879835        0.28934588691317
C           -2.46105211640442       -5.77289934467851        1.20545246743126
C           -2.41450926930217       -7.15410942846628        1.18642726257618
C           -3.18126772628481       -7.85590393060907        0.27365997120513
C           -4.01044731038303       -7.17987304002220       -0.60575718299692
C           -4.06256468315029       -5.79504478947653       -0.61209910721716
C           -4.95120839912080       -4.97183915686489       -1.52852025891249
C           -4.07816868779120       -4.30763967459878       -2.61245844833722
C           -6.01393449083525       -5.81831459145419       -2.22831760490369
C           -5.55490268219806       -3.89112558444832       -0.64861891875581
C           -6.88805808616636       -3.51214571606541       -0.67226426899460
C           -7.36061106599520       -2.52190824406095        0.17213520065594
C           -6.50992170642984       -1.91247890211614        1.07708073631359
C           -5.18086954818276       -2.28633518968245        1.12743332738839
C           -4.69635881451323       -3.25016112242352        0.25026328589231
C           -0.95847207630889       -3.33489313889597        0.16794406487966
C            0.09991464300446       -2.46952677748225        0.08419745451071
C           -0.08620419322912       -1.08350486893005        0.03372583700367
C            1.05160889107325       -0.20632510141025       -0.02101595125033
N            2.26656550404648       -0.72281355202192        0.01348704826915
C            3.30859048379261        0.12066336218269       -0.02807261912913
C            4.62122568436217       -0.39414797438261       -0.00207374465410
C            5.69560618795255        0.45303667226947       -0.02968187541862
N            7.02686581086210       -0.02400782406138        0.00400095628019
C            7.81298152761441        0.18888884327440       -1.12282118163760
C            7.19298742741613        0.50494491155610       -2.33473962853972
C            7.93699430187322        0.73546938698515       -3.47218302186163
C            9.31564893967351        0.64260781903696       -3.42077791171559
C            9.92729045807879        0.29535368130405       -2.23085966298545
C            9.20143343338255        0.05228685530549       -1.07300815866435
C            9.92415122366928       -0.33032282322163        0.20261998254829
C           10.81136171886048        0.85482593195893        0.62513895602859
C           10.78265149808499       -1.57930512699810       -0.06701763430182
C            8.95865905653237       -0.62876803263051        1.33379586204257
C            9.45729188887207       -1.05674015754730        2.55696657829815
C            8.63625121566445       -1.30394459453239        3.64092261991912
C            7.27396083239241       -1.10535378440008        3.51413311115323
C            6.75178623683751       -0.67725194651066        2.31176614816114
C            7.57778927283400       -0.44630725496643        1.20901235041037
C            5.48906441846796        1.86355228370049       -0.09040566143986
C            6.61889064595186        2.71282839287065       -0.08398578118233
N            7.53935745854997        3.39596228730070       -0.05622165220050
C            4.21890843481583        2.38997920353907       -0.12874490899248
C            3.10504629725673        1.53108120439990       -0.10128897980312
N            1.86697533971717        2.04807588501448       -0.14278683235646
C            0.84742426322660        1.21139508011103       -0.10699548031213
C           -4.65962761142250        4.69394734084840       -0.33218734955138
C           -4.11755692681274        5.56203730245008       -1.27198123032608
C           -4.45640094418374        6.90176092309794       -1.24866045209527
C           -5.35634125341446        7.36755557381576       -0.30694634766827
C           -5.93303515490462        6.49273822441439        0.59862220132907
C           -5.59735495174456        5.14818793975763        0.60095829226095
H           -7.80020372781427        3.87256249431239        2.96094056955889
H           -8.20008344577662        4.92659929533636        1.59456088530738
H           -7.14752591653353        5.49586860703401        2.90033594537932
H           -4.85765103854634        4.59911736145325        3.18919881832137
H           -4.21802176400951        3.34522648804826        2.12918725821771
H           -5.51855179460807        2.96004557542380        3.25489344362746
H           -8.43729994538944        2.43561662334954        1.46700198471506
H           -8.79761184692030        0.51798994155304        0.00645212411967
H           -7.09840874911587       -0.10777848417296       -1.67462636255257
H           -5.02880888809215        1.21644858454788       -1.86993934293319
H           -2.08807235226663        4.71851625535914       -0.27996278099006
H            0.16277197389482        3.75706990374417       -0.19707195762705
H           -3.74004940766104        0.79417435687519       -0.07070880207470
H           -3.46788805935052       -1.09500291325310        0.01059540836662
H           -1.90038891377107       -5.21767824901075        1.94222094666870
H           -1.79106741218434       -7.67978208571620        1.89377181477615
H           -3.14827766370194       -8.93475277722767        0.25480611559214
H           -4.61619019812167       -7.75123482850114       -1.29013050826931
H           -3.29800343126195       -3.68744854274965       -2.17996973663325
H           -3.60555069901526       -5.07283726594641       -3.22471464839985
H           -4.69715451196372       -3.68171207063116       -3.25213540372866
H           -5.54091324536055       -6.57143094270309       -2.85353961150667
H           -6.62152249848218       -5.19437238092428       -2.87918622185397
H           -6.65956776961783       -6.31171029311287       -1.50516809148644
H           -7.57654668249864       -3.98573735714435       -1.35323649619471
H           -8.40131527093924       -2.23833247494911        0.13220110590983
H           -6.88107424048098       -1.15584716315972        1.75147210925189
H           -4.51850429804071       -1.84911129889808        1.85962042246058
H           -0.77687334338599       -4.39726296832466        0.16729226505070
H            1.11157398909745       -2.84194007500305        0.05222927474073
H            4.75818326937292       -1.46387055597181        0.03905586422139
H            6.11565921244246        0.56466396495441       -2.38595969736937
H            7.43722680372804        0.98617150251094       -4.39599458127723
H            9.91101133136996        0.83215345963374       -4.30090757219493
H           11.00389599758902        0.22110405668095       -2.20780194379599
H           10.19471273675378        1.73903531978640        0.77530044366251
H           11.33496365446412        0.63643253421492        1.55226224119869
H           11.54729157244191        1.07718915796234       -0.14297957895744
H           11.48981629604303       -1.39979841023307       -0.87156973784322
H           11.34595976103146       -1.86470528147076        0.81667914304859
H           10.14301928739732       -2.41286515624344       -0.35158758793219
H           10.52131873913175       -1.19340105198540        2.67658469141260
H            9.05846528647612       -1.63727444008190        4.57673348247078
H            6.61335076296335       -1.27846611857067        4.35070418403894
H            5.68841004850310       -0.51334224100769        2.23063861147207
H            4.05575434290158        3.45603080216586       -0.17266327497669
H           -3.44928960359055        5.18043401949394       -2.02916575121763
H           -4.02837888880309        7.57632435329588       -1.97468639583007
H           -5.62435086418967        8.41304798267324       -0.28486197765060
H           -6.64902968829438        6.87704633994497        1.30674851718641

          :  Hamiltonian                  GFN2-xTB          :
         :: gradient norm              0.000051107868 Eh/a0 ::
         :: HOMO-LUMO gap              1.097615729529 eV    ::
         :: SCC energy              -187.843581544853 Eh    ::
         :: -> dispersion             -0.189725109323 Eh    ::
         :: repulsion energy           3.354908062183 Eh    ::

    * Orbital Energies and Occupations

         #    Occupation            Energy/Eh            Energy/eV
      -------------------------------------------------------------
         1        2.0000           -0.6772700             -18.4295
       ...           ...                  ...                  ...
       160        2.0000           -0.4042813             -11.0011
       161        2.0000           -0.4040164             -10.9938
       162        2.0000           -0.4011340             -10.9154
       163        2.0000           -0.3985542             -10.8452
       164        2.0000           -0.3979589             -10.8290
       165        2.0000           -0.3948087             -10.7433
       166        2.0000           -0.3895484             -10.6002
       167        2.0000           -0.3891140             -10.5883
       168        2.0000           -0.3841303             -10.4527
       169        2.0000           -0.3609206              -9.8211
       170        2.0000           -0.3559597              -9.6862
       171        2.0000           -0.3454377              -9.3998
       172        2.0000           -0.3401164              -9.2550 (HOMO)
       173                         -0.2997797              -8.1574 (LUMO)
       174                         -0.2678103              -7.2875
       175                         -0.2503394              -6.8121
       176                         -0.2434198              -6.6238
       177                         -0.2368158              -6.4441
       178                         -0.2355601              -6.4099
       179                         -0.2344840              -6.3806
       180                         -0.2305440              -6.2734
       181                         -0.2296648              -6.2495
       182                         -0.2277520              -6.1974
       183                         -0.2265256              -6.1641
       ...                                ...                  ...
       338                          1.1759686              31.9997
      -------------------------------------------------------------
                  HL-Gap            0.0403366 Eh            1.0976 eV

     #   Z          covCN         q      C6AA      α(0)
     1   6 C        3.759    -0.107    22.585     6.775
     2   6 C        3.911     0.023    20.128     6.377
     3   6 C        3.762    -0.098    22.426     6.751
     4   6 C        2.988    -0.007    28.194     8.710
     5   6 C        2.923    -0.039    28.958     8.825
     6   6 C        2.919    -0.036    28.896     8.815
     7   6 C        2.919    -0.032    28.808     8.802
     8   6 C        2.920    -0.046    29.142     8.853
     9   6 C        2.951     0.056    26.734     8.480
    10   7 N        2.754    -0.069    22.571     7.056
    11   6 C        2.909     0.069    26.456     8.434
    12   6 C        2.920    -0.057    29.415     8.894
    13   6 C        2.922    -0.028    28.698     8.785
    14   6 C        2.987    -0.015    28.383     8.739
    15   6 C        2.976     0.006    27.884     8.662
    16   6 C        2.928    -0.066    29.652     8.930
    17   6 C        2.976     0.007    27.868     8.659
    18   6 C        2.928    -0.066    29.649     8.930
    19   6 C        2.909     0.069    26.449     8.433
    20   7 N        2.754    -0.067    22.546     7.052
    21   6 C        2.951     0.056    26.739     8.481
    22   6 C        2.920    -0.046    29.132     8.851
    23   6 C        2.920    -0.033    28.818     8.803
    24   6 C        2.919    -0.037    28.909     8.817
    25   6 C        2.923    -0.038    28.946     8.823
    26   6 C        2.988    -0.007    28.195     8.710
    27   6 C        3.911     0.023    20.129     6.377
    28   6 C        3.762    -0.099    22.427     6.751
    29   6 C        3.759    -0.107    22.587     6.776
    30   6 C        2.988    -0.007    28.193     8.710
    31   6 C        2.923    -0.038    28.957     8.825
    32   6 C        2.919    -0.036    28.892     8.814
    33   6 C        2.919    -0.032    28.804     8.801
    34   6 C        2.920    -0.046    29.139     8.852
    35   6 C        2.951     0.056    26.737     8.481
    36   6 C        2.920    -0.057    29.419     8.894
    37   6 C        2.922    -0.028    28.690     8.784
    38   6 C        2.987    -0.015    28.379     8.739
    39   6 C        2.961     0.086    26.075     8.376
    40   7 N        1.849    -0.249    27.330     7.748
    41   6 C        2.966     0.082    26.172     8.391
    42   6 C        2.919    -0.054    29.333     8.881
    43   6 C        2.932     0.074    26.339     8.417
    44   7 N        2.754    -0.076    22.707     7.077
    45   6 C        2.933     0.060    26.655     8.467
    46   6 C        2.925    -0.055    29.370     8.887
    47   6 C        2.920    -0.032    28.796     8.800
    48   6 C        2.918    -0.042    29.042     8.837
    49   6 C        2.928    -0.034    28.851     8.809
    50   6 C        2.980    -0.010    28.255     8.719
    51   6 C        3.909     0.022    20.144     6.379
    52   6 C        3.762    -0.104    22.526     6.766
    53   6 C        3.760    -0.104    22.527     6.766
    54   6 C        2.980    -0.012    28.297     8.726
    55   6 C        2.929    -0.036    28.886     8.814
    56   6 C        2.917    -0.044    29.093     8.845
    57   6 C        2.920    -0.033    28.816     8.803
    58   6 C        2.924    -0.059    29.456     8.900
    59   6 C        2.926     0.060    26.666     8.468
    60   6 C        2.972     0.005    27.907     8.665
    61   6 C        1.912     0.120    28.161     8.570
    62   7 N        0.911    -0.237    26.191     7.402
    63   6 C        2.926    -0.033    28.819     8.804
    64   6 C        2.966     0.077    26.271     8.407
    65   7 N        1.849    -0.247    27.299     7.744
    66   6 C        2.961     0.085    26.106     8.381
    67   6 C        2.951     0.056    26.737     8.481
    68   6 C        2.920    -0.046    29.131     8.851
    69   6 C        2.920    -0.033    28.818     8.803
    70   6 C        2.919    -0.037    28.910     8.817
    71   6 C        2.923    -0.038    28.946     8.823
    72   6 C        2.988    -0.007    28.197     8.711
    73   1 H        0.925     0.040     2.444     2.445
    74   1 H        0.925     0.038     2.470     2.458
    75   1 H        0.925     0.041     2.433     2.439
    76   1 H        0.925     0.039     2.461     2.453
    77   1 H        0.925     0.037     2.485     2.465
    78   1 H        0.925     0.038     2.479     2.462
    79   1 H        0.926     0.039     2.456     2.451
    80   1 H        0.926     0.032     2.553     2.499
    81   1 H        0.926     0.032     2.552     2.498
    82   1 H        0.926     0.038     2.471     2.458
    83   1 H        0.926     0.038     2.469     2.457
    84   1 H        0.926     0.058     2.222     2.331
    85   1 H        0.926     0.038     2.478     2.462
    86   1 H        0.926     0.038     2.473     2.459
    87   1 H        0.926     0.041     2.442     2.444
    88   1 H        0.926     0.035     2.510     2.478
    89   1 H        0.926     0.034     2.532     2.488
    90   1 H        0.926     0.040     2.450     2.448
    91   1 H        0.925     0.037     2.485     2.465
    92   1 H        0.925     0.039     2.461     2.453
    93   1 H        0.925     0.038     2.476     2.461
    94   1 H        0.925     0.041     2.433     2.439
    95   1 H        0.925     0.041     2.442     2.444
    96   1 H        0.925     0.038     2.469     2.457
    97   1 H        0.926     0.040     2.453     2.449
    98   1 H        0.926     0.033     2.549     2.497
    99   1 H        0.926     0.033     2.547     2.496
   100   1 H        0.926     0.039     2.469     2.457
   101   1 H        0.926     0.039     2.468     2.457
   102   1 H        0.926     0.059     2.216     2.328
   103   1 H        0.926     0.061     2.188     2.313
   104   1 H        0.926     0.019     2.756     2.596
   105   1 H        0.926     0.027     2.622     2.532
   106   1 H        0.926     0.027     2.622     2.532
   107   1 H        0.926     0.032     2.561     2.502
   108   1 H        0.925     0.041     2.438     2.442
   109   1 H        0.925     0.038     2.473     2.459
   110   1 H        0.925     0.040     2.449     2.447
   111   1 H        0.925     0.039     2.460     2.453
   112   1 H        0.925     0.039     2.461     2.453
   113   1 H        0.925     0.031     2.572     2.508
   114   1 H        0.926     0.031     2.576     2.510
   115   1 H        0.926     0.026     2.648     2.545
   116   1 H        0.926     0.027     2.633     2.538
   117   1 H        0.926     0.024     2.678     2.559
   118   1 H        0.926     0.059     2.213     2.326
   119   1 H        0.926     0.040     2.445     2.445
   120   1 H        0.926     0.035     2.511     2.478
   121   1 H        0.926     0.034     2.533     2.489
   122   1 H        0.926     0.040     2.452     2.449

molecular dipole:
                 x           y           z       tot (Debye)
 q only:       -3.747      -1.039      -0.002
   full:       -4.127      -1.218      -0.000      10.938

 projected vibrational frequencies (cm⁻¹)
eigval :       -0.00    -0.00    -0.00     0.00     0.00     0.00
eigval :        7.67     9.65    12.03    12.75    17.29    21.89
eigval :       27.51    32.87    38.04    42.62    49.34    55.99
eigval :       60.71    70.46    77.23    80.63    84.25    90.08
eigval :       91.88    97.25   105.65   109.54   121.01   125.72
eigval :      127.78   136.99   139.48   142.27   146.40   164.72
eigval :      173.27   179.10   183.95   189.44   190.25   198.21
eigval :      202.21   205.71   216.94   221.68   224.29   229.98
eigval :      237.98   239.93   260.57   281.26   285.96   287.52
eigval :      294.56   302.71   305.45   309.36   314.18   322.25
eigval :      327.16   331.88   335.35   341.82   347.84   348.76
eigval :      353.98   355.75   362.20   371.95   378.11   381.80
eigval :      385.84   392.35   403.95   405.29   406.74   408.87
eigval :      411.50   414.95   420.29   433.40   436.99   439.93
eigval :      450.85   455.09   456.46   457.63   473.09   482.36
eigval :      489.77   499.18   501.58   504.83   509.48   515.05
eigval :      524.81   538.35   539.58   548.12   555.53   555.65
eigval :      560.93   561.72   565.11   572.98   574.78   575.11
eigval :      587.66   591.38   596.93   599.24   603.21   605.33
eigval :      610.66   631.27   646.91   650.32   654.64   666.71
eigval :      677.36   682.12   685.16   692.22   693.25   693.79
eigval :      695.58   707.71   713.53   724.68   725.36   726.10
eigval :      726.71   735.59   758.51   765.67   776.63   778.14
eigval :      778.36   778.41   784.27   784.76   805.18   810.23
eigval :      811.00   819.85   822.33   825.25   840.43   847.75
eigval :      849.55   857.98   864.85   868.79   882.72   886.93
eigval :      887.29   888.76   891.27   904.06   908.05   909.10
eigval :      910.97   912.36   913.18   914.12   914.39   915.53
eigval :      918.69   919.77   920.92   921.10   922.81   922.83
eigval :      936.26   938.64   939.49   942.11   942.81   944.46
eigval :      944.70   959.18   966.67   967.15   976.15  1005.74
eigval :     1010.27  1010.28  1015.29  1055.58  1062.68  1071.89
eigval :     1073.99  1074.36  1077.90  1082.38  1088.40  1100.34
eigval :     1100.60  1107.69  1107.83  1114.49  1120.72  1138.38
eigval :     1139.22  1139.76  1141.90  1152.49  1153.03  1158.47
eigval :     1161.42  1165.38  1173.23  1176.06  1177.19  1183.39
eigval :     1183.83  1185.19  1187.17  1188.54  1190.42  1190.86
eigval :     1193.39  1194.92  1199.25  1230.48  1231.39  1234.18
eigval :     1239.29  1241.16  1250.82  1257.58  1258.30  1261.73
eigval :     1268.59  1268.87  1269.42  1274.96  1275.72  1276.12
eigval :     1286.16  1291.21  1294.70  1295.89  1299.92  1304.92
eigval :     1319.94  1321.44  1325.06  1327.89  1328.23  1331.80
eigval :     1335.20  1339.40  1339.96  1345.48  1349.72  1358.95
eigval :     1392.66  1399.99  1400.04  1403.27  1416.34  1417.08
eigval :     1417.14  1418.16  1421.06  1434.05  1437.65  1438.39
eigval :     1439.92  1440.25  1441.51  1443.91  1447.65  1452.19
eigval :     1454.93  1455.89  1474.33  1475.67  1480.50  1483.29
eigval :     1484.17  1489.02  1490.26  1493.69  1493.80  1495.18
eigval :     1496.04  1496.59  1496.93  1501.93  1505.02  1508.33
eigval :     1508.37  1519.72  1524.02  1524.04  1538.61  1544.31
eigval :     1576.35  1576.44  1577.54  1580.30  1584.15  1584.56
eigval :     1585.64  1589.14  1589.42  1591.04  1593.39  1594.05
eigval :     1599.96  1601.58  1603.04  2370.02  3026.21  3026.33
eigval :     3026.81  3029.66  3029.83  3031.44  3031.58  3032.43
eigval :     3034.88  3034.93  3037.13  3043.58  3045.30  3046.25
eigval :     3046.34  3055.24  3055.49  3055.55  3075.84  3077.32
eigval :     3081.36  3081.67  3082.12  3082.22  3082.43  3083.56
eigval :     3086.54  3088.24  3088.39  3088.92  3089.16  3094.20
eigval :     3097.15  3097.19  3097.88  3097.90  3098.22  3098.45
eigval :     3100.79  3101.07  3105.17  3105.24  3110.85  3111.09
eigval :     3112.25  3112.40  3115.58  3115.71  3126.03  3139.44

   temp. (K)  partition function   enthalpy   heat capacity  entropy
                                   cal/mol     cal/K/mol   cal/K/mol   J/K/mol
 298.15  VIB  0.660E+27            35418.223    225.407    218.463
         ROT  0.325E+09              888.752      2.981     41.929
         INT  0.215E+36            36306.975    228.388    260.391
         TR   0.273E+29             1481.254      4.968     46.335
         TOT                       37788.2290   233.3565   306.7263  1283.3430

       T/K    H(0)-H(T)+PV         H(T)/Eh          T*S/Eh         G(T)/Eh
   ------------------------------------------------------------------------
    298.15    0.602194E-01    0.101999E+01    0.145736E+00    0.874251E+00
   ------------------------------------------------------------------------

         :::::::::::::::::::::::::::::::::::::::::::::::::::::
         ::                  THERMODYNAMIC                  ::
         :::::::::::::::::::::::::::::::::::::::::::::::::::::
         :: total free energy        -183.614422159899 Eh   ::
         ::.................................................::
         :: total energy             -184.488673482669 Eh   ::
         :: zero point energy           0.959767530713 Eh   ::
         :: G(RRHO) w/o ZPVE           -0.085516207943 Eh   ::
         :: G(RRHO) contrib.            0.874251322770 Eh   ::
         :::::::::::::::::::::::::::::::::::::::::::::::::::::

           -------------------------------------------------
          | TOTAL ENERGY             -184.488673482669 Eh   |
          | TOTAL ENTHALPY           -183.468686575850 Eh   |
          | TOTAL FREE ENERGY        -183.614422159899 Eh   |
          | GRADIENT NORM               0.000051061518 Eh/α |
          | HOMO-LUMO GAP               1.097615513457 eV   |
           -------------------------------------------------

 * finished run on 2025/07/17 at 18:35:17.831
