   * xtb version 6.7.1 (edcfbbe) compiled by 'albert@albert-system' on 2024-07-22

   ID    Z sym.   atoms
    1    6 C      1-9, 11-19, 21-39, 41-43, 45-61, 63, 64, 66-72
    2    7 N      10, 20, 40, 44, 62, 65
    3    1 H      73-122

          program call               : xtb data2507/gas/3DMAC-BP-CN/3DMAC-BP-CN.xyz --gfn 2 --ohess vtight --parallel 40 --molden --ceasefiles --namespace data2507/gas/3DMAC-BP-CN/3DMAC-BP-CN_gas_S0_preOpt
          :  Hamiltonian                  GFN2-xTB          :
 * total energy  :  -184.4357284 Eh     change       -0.2602690E-08 Eh
 * total energy  :  -184.4667266 Eh     change       -0.3099827E-01 Eh
 * total energy  :  -184.4789010 Eh     change       -0.1217440E-01 Eh
 * total energy  :  -184.4818017 Eh     change       -0.2900680E-02 Eh
 * total energy  :  -184.4834122 Eh     change       -0.1610517E-02 Eh
 * total energy  :  -184.4839287 Eh     change       -0.5164888E-03 Eh
 * total energy  :  -184.4846894 Eh     change       -0.7606646E-03 Eh
 * total energy  :  -184.4849167 Eh     change       -0.2273418E-03 Eh
 * total energy  :  -184.4850542 Eh     change       -0.1375006E-03 Eh
 * total energy  :  -184.4850826 Eh     change       -0.2833695E-04 Eh
 * total energy  :  -184.4870962 Eh     change       -0.4367085E-06 Eh
 * total energy  :  -184.4870965 Eh     change       -0.3312410E-06 Eh
 * total energy  :  -184.4870968 Eh     change       -0.2148585E-06 Eh
 * total energy  :  -184.4870969 Eh     change       -0.1452143E-06 Eh
 * total energy  :  -184.4870970 Eh     change       -0.1276947E-06 Eh
 * total energy  :  -184.4870971 Eh     change       -0.1229654E-06 Eh
 * total energy  :  -184.4870973 Eh     change       -0.1309556E-06 Eh
 * total energy  :  -184.4870975 Eh     change       -0.2038587E-06 Eh
 * total energy  :  -184.4870975 Eh     change       -0.5587651E-08 Eh
   *** GEOMETRY OPTIMIZATION CONVERGED AFTER 185 ITERATIONS ***

 final structure:
================
122
 xtb: 6.7.1 (edcfbbe)
C           -8.20510380114774        3.74716947492322        0.53294380376219
C           -6.91261256084829        4.45168302432659        0.08131193455237
C           -7.22788576877020        5.86853133443645       -0.43204392620877
C           -5.98225486220692        4.55921875430254        1.27331242190481
C           -6.40687693919339        5.23534762348505        2.40940407627100
C           -5.62265088336190        5.33174307048170        3.54322786930131
C           -4.38474240319301        4.71528662587941        3.56092484896007
C           -3.93710681735438        4.04153975003830        2.44446990194673
C           -4.71026893150044        3.97883842048057        1.28102801188965
N           -4.22273087639296        3.30841877463987        0.16565591597778
C           -2.89661679755087        2.81657487609470        0.18872005333970
C           -1.82131113115259        3.70799444785782        0.23457007173462
C           -0.53885629426509        3.21834674125846        0.24508863862590
C           -0.29441896891484        1.84184405796511        0.19654015607750
C           -1.36921392100841        0.93159325036705        0.14462894320359
C           -2.66523285398036        1.45199851080677        0.15458784331011
C           -1.10631764459831       -0.49820733284352        0.06111219615791
C           -2.13300748418405       -1.44210514997064       -0.00926899203518
C           -1.86555371051462       -2.79497202285858       -0.13420713656929
N           -2.93253256902586       -3.71770798517154       -0.23264733459566
C           -3.74925492796621       -3.69784007128961       -1.35811334921545
C           -3.50398620468121       -2.78088080840997       -2.38515845204024
C           -4.31062089794637       -2.72803085388819       -3.50199910711849
C           -5.37381469486350       -3.60331248154464       -3.62638341311662
C           -5.59422692990523       -4.53835805708884       -2.63315521662173
C           -4.79867866877302       -4.61220236991161       -1.49729858617488
C           -5.07355460302700       -5.69500545197700       -0.47207115738450
C           -6.50966721895406       -5.52676201397007        0.05729412268188
C           -4.91285528601775       -7.06540459110477       -1.15509604858943
C           -4.11742346929239       -5.61782194859515        0.70171112574114
C           -4.24409581228407       -6.52773624965337        1.74299044024926
C           -3.43321460329559       -6.48255222987885        2.86109951050585
C           -2.48108564360577       -5.48467793856137        2.96300704022602
C           -2.33174532497834       -4.57099558827574        1.94140532618200
C           -3.12072358255614       -4.64109868741214        0.78901977646474
C           -0.54340588558615       -3.24638811342593       -0.17417838690105
C            0.48219351158561       -2.33826745274966       -0.08650449534611
C            0.22215601551754       -0.96831636910139        0.02790992435260
C            1.32569827171914       -0.04128926843847        0.10400192474464
N            2.55909834031440       -0.51185995374591        0.08918614873142
C            3.56838517050981        0.36664267856162        0.16277983541846
C            4.89892218325389       -0.10009114352197        0.16076008270706
C            5.94146706265840        0.78418893001691        0.23875044358842
N            7.28593142329601        0.35992739933624        0.22889544263122
C            7.86977188894560       -0.08411750851064       -0.95563608026823
C            7.07150059280817       -0.38474608424067       -2.06162603576021
C            7.62918348749034       -0.82711834164148       -3.24282166072940
C            9.00046373723812       -0.96938781954834       -3.34509720581240
C            9.79367827224294       -0.65002896672214       -2.25966981658295
C            9.25906829221864       -0.20622065346639       -1.05706450557012
C           10.19672671949513        0.17526597880713        0.07251931853315
C           11.02827184043906        1.38994263375902       -0.37821763027350
C           11.11342703422940       -1.02037814832194        0.38858266448925
C            9.44305036517300        0.55881768217805        1.32922795519192
C           10.14270461949875        0.86404848750130        2.48874121392850
C            9.50072031871647        1.20708636636356        3.66364823181925
C            8.11861036335267        1.22704530372046        3.70043255306626
C            7.40034589648851        0.93442806418605        2.56067447631040
C            8.04979789683193        0.63090524249967        1.36098884604341
C            5.67818430710914        2.18648038175510        0.32820251185530
C            6.77397139708060        3.08062679971201        0.36831212651457
N            7.66250237238739        3.80459975871177        0.37314592447857
C            4.39123585466472        2.66658611840757        0.33681632531415
C            3.30945137945456        1.76775355498517        0.25649344523044
N            2.05440939874614        2.23580849762598        0.26680434589188
C            1.06736208114242        1.36269877532028        0.19138843301676
C           -4.99077581453863        3.14612840221858       -0.98204654133472
C           -4.45436181353202        2.49546094416688       -2.09761468537175
C           -5.20189958164703        2.30538860173896       -3.24039676455244
C           -6.50056055884585        2.77621774334864       -3.30081305417892
C           -7.02062554745772        3.45472534810678       -2.21515360614273
C           -6.29083370911114        3.65800778835154       -1.05134218134728
H           -8.68921048241878        4.29855257934342        1.33397599376579
H           -7.97371910275485        2.74734308905607        0.89571168627602
H           -8.90831479929485        3.65886047753672       -0.29034313835757
H           -7.91035118896576        5.83276161000468       -1.27667397831470
H           -6.31040145214461        6.35841880562394       -0.75308198634994
H           -7.68326853324003        6.47131558040144        0.34882915805375
H           -7.38024075988820        5.70194713020562        2.41551930472129
H           -5.98132285786477        5.86985672489940        4.40720220855422
H           -3.76534652138979        4.75350427553542        4.44450810436228
H           -2.97705228746192        3.55000354311541        2.47667094090428
H           -2.01253392807686        4.77014304562834        0.25978335401648
H            0.31165374840452        3.88049646022829        0.27755011674013
H           -3.52413944281424        0.80060089696265        0.12614893663693
H           -3.16731334003904       -1.13891511062543        0.02380908309737
H           -2.66489820853739       -2.10651374624307       -2.31476663814165
H           -4.10179495752662       -2.00451887772739       -4.27574334978716
H           -6.01589331093384       -3.56974744535004       -4.49308660643502
H           -6.41131327302029       -5.23338053549409       -2.75313161431244
H           -6.61421807585436       -4.55718133134644        0.54082219029830
H           -7.23199755593306       -5.58580847699725       -0.75195786449056
H           -6.74973188632324       -6.29880905983630        0.78281303545277
H           -5.10960054881096       -7.87287424545167       -0.45530689382856
H           -3.89669979867039       -7.17527824506750       -1.52951444366203
H           -5.59860967922913       -7.16533423444349       -1.99182992756661
H           -4.99938975578668       -7.29675129584593        1.68557463834160
H           -3.55470650635999       -7.20929557506032        3.64959504016853
H           -1.85455038406839       -5.41150812226824        3.83931886634548
H           -1.59792373783605       -3.78633351340347        2.04159986319391
H           -0.34538500486493       -4.30282639989839       -0.27475239445647
H            1.51271519075045       -2.65449894330057       -0.11607032421018
H            5.07449056262375       -1.16333769061651        0.10455786039163
H            6.00117824741715       -0.26247766458879       -2.00386127362547
H            6.98885852582012       -1.05476069263729       -4.08187434326997
H            9.45036298387392       -1.31357303823183       -4.26369885361739
H           10.86423017425868       -0.74091939304543       -2.36125819068927
H           10.37125373498185        2.23884352683201       -0.55806478116436
H           11.74582762410353        1.66943039503185        0.38849850043688
H           11.56974393753441        1.17098501275846       -1.29477763097118
H           11.70143605577148       -1.30258153011051       -0.47974793645259
H           11.80089842170508       -0.78198545419282        1.19472016099589
H           10.51324676873181       -1.87663174044208        0.69101081595040
H           11.22165907178011        0.84307564944171        2.47850841250875
H           10.07558957882068        1.44678260224795        4.54494607613394
H            7.59645088335233        1.46757239102177        4.61429243367543
H            6.32083094975732        0.93311428233117        2.60227648310926
H            4.18777272116098        3.72490135761269        0.39484189190159
H           -3.43529026574061        2.14221308125907       -2.07543302699156
H           -4.76389000204094        1.79324102209849       -4.08399166323923
H           -7.09812964143999        2.63068053420143       -4.18755884624210
H           -8.02654698818389        3.84017372607144       -2.28325028313306

          :  Hamiltonian                  GFN2-xTB          :
         :: gradient norm              0.000059672861 Eh/a0 ::
         :: HOMO-LUMO gap              0.860311489324 eV    ::
         :: SCC energy              -187.842064393212 Eh    ::
         :: -> dispersion             -0.183623293284 Eh    ::
         :: repulsion energy           3.354966905232 Eh    ::

    * Orbital Energies and Occupations

         #    Occupation            Energy/Eh            Energy/eV
      -------------------------------------------------------------
         1        2.0000           -0.6890799             -18.7508
       ...           ...                  ...                  ...
       160        2.0000           -0.4045317             -11.0079
       161        2.0000           -0.4031401             -10.9700
       162        2.0000           -0.4025719             -10.9545
       163        2.0000           -0.4001917             -10.8898
       164        2.0000           -0.3994303             -10.8691
       165        2.0000           -0.3982687             -10.8374
       166        2.0000           -0.3950660             -10.7503
       167        2.0000           -0.3944104             -10.7325
       168        2.0000           -0.3928437             -10.6898
       169        2.0000           -0.3628575              -9.8739
       170        2.0000           -0.3508311              -9.5466
       171        2.0000           -0.3505911              -9.5401
       172        2.0000           -0.3492875              -9.5046 (HOMO)
       173        0.0000           -0.3176717              -8.6443 (LUMO)
       174                         -0.2855697              -7.7707
       175                         -0.2688562              -7.3160
       176                         -0.2578001              -7.0151
       177                         -0.2399691              -6.5299
       178                         -0.2271095              -6.1800
       179                         -0.2263904              -6.1604
       180                         -0.2253224              -6.1313
       181                         -0.2226261              -6.0580
       182                         -0.2215665              -6.0291
       183                         -0.2209963              -6.0136
       ...                                ...                  ...
       338                          1.1642544              31.6810
      -------------------------------------------------------------
                  HL-Gap            0.0316159 Eh            0.8603 eV

     #   Z          covCN         q      C6AA      α(0)
     1   6 C        3.761    -0.103    22.520     6.765
     2   6 C        3.909     0.022    20.155     6.381
     3   6 C        3.761    -0.103    22.512     6.764
     4   6 C        2.980    -0.013    28.332     8.731
     5   6 C        2.928    -0.036    28.894     8.815
     6   6 C        2.917    -0.043    29.079     8.843
     7   6 C        2.920    -0.033    28.814     8.803
     8   6 C        2.924    -0.058    29.445     8.899
     9   6 C        2.928     0.058    26.710     8.476
    10   7 N        2.754    -0.068    22.565     7.055
    11   6 C        2.925     0.073    26.371     8.422
    12   6 C        2.919    -0.038    28.940     8.822
    13   6 C        2.923    -0.027    28.672     8.781
    14   6 C        2.988    -0.004    28.119     8.698
    15   6 C        2.976     0.008    27.837     8.655
    16   6 C        2.925    -0.045    29.109     8.848
    17   6 C        2.976     0.009    27.821     8.652
    18   6 C        2.925    -0.045    29.111     8.848
    19   6 C        2.925     0.073    26.365     8.421
    20   7 N        2.754    -0.068    22.553     7.053
    21   6 C        2.926     0.057    26.715     8.476
    22   6 C        2.924    -0.059    29.458     8.901
    23   6 C        2.920    -0.032    28.804     8.801
    24   6 C        2.917    -0.043    29.075     8.842
    25   6 C        2.928    -0.036    28.892     8.815
    26   6 C        2.980    -0.013    28.330     8.731
    27   6 C        3.909     0.022    20.154     6.381
    28   6 C        3.761    -0.103    22.519     6.765
    29   6 C        3.761    -0.103    22.514     6.764
    30   6 C        2.980    -0.013    28.329     8.731
    31   6 C        2.928    -0.036    28.893     8.815
    32   6 C        2.917    -0.043    29.076     8.842
    33   6 C        2.920    -0.033    28.814     8.803
    34   6 C        2.924    -0.058    29.445     8.899
    35   6 C        2.927     0.058    26.710     8.476
    36   6 C        2.918    -0.038    28.948     8.823
    37   6 C        2.923    -0.027    28.666     8.780
    38   6 C        2.988    -0.004    28.123     8.699
    39   6 C        2.962     0.087    26.059     8.373
    40   7 N        1.849    -0.240    27.115     7.718
    41   6 C        2.966     0.084    26.126     8.384
    42   6 C        2.919    -0.054    29.329     8.881
    43   6 C        2.931     0.078    26.269     8.405
    44   7 N        2.754    -0.073    22.658     7.070
    45   6 C        2.925     0.059    26.685     8.471
    46   6 C        2.924    -0.059    29.455     8.900
    47   6 C        2.920    -0.032    28.801     8.801
    48   6 C        2.917    -0.043    29.056     8.839
    49   6 C        2.929    -0.035    28.872     8.812
    50   6 C        2.980    -0.010    28.267     8.721
    51   6 C        3.909     0.022    20.143     6.379
    52   6 C        3.762    -0.104    22.535     6.767
    53   6 C        3.761    -0.104    22.543     6.768
    54   6 C        2.980    -0.008    28.220     8.714
    55   6 C        2.929    -0.033    28.831     8.806
    56   6 C        2.918    -0.040    28.996     8.830
    57   6 C        2.920    -0.031    28.780     8.797
    58   6 C        2.925    -0.054    29.353     8.885
    59   6 C        2.933     0.059    26.673     8.470
    60   6 C        2.972     0.010    27.801     8.649
    61   6 C        1.912     0.120    28.146     8.568
    62   7 N        0.911    -0.227    25.972     7.371
    63   6 C        2.926    -0.031    28.781     8.798
    64   6 C        2.967     0.080    26.212     8.398
    65   7 N        1.849    -0.237    27.061     7.710
    66   6 C        2.962     0.085    26.104     8.380
    67   6 C        2.926     0.057    26.713     8.476
    68   6 C        2.924    -0.059    29.462     8.901
    69   6 C        2.920    -0.032    28.806     8.801
    70   6 C        2.917    -0.043    29.080     8.843
    71   6 C        2.928    -0.036    28.893     8.815
    72   6 C        2.980    -0.013    28.333     8.731
    73   1 H        0.925     0.040     2.453     2.449
    74   1 H        0.925     0.031     2.569     2.506
    75   1 H        0.925     0.040     2.453     2.449
    76   1 H        0.925     0.040     2.455     2.450
    77   1 H        0.925     0.032     2.564     2.504
    78   1 H        0.925     0.040     2.452     2.449
    79   1 H        0.926     0.031     2.573     2.509
    80   1 H        0.926     0.027     2.623     2.533
    81   1 H        0.926     0.028     2.609     2.526
    82   1 H        0.926     0.025     2.660     2.550
    83   1 H        0.926     0.048     2.348     2.396
    84   1 H        0.926     0.066     2.127     2.281
    85   1 H        0.926     0.048     2.346     2.395
    86   1 H        0.926     0.048     2.344     2.394
    87   1 H        0.926     0.025     2.661     2.551
    88   1 H        0.926     0.028     2.613     2.528
    89   1 H        0.926     0.028     2.620     2.531
    90   1 H        0.926     0.031     2.570     2.507
    91   1 H        0.925     0.031     2.568     2.506
    92   1 H        0.925     0.040     2.451     2.448
    93   1 H        0.925     0.040     2.452     2.449
    94   1 H        0.925     0.040     2.452     2.449
    95   1 H        0.925     0.032     2.564     2.504
    96   1 H        0.925     0.040     2.453     2.449
    97   1 H        0.926     0.031     2.571     2.507
    98   1 H        0.926     0.028     2.621     2.532
    99   1 H        0.926     0.029     2.607     2.525
   100   1 H        0.926     0.025     2.654     2.548
   101   1 H        0.926     0.048     2.347     2.396
   102   1 H        0.926     0.067     2.121     2.278
   103   1 H        0.926     0.065     2.137     2.286
   104   1 H        0.926     0.024     2.669     2.555
   105   1 H        0.926     0.029     2.600     2.521
   106   1 H        0.926     0.029     2.606     2.524
   107   1 H        0.926     0.033     2.541     2.493
   108   1 H        0.925     0.040     2.444     2.445
   109   1 H        0.925     0.042     2.428     2.437
   110   1 H        0.925     0.040     2.455     2.450
   111   1 H        0.925     0.041     2.442     2.444
   112   1 H        0.925     0.041     2.441     2.443
   113   1 H        0.925     0.032     2.559     2.502
   114   1 H        0.926     0.034     2.523     2.484
   115   1 H        0.926     0.031     2.577     2.510
   116   1 H        0.926     0.030     2.587     2.515
   117   1 H        0.926     0.018     2.761     2.598
   118   1 H        0.926     0.064     2.157     2.297
   119   1 H        0.926     0.025     2.665     2.553
   120   1 H        0.926     0.028     2.618     2.530
   121   1 H        0.926     0.027     2.624     2.533
   122   1 H        0.926     0.031     2.572     2.508

molecular dipole:
                 x           y           z       tot (Debye)
 q only:       -1.199      -0.796      -0.046
   full:       -1.550      -0.984      -0.062       4.671

 projected vibrational frequencies (cm⁻¹)
eigval :       -0.00    -0.00    -0.00    -0.00     0.00     0.00
eigval :        6.36     7.70     9.89    10.66    12.00    12.30
eigval :       17.41    23.54    28.81    35.61    37.00    41.91
eigval :       53.46    66.61    72.88    81.72    86.10    89.49
eigval :       93.26    95.53   101.20   103.06   105.67   112.85
eigval :      116.00   122.18   125.13   126.50   127.28   128.53
eigval :      148.47   151.78   175.11   189.12   189.19   194.07
eigval :      197.16   211.40   215.43   218.31   219.72   225.27
eigval :      232.38   235.88   238.58   243.85   247.53   260.74
eigval :      292.57   298.93   304.10   304.59   307.57   314.68
eigval :      329.01   332.70   333.42   335.88   339.12   342.34
eigval :      346.35   348.52   350.91   360.66   377.35   378.49
eigval :      380.30   381.45   384.54   390.34   401.87   408.25
eigval :      409.03   412.14   413.07   430.98   438.65   447.47
eigval :      452.77   453.97   454.97   461.14   471.00   485.92
eigval :      495.25   498.21   503.89   511.11   514.56   514.71
eigval :      515.22   534.62   540.01   547.32   547.49   548.12
eigval :      552.12   554.18   559.37   562.76   573.41   585.61
eigval :      586.63   588.08   598.54   601.92   611.35   612.55
eigval :      623.91   646.49   652.65   655.04   659.71   664.29
eigval :      678.48   682.85   683.34   683.44   693.45   694.34
eigval :      694.44   696.00   698.25   706.78   713.80   727.36
eigval :      731.99   735.71   761.12   769.46   776.12   776.89
eigval :      777.46   778.43   778.69   778.88   804.70   823.77
eigval :      824.28   825.39   834.17   836.06   839.48   849.42
eigval :      864.61   865.37   867.40   869.30   869.57   870.29
eigval :      874.22   886.42   886.78   904.38   910.42   913.05
eigval :      913.18   913.76   914.30   914.36   914.70   915.43
eigval :      915.75   916.24   920.80   921.75   921.75   921.79
eigval :      922.05   922.27   928.46   928.99   938.50   938.65
eigval :      939.66   957.40   957.47   959.36   976.29  1002.65
eigval :     1014.53  1014.56  1015.23  1047.49  1062.04  1071.76
eigval :     1077.00  1077.08  1077.73  1085.51  1091.19  1114.86
eigval :     1115.49  1115.70  1120.87  1120.93  1121.08  1136.05
eigval :     1141.38  1141.54  1141.89  1142.26  1148.15  1160.14
eigval :     1160.22  1161.19  1169.85  1172.03  1172.68  1182.73
eigval :     1186.68  1187.11  1187.28  1188.46  1188.63  1189.61
eigval :     1193.13  1193.73  1195.56  1224.80  1225.66  1238.73
eigval :     1244.39  1244.67  1250.29  1251.20  1251.50  1257.25
eigval :     1267.01  1268.40  1268.74  1274.50  1278.05  1280.34
eigval :     1293.94  1295.47  1295.54  1295.59  1310.45  1317.12
eigval :     1319.58  1322.26  1323.82  1326.15  1332.45  1333.58
eigval :     1333.79  1335.35  1336.05  1339.31  1341.58  1352.56
eigval :     1380.20  1401.11  1403.37  1403.42  1403.71  1418.46
eigval :     1421.42  1421.45  1421.51  1432.13  1433.03  1436.06
eigval :     1437.11  1437.72  1439.39  1441.46  1441.68  1446.78
eigval :     1468.11  1478.05  1478.85  1479.18  1479.93  1488.26
eigval :     1489.63  1489.74  1489.87  1490.93  1490.98  1491.14
eigval :     1494.31  1494.88  1495.40  1500.58  1500.72  1501.67
eigval :     1504.41  1505.03  1505.21  1519.94  1541.05  1550.99
eigval :     1575.27  1575.65  1576.91  1577.63  1582.53  1587.03
eigval :     1590.74  1591.54  1592.98  1593.05  1593.37  1593.69
eigval :     1602.13  1602.34  1602.46  2371.99  3026.52  3026.61
eigval :     3027.66  3028.65  3028.68  3032.31  3038.78  3039.98
eigval :     3040.21  3043.06  3043.18  3045.55  3046.74  3048.96
eigval :     3049.21  3053.91  3054.02  3057.62  3076.10  3079.67
eigval :     3079.77  3079.87  3080.13  3080.21  3083.49  3084.44
eigval :     3084.63  3084.80  3085.19  3086.46  3089.97  3093.46
eigval :     3093.64  3095.45  3095.62  3095.94  3096.50  3096.77
eigval :     3099.58  3099.95  3101.48  3101.85  3102.10  3102.62
eigval :     3103.10  3103.40  3103.45  3113.09  3113.23  3113.39

   temp. (K)  partition function   enthalpy   heat capacity  entropy
                                   cal/mol     cal/K/mol   cal/K/mol   J/K/mol
 298.15  VIB  0.108E+30            36031.056    224.970    225.528
         ROT  0.339E+09              888.752      2.981     42.011
         INT  0.366E+38            36919.808    227.951    267.540
         TR   0.273E+29             1481.254      4.968     46.335
         TOT                       38401.0621   232.9194   313.8745  1313.2510

       T/K    H(0)-H(T)+PV         H(T)/Eh          T*S/Eh         G(T)/Eh
   ------------------------------------------------------------------------
    298.15    0.611960E-01    0.101915E+01    0.149132E+00    0.870019E+00
   ------------------------------------------------------------------------

         :::::::::::::::::::::::::::::::::::::::::::::::::::::
         ::                  THERMODYNAMIC                  ::
         :::::::::::::::::::::::::::::::::::::::::::::::::::::
         :: total free energy        -183.617078924217 Eh   ::
         ::.................................................::
         :: total energy             -184.487097487978 Eh   ::
         :: zero point energy           0.957954485267 Eh   ::
         :: G(RRHO) w/o ZPVE           -0.087935921506 Eh   ::
         :: G(RRHO) contrib.            0.870018563761 Eh   ::
         :::::::::::::::::::::::::::::::::::::::::::::::::::::

           -------------------------------------------------
          | TOTAL ENERGY             -184.487097487978 Eh   |
          | TOTAL ENTHALPY           -183.467947014920 Eh   |
          | TOTAL FREE ENERGY        -183.617078924217 Eh   |
          | GRADIENT NORM               0.000059633704 Eh/α |
          | HOMO-LUMO GAP               0.860311686056 eV   |
           -------------------------------------------------

 * finished run on 2025/07/17 at 18:22:30.513
