   * xtb version 6.7.1 (edcfbbe) compiled by 'albert@albert-system' on 2024-07-22

   ID    Z sym.   atoms
    1    6 C      1-9, 11-19, 21-39, 41-43, 45-61, 63, 64, 66-72
    2    7 N      10, 20, 40, 44, 62, 65
    3    1 H      73-122

          program call               : xtb data2507/gas/3DMAC-BP-CN/3DMAC-BP-CN_gas_S0_finalOpt.xtbopt.xyz --gfn 2 --spinpol --tblite --uhf 2 --ohess vtight --parallel 40 --molden --ceasefiles --namespace data2507/gas/3DMAC-BP-CN/3DMAC-BP-CN_gas_T1_preOpt
 * total energy  :  -184.4430467 Eh     change        0.6298458E-07 Eh
 * total energy  :  -184.4459480 Eh     change       -0.2901323E-02 Eh
 * total energy  :  -184.4470175 Eh     change       -0.1069504E-02 Eh
 * total energy  :  -184.4471489 Eh     change       -0.1314498E-03 Eh
 * total energy  :  -184.4472122 Eh     change       -0.6321653E-04 Eh
 * total energy  :  -184.4472250 Eh     change       -0.1281329E-04 Eh
 * total energy  :  -184.4472374 Eh     change       -0.1241210E-04 Eh
 * total energy  :  -184.4472474 Eh     change       -0.9992207E-05 Eh
 * total energy  :  -184.4472571 Eh     change       -0.9726857E-05 Eh
 * total energy  :  -184.4472669 Eh     change       -0.9773649E-05 Eh
 * total energy  :  -184.4475153 Eh     change       -0.3088116E-05 Eh
 * total energy  :  -184.4475155 Eh     change       -0.1656292E-06 Eh
 * total energy  :  -184.4475158 Eh     change       -0.3117953E-06 Eh
 * total energy  :  -184.4475163 Eh     change       -0.5125927E-06 Eh
 * total energy  :  -184.4475162 Eh     change        0.9274731E-07 Eh
 * total energy  :  -184.4475165 Eh     change       -0.2467753E-06 Eh
 * total energy  :  -184.4475166 Eh     change       -0.1698929E-06 Eh
 * total energy  :  -184.4475168 Eh     change       -0.1485173E-06 Eh
 * total energy  :  -184.4475168 Eh     change       -0.3966284E-07 Eh
   *** GEOMETRY OPTIMIZATION CONVERGED AFTER 104 ITERATIONS ***

 final structure:
================
122
 xtb: 6.7.1 (edcfbbe)
C           -7.47116975071625        4.61907603254217        2.34064514055083
C           -6.23259644456251        4.10681781273021        1.60637637665719
C           -5.18522442616506        3.69767768147946        2.66192034192936
C           -6.53380765139509        2.91056797441433        0.72059470469258
C           -7.70785924431445        2.17513583644386        0.76575184143784
C           -7.90584840314546        1.09905699010354       -0.08270954763882
C           -6.94090026418669        0.75926399949429       -1.01414080604272
C           -5.77029223971474        1.48927541551091       -1.08623274539200
C           -5.55154702263253        2.54226664058588       -0.20467465680253
N           -4.38932714842530        3.33390204760042       -0.28903580385417
C           -3.10843701699803        2.81342235296896       -0.22285547606731
C           -1.97970200720691        3.65576680626581       -0.17851769647903
C           -0.72273536077175        3.12291557860104       -0.11436772864739
C           -0.51126991712259        1.73510535099957       -0.08075715325616
C           -1.63157992841674        0.87499434582323       -0.05409854504394
C           -2.90435742735762        1.44341785679275       -0.10642720259228
C           -1.42327150777436       -0.55467709147931        0.03436912503129
C           -2.48051951530387       -1.46305726762058        0.08298569890683
C           -2.28484831593586       -2.83410058759842        0.19997121972561
N           -3.36417932121557       -3.69956320691270        0.26149268430183
C           -3.24370231066059       -5.10136396702211        0.20935980332748
C           -2.45777089479757       -5.78995823578165        1.12594322148970
C           -2.39454171549719       -7.16978055794340        1.08152201512250
C           -3.13779508305778       -7.86302596741135        0.14307155855575
C           -3.95912135971175       -7.17942066315675       -0.73796798943776
C           -4.02630812566114       -5.79551282191089       -0.71999206469656
C           -4.90319324850755       -4.96481908055677       -1.64073091753652
C           -4.01224825175951       -4.27259955485028       -2.69222532327472
C           -5.94121121361993       -5.80859398898249       -2.37975073141976
C           -5.53666280839985       -3.90529924135105       -0.75617965034639
C           -6.87168192908128       -3.53581852070998       -0.80558762689773
C           -7.37162003188016       -2.56166101123065        0.04183518108535
C           -6.54698329976387       -1.96101634808220        0.97639285170449
C           -5.21694266296137       -2.32640873672312        1.05278681913999
C           -4.70353585910226       -3.27261403746845        0.17240869470178
C           -0.96208942983885       -3.31840838792379        0.16036132701908
C            0.09049614533959       -2.44915124993690        0.10004016670222
C           -0.10290261840780       -1.05781274535800        0.06542961841396
C            1.02118446084371       -0.18624368082057        0.02865743293894
N            2.26580481988037       -0.66008526241682        0.06108212690335
C            3.32274896057303        0.13352436247685        0.03400067957893
C            4.63105106440161       -0.36192398696233        0.06397254980993
C            5.71327191743199        0.49509692475137        0.03823239301726
N            7.04740331626567        0.00021548098721        0.06859147476905
C            7.75307892932884       -0.04757993200016       -1.12013062198325
C            7.06438148312198        0.08366307590268       -2.33092086953435
C            7.73531673647097        0.04016666681846       -3.53311124391329
C            9.10829188359806       -0.13657845037274       -3.54814426922756
C            9.78914736012888       -0.27636945848524       -2.35292525007544
C            9.13858447215513       -0.24378073582463       -1.12752251527688
C            9.93572656779628       -0.37869675950052        0.15349271508809
C           10.87624045493059        0.83654155462257        0.25968971524446
C           10.74573547670273       -1.68705728610755        0.10634049208975
C            9.04411721586889       -0.39132417249206        1.37852039231554
C            9.60366700833963       -0.57151475487606        2.63573596690927
C            8.83944070208103       -0.55640274582776        3.78792717645743
C            7.47420463401644       -0.34681006883407        3.69592772261737
C            6.89210847255998       -0.15858965976215        2.46159751297013
C            7.66251818720031       -0.18127776021281        1.29396455130062
C            5.52080326743912        1.88512630786540       -0.01972222689170
C            6.65099380214236        2.72195397884469       -0.03584853393775
N            7.59647742141652        3.37463138143566       -0.04353681049969
C            4.22504943903647        2.40953295397819       -0.05623008895667
C            3.12024779762342        1.56948073058537       -0.03150157164032
N            1.86998773917249        2.02823615486198       -0.06666177599884
C            0.81801514561360        1.22180888388264       -0.04048734023666
C           -4.67472004762695        4.71200844783036       -0.23815951037585
C           -4.11519133137551        5.59613024303451       -1.15303217393616
C           -4.44861548129930        6.93660398715503       -1.10957439617247
C           -5.36173668022985        7.38868882444742       -0.17388274257290
C           -5.95663661263825        6.49905704789909        0.70516715509153
C           -5.62595818147378        5.15350164267903        0.68807664449193
H           -7.86800464057448        3.84436242652877        2.99216184326243
H           -8.24429781775260        4.92297868125381        1.63837933398118
H           -7.20994178008441        5.46656738671765        2.96948931710952
H           -4.92541189289821        4.55750666032158        3.27597525919601
H           -4.27603300841449        3.31894177192902        2.20337738644418
H           -5.59336874300187        2.92000053346410        3.30440537985505
H           -8.48444800456835        2.43213840860821        1.46793539566357
H           -8.82448597158939        0.53509710179519       -0.02463082337908
H           -7.10239583755192       -0.06521212812673       -1.69188620075731
H           -5.03029339890825        1.26026112013392       -1.83845485034312
H           -2.10137889752087        4.72659363688157       -0.16352746208904
H            0.14255419002749        3.76719388161400       -0.08250804688448
H           -3.76640331465222        0.80392111813573       -0.03268727390577
H           -3.48912480066201       -1.09662808770652        0.00575767170158
H           -1.91685929540704       -5.24266964225946        1.88323034067721
H           -1.77705458933906       -7.70182221637720        1.78953535448841
H           -3.09217054407000       -8.94097015497077        0.10470372795609
H           -4.54599583516708       -7.74446087730846       -1.44382454360828
H           -3.25079146718046       -3.65052109468473       -2.23012630225520
H           -3.51545178536744       -5.02184132448917       -3.30521041397087
H           -4.62298637162013       -3.64313432741422       -3.33636362501508
H           -5.44662986021965       -6.54576507663353       -3.00737823832869
H           -6.54010690031313       -5.17870354108709       -3.03297008769348
H           -6.59817311135725       -6.32107537954776       -1.68044939805555
H           -7.54013645610357       -4.00335665257649       -1.51042194492696
H           -8.41285740775741       -2.28350640678154       -0.01956602917087
H           -6.93948652672130       -1.21739789802384        1.65327440938284
H           -4.57572150850430       -1.89610050783233        1.80747771885316
H           -0.77282431026487       -4.37945796906722        0.14569215096860
H            1.10380134021264       -2.81944609484171        0.07131370700722
H            4.78198205605029       -1.42905713864996        0.10779268076290
H            5.99361677489489        0.21953328589132       -2.32224844507997
H            7.18639744242150        0.14648630312951       -4.45665036398021
H            9.64622806216588       -0.16375797370522       -4.48341367116839
H           10.86026217232145       -0.40572729609728       -2.38254041412913
H           10.28941782983600        1.75300278305288        0.27646834038251
H           11.46806659243271        0.78820003981140        1.16990602930056
H           11.55177449314140        0.87578875624865       -0.59063072225408
H           11.40841711259950       -1.70382197832713       -0.75384440817166
H           11.35297527889418       -1.80175733421420        0.99936401949868
H           10.07070474338727       -2.53815318236001        0.03722589544588
H           10.66888177438249       -0.71970596981606        2.72667094872137
H            9.30775572997978       -0.69994802791468        4.74966660141772
H            6.86192341076802       -0.32593186195797        4.58490576901578
H            5.82838116961326        0.00994044131374        2.39470058803713
H            4.07212498518192        3.47612629835096       -0.10193768956633
H           -3.43795292460570        5.22604892208096       -1.90799605214700
H           -4.00633074388990        7.62282095280238       -1.81600567195043
H           -5.62568805200119        8.43481999802473       -0.13615886755817
H           -6.68265751933493        6.87302184300951        1.40869484089541

 projected vibrational frequencies (cm⁻¹)
eigval :       -0.00    -0.00     0.00     0.00     0.00     0.00
eigval :        5.17     9.54    10.92    12.22    17.04    19.28
eigval :       27.06    31.35    37.22    42.27    48.24    55.32
eigval :       60.37    71.24    75.62    79.13    83.75    90.79
eigval :       92.32    95.63   100.64   110.06   118.06   123.67
eigval :      128.51   137.33   139.30   142.87   146.35   164.78
eigval :      173.57   176.33   182.84   189.65   190.16   196.12
eigval :      201.28   203.96   217.62   220.21   221.08   228.72
eigval :      232.07   238.66   260.31   277.57   285.68   286.25
eigval :      292.98   301.00   301.98   305.76   314.05   318.82
eigval :      325.84   328.99   332.50   340.91   347.15   348.48
eigval :      353.42   353.80   355.54   360.98   378.61   379.76
eigval :      382.72   393.26   403.79   404.98   406.55   409.06
eigval :      411.30   411.92   419.72   421.15   428.61   433.86
eigval :      449.86   456.48   457.66   465.16   473.97   482.06
eigval :      493.13   498.86   500.68   501.56   507.12   510.68
eigval :      522.82   534.78   537.83   546.04   552.85   554.41
eigval :      559.44   561.52   563.34   567.08   574.24   574.62
eigval :      586.76   589.85   595.28   595.97   599.72   602.06
eigval :      603.28   619.08   632.00   644.98   649.64   660.25
eigval :      664.48   668.39   679.75   684.88   686.12   693.12
eigval :      693.47   697.93   706.16   710.88   715.11   715.91
eigval :      725.14   725.21   730.47   744.01   774.53   775.83
eigval :      777.76   777.87   783.13   783.96   798.15   804.11
eigval :      810.22   810.91   811.50   814.83   817.67   825.71
eigval :      835.15   844.11   854.96   865.92   866.87   885.33
eigval :      885.73   888.22   890.78   897.95   906.69   907.43
eigval :      909.58   910.90   911.64   912.57   913.18   913.37
eigval :      917.35   918.48   920.01   920.29   920.69   920.84
eigval :      936.24   937.97   938.50   940.56   941.08   943.49
eigval :      943.85   957.64   959.72   966.69   968.77  1004.60
eigval :     1009.83  1009.92  1014.52  1048.09  1061.21  1071.45
eigval :     1073.94  1074.33  1077.24  1082.39  1088.41  1100.69
eigval :     1100.84  1107.77  1108.08  1110.01  1117.26  1137.24
eigval :     1139.09  1139.44  1140.57  1152.28  1152.88  1156.78
eigval :     1161.22  1165.37  1173.90  1176.26  1177.98  1183.46
eigval :     1184.24  1185.61  1186.24  1189.07  1190.22  1191.00
eigval :     1194.46  1195.56  1198.43  1227.44  1230.81  1231.51
eigval :     1233.03  1237.81  1247.46  1251.34  1257.42  1258.56
eigval :     1261.62  1269.21  1269.28  1269.90  1275.13  1275.64
eigval :     1280.98  1284.61  1293.29  1294.14  1295.20  1299.39
eigval :     1305.89  1320.43  1321.41  1324.82  1328.13  1328.48
eigval :     1332.53  1335.35  1336.60  1337.39  1340.51  1354.38
eigval :     1366.56  1386.06  1398.59  1398.77  1401.87  1402.95
eigval :     1413.52  1414.98  1415.02  1418.64  1423.56  1434.53
eigval :     1435.03  1437.19  1439.78  1440.45  1441.63  1444.73
eigval :     1454.46  1455.05  1467.32  1468.31  1474.20  1479.18
eigval :     1481.15  1484.72  1487.50  1488.21  1490.36  1492.88
eigval :     1493.17  1495.47  1495.52  1495.96  1499.51  1502.53
eigval :     1507.48  1507.77  1516.56  1520.74  1522.95  1523.04
eigval :     1533.84  1566.93  1575.18  1575.28  1581.62  1583.15
eigval :     1583.18  1584.05  1585.97  1587.21  1588.69  1588.93
eigval :     1596.79  1599.03  1599.98  2347.60  3025.49  3025.54
eigval :     3027.41  3028.18  3028.34  3030.50  3030.63  3033.88
eigval :     3033.92  3034.01  3039.00  3044.67  3044.70  3045.49
eigval :     3045.56  3054.66  3054.72  3056.27  3080.42  3080.83
eigval :     3080.88  3080.98  3080.98  3081.59  3085.94  3085.97
eigval :     3086.41  3087.66  3087.92  3088.22  3094.43  3094.54
eigval :     3094.69  3096.20  3096.30  3096.66  3097.48  3097.66
eigval :     3099.89  3101.41  3102.05  3103.86  3109.64  3109.74
eigval :     3110.95  3111.06  3111.20  3111.85  3126.21  3139.57

   temp. (K)  partition function   enthalpy   heat capacity  entropy
                                   cal/mol     cal/K/mol   cal/K/mol   J/K/mol
 298.15  VIB  0.196E+28            35632.640    226.466    220.373
         ROT  0.327E+09              888.752      2.981     41.940
         INT  0.639E+36            36521.393    229.447    262.313
         TR   0.273E+29             1481.254      4.968     46.335
         TOT                       38002.6465   234.4151   308.6481  1291.3835

       T/K    H(0)-H(T)+PV         H(T)/Eh          T*S/Eh         G(T)/Eh
   ------------------------------------------------------------------------
    298.15    0.605611E-01    0.101772E+01    0.146649E+00    0.871070E+00
   ------------------------------------------------------------------------

         :::::::::::::::::::::::::::::::::::::::::::::::::::::
         ::                  THERMODYNAMIC                  ::
         :::::::::::::::::::::::::::::::::::::::::::::::::::::
         :: total free energy        -183.576447108205 Eh   ::
         ::.................................................::
         :: total energy             -184.447516889796 Eh   ::
         :: zero point energy           0.957157362558 Eh   ::
         :: G(RRHO) w/o ZPVE           -0.086087580968 Eh   ::
         :: G(RRHO) contrib.            0.871069781590 Eh   ::
         :::::::::::::::::::::::::::::::::::::::::::::::::::::

           -------------------------------------------------
          | TOTAL ENERGY             -184.447516889796 Eh   |
          | TOTAL ENTHALPY           -183.429798455152 Eh   |
          | TOTAL FREE ENERGY        -183.576447108205 Eh   |
          | GRADIENT NORM               0.000126103385 Eh/α |
           -------------------------------------------------

 * finished run on 2025/07/17 at 18:35:56.665
