   * xtb version 6.7.1 (edcfbbe) compiled by 'albert@albert-system' on 2024-07-22

   ID    Z sym.   atoms
    1    6 C      1-9, 11-19, 21-39, 41-43, 45-61, 63, 64, 66-72
    2    7 N      10, 20, 40, 44, 62, 65
    3    1 H      73-122

          program call               : xtb data2507/gas/3DMAC-BP-CN/3DMAC-BP-CN_gas_T1_crest.xyz --gfn 2 --spinpol --tblite --uhf 2 --ohess vtight --parallel 40 --molden --ceasefiles --namespace data2507/gas/3DMAC-BP-CN/3DMAC-BP-CN_gas_T1_finalOpt
 * total energy  :  -184.4509931 Eh     change       -0.1147902E-07 Eh
 * total energy  :  -184.4510158 Eh     change       -0.2268034E-04 Eh
 * total energy  :  -184.4510072 Eh     change        0.8588215E-05 Eh
 * total energy  :  -184.4510228 Eh     change       -0.1558872E-04 Eh
 * total energy  :  -184.4510240 Eh     change       -0.1195792E-05 Eh
 * total energy  :  -184.4510250 Eh     change       -0.1046271E-05 Eh
 * total energy  :  -184.4510263 Eh     change       -0.1211141E-05 Eh
 * total energy  :  -184.4510276 Eh     change       -0.1385848E-05 Eh
 * total energy  :  -184.4510291 Eh     change       -0.1427961E-05 Eh
 * total energy  :  -184.4510300 Eh     change       -0.9765212E-06 Eh
 * total energy  :  -184.4510524 Eh     change       -0.3460800E-06 Eh
 * total energy  :  -184.4510527 Eh     change       -0.3107499E-06 Eh
 * total energy  :  -184.4510530 Eh     change       -0.3612272E-06 Eh
 * total energy  :  -184.4510537 Eh     change       -0.6987916E-06 Eh
 * total energy  :  -184.4510545 Eh     change       -0.8230129E-06 Eh
 * total energy  :  -184.4510554 Eh     change       -0.8534417E-06 Eh
 * total energy  :  -184.4510561 Eh     change       -0.6995018E-06 Eh
 * total energy  :  -184.4510567 Eh     change       -0.5620898E-06 Eh
 * total energy  :  -184.4510567 Eh     change       -0.8864447E-08 Eh
   *** GEOMETRY OPTIMIZATION CONVERGED AFTER 44 ITERATIONS ***

 final structure:
================
122
 xtb: 6.7.1 (edcfbbe)
C           -7.26818094703994        6.11483001961479        0.42099597127437
C           -7.00116961593981        4.65180976673299        0.02183251170483
C           -8.31926780879173        3.95598844091328       -0.36548411956307
C           -6.07609546527116        4.63487027254218       -1.17889157821407
C           -6.47469474304823        5.24820402647353       -2.35862042073833
C           -5.68251519051253        5.24449135382691       -3.49162920972723
C           -4.45931067508460        4.59793744456568       -3.46077457280226
C           -4.03750063925621        3.98221576148878       -2.30232039380735
C           -4.82581256469691        4.00625154713448       -1.14644558476679
N           -4.36819924304556        3.38987764596821        0.00580087474789
C           -3.06166874642570        2.82910078490522        0.00935779086336
C           -1.94655794576467        3.67541302477057        0.06658232456771
C           -0.69068425523588        3.13075214024783        0.06777235203943
C           -0.50548638479774        1.73976486024183        0.02394987784835
C           -1.62518080345857        0.87702598705490       -0.02602474606840
C           -2.89894529428914        1.46140725132695       -0.04035658431742
C           -1.42026433292167       -0.55175769451282       -0.05672609824475
C           -2.47833096360751       -1.46949521871548       -0.09123817664203
C           -2.24929118541637       -2.82840982901102       -0.10331603009909
N           -3.34656089283297       -3.73349362126837       -0.11933663800265
C           -3.66759206528174       -4.37331870822751       -1.30369009473448
C           -2.96425614001489       -4.05729815897398       -2.47133335229069
C           -3.25391327194274       -4.68369539150151       -3.66413568933390
C           -4.25776098959557       -5.63491680343494       -3.71704493681604
C           -4.96808820068522       -5.93427260857759       -2.56928706738879
C           -4.69896322641659       -5.31847878586238       -1.35480113128463
C           -5.52702838904246       -5.67440918848969       -0.13587650659393
C           -7.00226517844867       -5.34738811073389       -0.43279587997744
C           -5.36227614849664       -7.17795266166309        0.15284999905882
C           -5.09166415664398       -4.89717348040729        1.09095251008835
C           -5.74765897126496       -5.10128365048134        2.29713140476759
C           -5.38154330139025       -4.43785679727642        3.45343447405345
C           -4.32088197463976       -3.54973500192935        3.41752134706756
C           -3.65111539055471       -3.32774764983472        2.23382261025499
C           -4.03114310353021       -3.98357450654356        1.05763137791797
C           -0.94025690468831       -3.32854188103978       -0.09295024500601
C            0.11183104476146       -2.45408048623816       -0.06792634991118
C           -0.10115347650020       -1.06517681574890       -0.04466836034324
C            1.02576795805233       -0.18884825631316       -0.00496395945569
N            2.26530291094933       -0.68341815029423        0.00031750552993
C            3.31950060639780        0.12416788781650        0.03259687264013
C            4.62685484303753       -0.37915951679253        0.03583103906134
C            5.70841182905659        0.47594047520176        0.06997070130077
N            7.04360621044999       -0.01802843104869        0.07131787093314
C            7.71345195449703       -0.10898872581391       -1.13536632038682
C            6.99121818883691       -0.01579114205093       -2.32998140822739
C            7.62711437569815       -0.10901923288038       -3.54838863706048
C            8.99822683203299       -0.29447805915770       -3.59597813328809
C            9.71353837077574       -0.38647830150772       -2.41628192645669
C            9.09909344632289       -0.30316654529638       -1.17468336132908
C            9.93534481860688       -0.37793179605294        0.08631875092718
C           10.87122257694036        0.84535082069359        0.11113155636527
C           10.75139751016957       -1.68325414784599        0.07256861116055
C            9.08158286368102       -0.34032247503126        1.33715485805257
C            9.67830270492505       -0.46077440698223        2.58432766158853
C            8.94613539519456       -0.40408649875762        3.75587620822120
C            7.57562412009060       -0.21816353958012        3.69430885595648
C            6.95711915948872       -0.08883438032807        2.47027440426097
C            7.69666702713079       -0.14478977923558        1.28395462384280
C            5.51735894094850        1.86886597296544        0.10334321284571
C            6.65205116670320        2.70066745152101        0.13485901330339
N            7.60155227694087        3.34651168455590        0.15914285962681
C            4.22535156646010        2.39733043058758        0.10336663448019
C            3.11994365263892        1.55481981519380        0.06851955927803
N            1.87058595257826        2.03434682073078        0.06987420307879
C            0.82648157637205        1.21492337435279        0.03117736644459
C           -5.12485085807321        3.34983591512559        1.16498480832526
C           -4.60669140171902        2.73829902692169        2.31193996001591
C           -5.34267126951107        2.67299725533339        3.47518936892792
C           -6.61089857308188        3.22480488107030        3.52060144190624
C           -7.11718270682665        3.84889297761250        2.39580383124312
C           -6.39859839936406        3.92949785589950        1.21082861503388
H           -7.71527460988044        6.66578600728412       -0.40169229518734
H           -6.33293480337935        6.60111073121594        0.69213795272059
H           -7.94131007111248        6.16830268709098        1.27205018223342
H           -8.12380107150864        2.92235478335375       -0.64498777346827
H           -8.78886208537114        4.45579962216733       -1.20799176062211
H           -9.01920930013821        3.96015795588907        0.46533414299098
H           -7.43197708377731        5.74520191402148       -2.40118452049673
H           -6.02159264165967        5.73464339541033       -4.39130830087948
H           -3.83224349306626        4.56983477183728       -4.33916036028732
H           -3.08737277056969        3.47122322481793       -2.28857746701789
H           -2.09401909656350        4.74401354912491        0.10568852922821
H            0.18925701972537        3.75373196851313        0.10908306479041
H           -3.78607521195073        0.84942413976036       -0.08412511211895
H           -3.50245922184062       -1.13103628525532       -0.09929151373014
H           -2.18656575468008       -3.31010648451741       -2.43820824277462
H           -2.69611772987693       -4.42614667433876       -4.55191506776588
H           -4.49143530590114       -6.13499003875718       -4.64441199028537
H           -5.75539077314631       -6.67043592017140       -2.62817942441309
H           -7.35727278639913       -5.90477681183649       -1.29503162482786
H           -7.63335459545754       -5.59584662153867        0.41584401575381
H           -7.11090068286962       -4.28481944749449       -0.64224143433787
H           -5.67101480876481       -7.77309276253655       -0.70200050163046
H           -5.96037534400063       -7.47640152569851        1.00928081451401
H           -4.31899366858077       -7.40136941169775        0.36817666559726
H           -6.56890844097151       -5.80034678979645        2.34271209868886
H           -5.91493197250691       -4.61894882372434        4.37396233800027
H           -4.01100062722391       -3.03008145727693        4.31170107900923
H           -2.81842131454097       -2.64202023243242        2.21614667640037
H           -0.78159763643020       -4.39625852391298       -0.10507411942923
H            1.13173399525719       -2.80575229918311       -0.05755540392580
H            4.77487085520314       -1.44728849439158        0.00953934547033
H            5.92249996728487        0.13082434010447       -2.29610262342351
H            7.05247469424405       -0.03381363040721       -4.45922056100943
H            9.50851920384891       -0.36229011262029       -4.54453554787122
H           10.78328053096264       -0.51824172396904       -2.47185605574806
H           11.49931193312944        0.83188921735536        0.99783522164937
H           11.51195492015588        0.85820769064580       -0.76649962119909
H           10.27954786506212        1.75880596834417        0.12065487135149
H           11.39399698802869       -1.73146891664101       -0.80153781114625
H           11.37987300032823       -1.75886087709153        0.95495411910060
H           10.07990302569629       -2.53972571681611        0.05382810014697
H           10.74719484559080       -0.59421190721624        2.65123567714209
H            9.44289303537792       -0.50004944025841        4.70917859635872
H            6.98798583355596       -0.17096192794758        4.59869951788959
H            5.88866398847050        0.05702826254920        2.42526358077115
H            4.07268802881068        3.46468391399409        0.12837518095386
H           -3.61414351982534        2.31622542784092        2.28893326820402
H           -4.92252731398118        2.19307643506345        4.34625150564896
H           -7.19797878863502        3.17803336860326        4.42492375416603
H           -8.10210554460768        4.28731427929408        2.44964056695243

 projected vibrational frequencies (cm⁻¹)
eigval :       -0.00    -0.00     0.00     0.00     0.00     0.00
eigval :        4.04     5.15     6.55     9.40    10.38    12.87
eigval :       17.27    18.38    26.05    34.32    35.48    38.91
eigval :       50.39    65.35    71.62    81.17    86.03    89.72
eigval :       92.62    94.85    95.51    96.94   101.80   102.94
eigval :      114.28   119.79   127.32   128.61   128.65   128.84
eigval :      145.51   147.02   171.96   190.12   190.66   190.80
eigval :      196.67   204.68   215.88   218.68   219.47   220.47
eigval :      230.48   232.27   237.29   237.65   245.64   250.60
eigval :      294.68   296.05   303.08   303.88   306.13   314.33
eigval :      329.85   330.15   331.95   332.16   337.95   339.79
eigval :      344.78   348.02   350.30   359.44   367.97   377.57
eigval :      379.28   380.80   386.42   388.19   401.29   408.65
eigval :      409.18   411.48   411.69   431.05   435.40   440.46
eigval :      449.68   451.24   451.63   468.12   470.76   487.32
eigval :      498.05   501.45   503.96   509.29   510.38   512.54
eigval :      512.67   532.27   534.21   545.66   546.12   546.32
eigval :      549.86   550.81   555.93   562.88   568.69   584.80
eigval :      586.31   587.10   592.41   596.37   608.03   609.05
eigval :      623.24   629.78   647.79   653.00   654.08   662.74
eigval :      667.93   678.18   683.99   684.06   685.19   691.58
eigval :      693.35   695.48   695.59   698.21   700.65   712.10
eigval :      717.81   727.37   731.02   749.86   774.16   775.29
eigval :      775.64   775.97   776.96   777.34   803.10   811.57
eigval :      819.40   820.37   823.33   827.42   828.97   829.34
eigval :      835.97   860.50   865.98   866.56   866.78   867.10
eigval :      867.29   867.61   875.01   900.19   909.69   912.62
eigval :      913.24   913.31   913.57   913.74   914.44   914.56
eigval :      915.31   915.85   917.60   918.59   920.80   920.94
eigval :      921.22   921.49   921.68   921.82   938.14   938.18
eigval :      938.75   957.46   957.47   960.09   960.21   999.06
eigval :     1014.13  1014.16  1014.75  1039.82  1062.20  1070.81
eigval :     1076.97  1077.03  1077.19  1085.28  1090.65  1109.53
eigval :     1111.67  1112.15  1116.73  1118.09  1118.36  1133.25
eigval :     1140.41  1140.43  1140.54  1142.54  1146.86  1156.65
eigval :     1157.98  1158.02  1168.67  1169.59  1172.54  1185.54
eigval :     1186.27  1186.30  1186.35  1187.01  1187.45  1188.14
eigval :     1190.24  1190.73  1193.43  1220.29  1224.21  1237.75
eigval :     1242.22  1242.72  1245.82  1247.19  1248.48  1248.80
eigval :     1261.20  1261.82  1264.76  1267.22  1274.86  1286.95
eigval :     1290.96  1294.91  1294.97  1295.23  1299.67  1311.34
eigval :     1314.96  1320.95  1324.55  1324.64  1324.75  1334.46
eigval :     1334.72  1335.50  1336.08  1337.32  1338.75  1340.23
eigval :     1352.69  1373.82  1399.23  1402.09  1402.46  1402.56
eigval :     1402.86  1413.40  1419.84  1420.40  1420.45  1426.25
eigval :     1434.15  1434.45  1434.92  1435.88  1438.50  1438.77
eigval :     1459.53  1466.94  1469.15  1470.73  1471.17  1477.69
eigval :     1483.33  1487.86  1488.16  1488.43  1489.23  1489.34
eigval :     1489.48  1490.29  1490.31  1493.01  1499.99  1500.01
eigval :     1500.58  1502.49  1503.96  1504.08  1515.61  1524.16
eigval :     1536.52  1566.48  1569.30  1569.45  1574.20  1580.35
eigval :     1580.91  1584.83  1585.58  1586.69  1588.13  1588.33
eigval :     1596.06  1598.23  1598.65  2350.06  3027.01  3027.14
eigval :     3027.81  3029.05  3029.15  3034.27  3039.71  3040.64
eigval :     3040.72  3043.15  3043.26  3046.13  3046.77  3049.60
eigval :     3049.69  3053.02  3053.15  3057.35  3080.59  3080.71
eigval :     3080.84  3081.01  3081.61  3081.73  3085.09  3085.25
eigval :     3085.44  3085.57  3086.60  3086.76  3090.17  3090.99
eigval :     3095.27  3095.66  3095.90  3096.08  3096.27  3096.67
eigval :     3097.59  3100.91  3101.09  3102.54  3102.69  3103.32
eigval :     3103.55  3104.02  3104.08  3104.18  3104.29  3108.24

   temp. (K)  partition function   enthalpy   heat capacity  entropy
                                   cal/mol     cal/K/mol   cal/K/mol   J/K/mol
 298.15  VIB  0.128E+31            36284.508    225.829    228.869
         ROT  0.342E+09              888.752      2.981     42.029
         INT  0.436E+39            37173.260    228.810    270.898
         TR   0.273E+29             1481.254      4.968     46.335
         TOT                       38654.5144   233.7780   317.2325  1327.3009

       T/K    H(0)-H(T)+PV         H(T)/Eh          T*S/Eh         G(T)/Eh
   ------------------------------------------------------------------------
    298.15    0.615999E-01    0.101671E+01    0.150727E+00    0.865978E+00
   ------------------------------------------------------------------------

         :::::::::::::::::::::::::::::::::::::::::::::::::::::
         ::                  THERMODYNAMIC                  ::
         :::::::::::::::::::::::::::::::::::::::::::::::::::::
         :: total free energy        -183.585078912151 Eh   ::
         ::.................................................::
         :: total energy             -184.451056529471 Eh   ::
         :: zero point energy           0.955105134121 Eh   ::
         :: G(RRHO) w/o ZPVE           -0.089127516801 Eh   ::
         :: G(RRHO) contrib.            0.865977617320 Eh   ::
         :::::::::::::::::::::::::::::::::::::::::::::::::::::

           -------------------------------------------------
          | TOTAL ENERGY             -184.451056529471 Eh   |
          | TOTAL ENTHALPY           -183.434351505665 Eh   |
          | TOTAL FREE ENERGY        -183.585078912151 Eh   |
          | GRADIENT NORM               0.000131702423 Eh/α |
           -------------------------------------------------

 * finished run on 2025/07/17 at 18:50:47.150
