   * xtb version 6.7.1 (edcfbbe) compiled by 'albert@albert-system' on 2024-07-22

   ID    Z sym.   atoms
    1    6 C      1-9, 11-14, 16-29, 31-38
    2    7 N      10, 15, 30
    3    1 H      39-63

          program call               : xtb data2507/toluene/DMAC-11-DPPZ/DMAC-11-DPPZ_toluene_S0_crest.xyz --gfn 2 --gbsa toluene --ohess vtight --parallel 40 --molden --ceasefiles --namespace data2507/toluene/DMAC-11-DPPZ/DMAC-11-DPPZ_toluene_S0_finalOpt
      * Solvation model:               GBSA
        Solvent                        toluene
        Solvent mass                       9.2140E+01 g/mol
          :  Hamiltonian                  GFN2-xTB          :
 * total energy  :   -96.5670749 Eh     change       -0.1731109E-08 Eh
 * total energy  :   -96.5671016 Eh     change       -0.2671227E-04 Eh
 * total energy  :   -96.5671070 Eh     change       -0.5319345E-05 Eh
 * total energy  :   -96.5671088 Eh     change       -0.1856425E-05 Eh
 * total energy  :   -96.5671101 Eh     change       -0.1253081E-05 Eh
 * total energy  :   -96.5671111 Eh     change       -0.1011677E-05 Eh
 * total energy  :   -96.5671123 Eh     change       -0.1265402E-05 Eh
 * total energy  :   -96.5671138 Eh     change       -0.1419401E-05 Eh
 * total energy  :   -96.5671146 Eh     change       -0.8828547E-06 Eh
 * total energy  :   -96.5671151 Eh     change       -0.4760990E-06 Eh
 * total energy  :   -96.5671178 Eh     change       -0.8951602E-06 Eh
 * total energy  :   -96.5671187 Eh     change       -0.8324355E-06 Eh
 * total energy  :   -96.5671193 Eh     change       -0.6254211E-06 Eh
 * total energy  :   -96.5671200 Eh     change       -0.6833760E-06 Eh
 * total energy  :   -96.5671207 Eh     change       -0.6734992E-06 Eh
 * total energy  :   -96.5671213 Eh     change       -0.6015180E-06 Eh
 * total energy  :   -96.5671217 Eh     change       -0.4184468E-06 Eh
 * total energy  :   -96.5671219 Eh     change       -0.1974709E-06 Eh
 * total energy  :   -96.5671219 Eh     change       -0.1424809E-08 Eh
   *** GEOMETRY OPTIMIZATION CONVERGED AFTER 22 ITERATIONS ***

 final structure:
================
63
 xtb: 6.7.1 (edcfbbe)
C           -6.90122873227469        0.18284221024386        0.77555665978935
C           -5.79903272212714       -0.37489857220976       -0.14464448614923
C           -6.41688666815374       -1.27218081266470       -1.23380982392663
C           -4.84584926797593       -1.20642131331700        0.69306234108929
C           -5.33441208278958       -2.31009302147185        1.38045851282961
C           -4.52943557886525       -3.08974644523970        2.18968296017054
C           -3.19642481963765       -2.75196887896787        2.33868749896265
C           -2.68498102553412       -1.66170834147592        1.66627073169612
C           -3.48865792216968       -0.89061091067325        0.82102279504656
N           -2.94473612971385        0.19702661797798        0.14682244404682
C           -1.57468848575940        0.51428408565382        0.31816666538271
C           -1.23045897061378        1.67994055996281        1.04485226103060
C            0.07425930827097        2.02092534275931        1.24510980052454
C            1.10475419014921        1.20630413058278        0.72484261628650
N            2.38763578590801        1.54036736847040        0.92144052965092
C            3.32076724423056        0.75007220133657        0.42040708701446
C            4.71177651410531        1.08909293671637        0.62294405717756
C            5.03931155091592        2.24656592078883        1.33633955538553
C            6.35311049376410        2.59497632243826        1.54789025749602
C            7.36333776533949        1.78287053260107        1.04431180229710
C            7.05461185244350        0.63915651154125        0.33984284300766
C            5.72738983372663        0.25913149499588        0.10614538526195
C            5.37636294329225       -0.94274922255641       -0.63929572337901
C            6.34059582057692       -1.80436304801193       -1.17650762952101
C            5.98461751327087       -2.93589646515493       -1.87836424261390
C            4.64478704611856       -3.25156895949495       -2.07532679293090
C            3.67439202454683       -2.42404284333853       -1.55977929456107
C            4.02167864499895       -1.27400651246180       -0.84386504596156
C            2.97632573515771       -0.42867483486563       -0.31067879009662
N            1.71539128298920       -0.76736340186621       -0.50911023844124
C            0.76062133119546        0.02937500588118       -0.00432892798257
C           -0.59655692265071       -0.29437030246538       -0.20158546623000
C           -3.71951202766413        1.00989591283148       -0.67133862999360
C           -3.11516927150999        2.04998738690137       -1.38484297014707
C           -3.85822397717310        2.88669135543903       -2.19126165203878
C           -5.22262491828072        2.69318653646264       -2.31134920696178
C           -5.81634188262746        1.64182967149420       -1.63769553455347
C           -5.09174867577978        0.78383467506596       -0.82079322198343
H           -7.44677023910994       -0.62249667015804        1.25925134495519
H           -6.45789147355882        0.80936927341544        1.54783999909205
H           -7.60935478233783        0.78313675721718        0.21131125939437
H           -5.63289794081119       -1.66215581774234       -1.88092533563045
H           -7.11907613739555       -0.71243232312081       -1.84512720988814
H           -6.94546921041245       -2.11152867442287       -0.79092732441307
H           -6.37728854759619       -2.57212065937599        1.28745428655521
H           -4.94151710738778       -3.94393921749287        2.70542554264609
H           -2.55031851772693       -3.33267730133623        2.98073346045520
H           -1.64641648404423       -1.40183404697084        1.80147963226577
H           -2.02774100885660        2.29024459580989        1.44313143456186
H            0.35174981287936        2.90304649825939        1.80114723450078
H            4.22981952953700        2.85181538612611        1.71354448392750
H            6.59855835292432        3.49015911800887        2.09932704178089
H            8.39795038033006        2.04760768519530        1.20593329040312
H            7.86476060986618        0.03497036790350       -0.03465822128033
H            7.38918438810787       -1.59243852135799       -1.04567217192251
H            6.75393126577212       -3.57978640070754       -2.27875132221916
H            4.36986345465350       -4.13808444107161       -2.62682987171094
H            2.62504844309104       -2.63690666674923       -1.69231874992276
H           -0.84178593539090       -1.18685875613795       -0.75710070313534
H           -2.04859368766674        2.19890023102620       -1.31230691929912
H           -3.36697011964215        3.68570923157370       -2.72698686260927
H           -5.81733170936648        3.34417030311251       -2.93433930168929
H           -6.87811035605755        1.48891799928767       -1.75685565679214

          :  Hamiltonian                  GFN2-xTB          :
         :: gradient norm              0.000040883826 Eh/a0 ::
         :: HOMO-LUMO gap              1.119453415908 eV    ::
         :: SCC energy               -98.322952639052 Eh    ::
         :: -> dispersion             -0.087816035351 Eh    ::
         :: -> Gsolv                  -0.039874542951 Eh    ::
         :: repulsion energy           1.755830757411 Eh    ::

    * Orbital Energies and Occupations

         #    Occupation            Energy/Eh            Energy/eV
      -------------------------------------------------------------
         1        2.0000           -0.6810069             -18.5311
       ...           ...                  ...                  ...
        78        2.0000           -0.4234709             -11.5232
        79        2.0000           -0.4226248             -11.5002
        80        2.0000           -0.4160235             -11.3206
        81        2.0000           -0.4114808             -11.1970
        82        2.0000           -0.4086236             -11.1192
        83        2.0000           -0.4055587             -11.0358
        84        2.0000           -0.4042430             -11.0000
        85        2.0000           -0.3989609             -10.8563
        86        2.0000           -0.3965513             -10.7907
        87        2.0000           -0.3935474             -10.7090
        88        2.0000           -0.3927137             -10.6863
        89        2.0000           -0.3574450              -9.7266
        90        2.0000           -0.3489316              -9.4949 (HOMO)
        91                         -0.3077925              -8.3755 (LUMO)
        92                         -0.2708123              -7.3692
        93                         -0.2565505              -6.9811
        94                         -0.2306557              -6.2765
        95                         -0.2257191              -6.1421
        96                         -0.2254256              -6.1341
        97                         -0.2201156              -5.9897
        98                         -0.2193596              -5.9691
        99                         -0.2079130              -5.6576
       100                         -0.1994388              -5.4270
       101                         -0.1912035              -5.2029
       ...                                ...                  ...
       177                          0.7082158              19.2715
      -------------------------------------------------------------
                  HL-Gap            0.0411392 Eh            1.1195 eV

     #   Z          covCN         q      C6AA      α(0)
     1   6 C        3.761    -0.104    22.537     6.768
     2   6 C        3.909     0.021    20.163     6.382
     3   6 C        3.761    -0.104    22.540     6.768
     4   6 C        2.979    -0.013    28.326     8.730
     5   6 C        2.928    -0.037    28.926     8.820
     6   6 C        2.917    -0.045    29.123     8.850
     7   6 C        2.920    -0.034    28.854     8.809
     8   6 C        2.924    -0.059    29.466     8.902
     9   6 C        2.925     0.058    26.697     8.473
    10   7 N        2.753    -0.071    22.625     7.064
    11   6 C        2.923     0.072    26.387     8.424
    12   6 C        2.918    -0.038    28.933     8.821
    13   6 C        2.915    -0.044    29.091     8.844
    14   6 C        2.965     0.080    26.205     8.397
    15   7 N        1.848    -0.260    27.619     7.789
    16   6 C        2.959     0.085    26.102     8.380
    17   6 C        2.987    -0.007    28.184     8.708
    18   6 C        2.924    -0.028    28.695     8.785
    19   6 C        2.916    -0.028    28.701     8.785
    20   6 C        2.918    -0.026    28.650     8.777
    21   6 C        2.922    -0.034    28.840     8.807
    22   6 C        2.976     0.005    27.902     8.665
    23   6 C        2.975     0.005    27.896     8.664
    24   6 C        2.922    -0.034    28.841     8.807
    25   6 C        2.918    -0.026    28.645     8.777
    26   6 C        2.916    -0.028    28.700     8.785
    27   6 C        2.924    -0.028    28.689     8.784
    28   6 C        2.988    -0.007    28.188     8.709
    29   6 C        2.959     0.087    26.064     8.374
    30   7 N        1.848    -0.263    27.692     7.799
    31   6 C        2.964     0.083    26.145     8.387
    32   6 C        2.920    -0.055    29.376     8.888
    33   6 C        2.928     0.058    26.694     8.473
    34   6 C        2.924    -0.059    29.461     8.901
    35   6 C        2.919    -0.034    28.858     8.809
    36   6 C        2.917    -0.045    29.119     8.849
    37   6 C        2.928    -0.037    28.924     8.820
    38   6 C        2.979    -0.013    28.323     8.730
    39   1 H        0.925     0.043     2.410     2.428
    40   1 H        0.925     0.030     2.580     2.512
    41   1 H        0.925     0.043     2.407     2.426
    42   1 H        0.925     0.030     2.580     2.512
    43   1 H        0.925     0.043     2.409     2.427
    44   1 H        0.925     0.043     2.407     2.426
    45   1 H        0.926     0.036     2.507     2.476
    46   1 H        0.926     0.028     2.610     2.526
    47   1 H        0.926     0.027     2.625     2.534
    48   1 H        0.926     0.020     2.732     2.585
    49   1 H        0.926     0.055     2.262     2.352
    50   1 H        0.926     0.059     2.208     2.324
    51   1 H        0.926     0.055     2.261     2.351
    52   1 H        0.926     0.043     2.407     2.426
    53   1 H        0.926     0.044     2.395     2.420
    54   1 H        0.926     0.046     2.368     2.407
    55   1 H        0.926     0.046     2.366     2.405
    56   1 H        0.926     0.044     2.393     2.419
    57   1 H        0.926     0.043     2.406     2.426
    58   1 H        0.926     0.055     2.262     2.352
    59   1 H        0.926     0.057     2.236     2.338
    60   1 H        0.926     0.021     2.713     2.576
    61   1 H        0.926     0.028     2.616     2.529
    62   1 H        0.926     0.028     2.609     2.526
    63   1 H        0.926     0.036     2.509     2.477

molecular dipole:
                 x           y           z       tot (Debye)
 q only:        0.571      -0.103      -0.075
   full:        0.612      -0.072      -0.050       1.571

 projected vibrational frequencies (cm⁻¹)
eigval :       -0.00    -0.00    -0.00    -0.00     0.00     0.00
eigval :       15.86    17.06    21.56    45.86    57.96    60.49
eigval :       89.08    91.50    93.44   104.41   117.62   129.55
eigval :      134.41   152.68   191.18   202.80   204.23   218.88
eigval :      231.39   241.85   255.85   290.20   292.18   305.00
eigval :      328.80   332.23   345.71   356.70   375.77   380.47
eigval :      389.56   391.91   399.87   401.19   410.80   438.86
eigval :      443.15   447.48   453.48   490.32   514.59   521.53
eigval :      532.44   538.79   546.22   547.43   560.87   572.78
eigval :      586.41   587.26   595.17   602.73   635.17   653.88
eigval :      676.79   683.27   684.70   686.50   694.34   702.20
eigval :      733.80   737.42   761.60   767.68   771.25   774.70
eigval :      778.88   790.34   818.58   827.58   836.81   854.30
eigval :      865.97   868.14   868.31   878.99   883.34   911.44
eigval :      913.96   914.12   916.66   920.26   921.27   921.97
eigval :      923.81   928.86   930.40   937.52   940.64   956.53
eigval :      985.42  1013.51  1022.23  1059.96  1075.77  1080.11
eigval :     1084.00  1101.48  1113.27  1118.76  1138.89  1139.74
eigval :     1145.77  1148.44  1158.18  1161.23  1178.40  1179.86
eigval :     1182.30  1186.76  1187.51  1209.17  1233.04  1238.54
eigval :     1243.58  1249.63  1255.28  1266.50  1283.55  1286.08
eigval :     1292.98  1294.80  1301.64  1321.94  1323.53  1331.42
eigval :     1331.74  1337.39  1348.31  1368.18  1399.03  1409.00
eigval :     1417.67  1423.43  1424.25  1432.46  1435.21  1438.42
eigval :     1460.13  1473.57  1475.15  1483.57  1486.04  1486.51
eigval :     1492.60  1496.17  1499.45  1501.73  1530.83  1554.13
eigval :     1567.08  1573.43  1584.43  1587.86  1590.20  1594.90
eigval :     1596.96  1601.64  3021.70  3024.15  3039.82  3041.88
eigval :     3048.22  3052.49  3072.81  3073.47  3077.63  3078.12
eigval :     3080.41  3080.70  3085.97  3088.17  3088.79  3090.79
eigval :     3091.35  3096.93  3097.03  3099.01  3100.25  3103.83
eigval :     3106.55  3107.05  3113.64

   temp. (K)  partition function   enthalpy   heat capacity  entropy
                                   cal/mol     cal/K/mol   cal/K/mol   J/K/mol
 298.15  VIB  0.588E+12            16842.018    112.059    101.849
         ROT  0.413E+08              888.752      2.981     37.829
         INT  0.243E+20            17730.770    115.040    139.678
         TR   0.104E+29             1481.254      4.968     44.420
         TOT                       19212.0239   120.0079   184.0984   770.2677

       T/K    H(0)-H(T)+PV         H(T)/Eh          T*S/Eh         G(T)/Eh
   ------------------------------------------------------------------------
    298.15    0.306163E-01    0.520160E+00    0.874711E-01    0.432689E+00
   ------------------------------------------------------------------------

         :::::::::::::::::::::::::::::::::::::::::::::::::::::
         ::                  THERMODYNAMIC                  ::
         :::::::::::::::::::::::::::::::::::::::::::::::::::::
         :: total free energy         -96.134432539153 Eh   ::
         ::.................................................::
         :: total energy              -96.567121886449 Eh   ::
         :: zero point energy           0.489544123247 Eh   ::
         :: G(RRHO) w/o ZPVE           -0.056854775950 Eh   ::
         :: G(RRHO) contrib.            0.432689347296 Eh   ::
         :::::::::::::::::::::::::::::::::::::::::::::::::::::

           -------------------------------------------------
          | TOTAL ENERGY              -96.567121886449 Eh   |
          | TOTAL ENTHALPY            -96.046961454311 Eh   |
          | TOTAL FREE ENERGY         -96.134432539153 Eh   |
          | GRADIENT NORM               0.000040882376 Eh/α |
          | HOMO-LUMO GAP               1.119453376913 eV   |
           -------------------------------------------------

 * finished run on 2025/09/05 at 11:29:02.483
