   * xtb version 6.7.1 (edcfbbe) compiled by 'albert@albert-system' on 2024-07-22

   ID    Z sym.   atoms
    1    6 C      1-9, 11-14, 16-29, 31-38
    2    7 N      10, 15, 30
    3    1 H      39-63

          program call               : xtb data2507/toluene/DMAC-11-DPPZ/DMAC-11-DPPZ.xyz --gfn 2 --gbsa toluene --ohess vtight --parallel 40 --molden --ceasefiles --namespace data2507/toluene/DMAC-11-DPPZ/DMAC-11-DPPZ_toluene_S0_preOpt
      * Solvation model:               GBSA
        Solvent                        toluene
        Solvent mass                       9.2140E+01 g/mol
          :  Hamiltonian                  GFN2-xTB          :
 * total energy  :   -96.5435643 Eh     change       -0.3670607E-08 Eh
 * total energy  :   -96.5609486 Eh     change       -0.1738424E-01 Eh
 * total energy  :   -96.5658871 Eh     change       -0.4938508E-02 Eh
 * total energy  :   -96.5665261 Eh     change       -0.6390280E-03 Eh
 * total energy  :   -96.5668367 Eh     change       -0.3106013E-03 Eh
 * total energy  :   -96.5668922 Eh     change       -0.5546225E-04 Eh
 * total energy  :   -96.5669090 Eh     change       -0.1680541E-04 Eh
 * total energy  :   -96.5669147 Eh     change       -0.5715420E-05 Eh
 * total energy  :   -96.5669160 Eh     change       -0.1357609E-05 Eh
 * total energy  :   -96.5669169 Eh     change       -0.8269186E-06 Eh
 * total energy  :   -96.5669191 Eh     change       -0.1021586E-05 Eh
 * total energy  :   -96.5669199 Eh     change       -0.8147631E-06 Eh
 * total energy  :   -96.5669203 Eh     change       -0.4319169E-06 Eh
 * total energy  :   -96.5669206 Eh     change       -0.2776734E-06 Eh
 * total energy  :   -96.5669209 Eh     change       -0.2620735E-06 Eh
 * total energy  :   -96.5669211 Eh     change       -0.2585915E-06 Eh
 * total energy  :   -96.5669213 Eh     change       -0.1878743E-06 Eh
 * total energy  :   -96.5669214 Eh     change       -0.1096695E-06 Eh
 * total energy  :   -96.5669215 Eh     change       -0.4385718E-07 Eh
   *** GEOMETRY OPTIMIZATION CONVERGED AFTER 21 ITERATIONS ***

 final structure:
================
63
 xtb: 6.7.1 (edcfbbe)
C           -6.52715506330645        0.71953212277077        0.00016241960851
C           -5.36529850872784       -0.29179713649804       -0.00047850986470
C           -5.91269578932973       -1.73168753414654       -0.00179320021750
C           -4.54060031616826       -0.08734204017416        1.25728230497965
C           -5.14395723909431       -0.21798079653429        2.50089795787959
C           -4.44376475775347       -0.04269931497413        3.68075055806679
C           -3.09765712847598        0.27133904701859        3.62812692414693
C           -2.47194610382779        0.40485212073709        2.40603549766362
C           -3.17849416019909        0.22886923565405        1.21271472573100
N           -2.52070826424545        0.37036056441770        0.00065694084669
C           -1.13855487237996        0.70742257772609        0.00131444030590
C           -0.76941892767854        2.07288278857401        0.00370586654353
C            0.54420309003716        2.44056354701841        0.00427433386346
C            1.55244536507451        1.45155206497651        0.00252871414526
N            2.84424016931775        1.81216832174864        0.00285577664934
C            3.75717586153965        0.85833683122560        0.00130691072615
C            5.15610918560644        1.22464753801719        0.00127399143167
C            5.51059611255392        2.57742698960323        0.00271367465589
C            6.83242511131331        2.95840952749332        0.00246667619961
C            7.82295894101770        1.98251383439920        0.00069776463688
C            7.48727497358484        0.64562863855096       -0.00065776181947
C            6.15139748592601        0.22641410051794       -0.00038256902602
C            5.77157886629205       -1.18059530119866       -0.00167852371201
C            6.71502629157981       -2.21512872379436       -0.00286813103231
C            6.33210262504934       -3.53924420329544       -0.00396352905254
C            4.98508978677120       -3.88424632880627       -0.00397273844382
C            4.03448531611274       -2.88987573354855       -0.00285219597498
C            4.40927205035392       -1.54259445849231       -0.00169421629290
C            3.38444250722105       -0.52227720169953       -0.00043861774435
N            2.11597226951142       -0.88788389752343       -0.00096086831521
C            1.18093343946551        0.07449550407423        0.00038068368800
C           -0.18500594032456       -0.27588069558627       -0.00025456800967
C           -3.17796920058032        0.23080643420894       -1.21191699375223
C           -2.47098691065976        0.40890815319758       -2.40466297443240
C           -3.09626037764163        0.27765683268165       -3.62722726829348
C           -4.44234895713743       -0.03628011730585       -3.68091349573565
C           -5.14296493288983       -0.21369512261046       -2.50163429504020
C           -4.54007872777103       -0.08525104070574       -1.25755879881034
H           -7.15170951145319        0.59223920840758        0.87980691793110
H           -6.13500990816938        1.73526378710074        0.00131723555922
H           -7.15113874113624        0.59402823604298       -0.88014227553505
H           -5.08732476412156       -2.44183298083488       -0.00247087263462
H           -6.52221686951345       -1.91327350416152       -0.88272585951431
H           -6.52216374427474       -1.91490727463420        0.87883801298868
H           -6.19327893197257       -0.46486342759080        2.55763502497320
H           -4.94540857089464       -0.15101172272002        4.63063297014682
H           -2.53041752007631        0.41293412236085        4.53649662476718
H           -1.42076432676187        0.64889746173807        2.37161551520819
H           -1.55278119177000        2.81643543242775        0.00502750291957
H            0.84493859825990        3.47683314527586        0.00597378847621
H            4.71531808943635        3.30650016316975        0.00397494390670
H            7.09901370966560        4.00462306280894        0.00355819860160
H            8.86373321740997        2.27153545786675        0.00041503410706
H            8.28297887744154       -0.08129202728146       -0.00199292246869
H            7.76842942475689       -1.98738382410269       -0.00286798398610
H            7.08586212704376       -4.31289481512679       -0.00480214702076
H            4.68915035918455       -4.92253664421914       -0.00480411044960
H            2.98021692776946       -3.11918294263347       -0.00280895729843
H           -0.45485695124540       -1.32091850471380       -0.00197881010476
H           -1.41981729978690        0.65288027465752       -2.36944218552170
H           -2.52868719626076        0.42091705177556       -4.53512725387824
H           -4.94365509029839       -0.14285944868441       -4.63117115014216
H           -6.19226998336934       -0.46045941464680       -2.55919214722983

          :  Hamiltonian                  GFN2-xTB          :
         :: gradient norm              0.000022894203 Eh/a0 ::
         :: HOMO-LUMO gap              1.023667466793 eV    ::
         :: SCC energy               -98.323226349749 Eh    ::
         :: -> dispersion             -0.087701341026 Eh    ::
         :: -> Gsolv                  -0.039866990607 Eh    ::
         :: repulsion energy           1.756304886821 Eh    ::

    * Orbital Energies and Occupations

         #    Occupation            Energy/Eh            Energy/eV
      -------------------------------------------------------------
         1        2.0000           -0.6828329             -18.5808
       ...           ...                  ...                  ...
        78        2.0000           -0.4245776             -11.5533
        79        2.0000           -0.4239887             -11.5373
        80        2.0000           -0.4171366             -11.3509
        81        2.0000           -0.4109489             -11.1825
        82        2.0000           -0.4072691             -11.0824
        83        2.0000           -0.4066735             -11.0662
        84        2.0000           -0.4035817             -10.9820
        85        2.0000           -0.3982320             -10.8364
        86        2.0000           -0.3974567             -10.8153
        87        2.0000           -0.3937680             -10.7150
        88        2.0000           -0.3928111             -10.6889
        89        2.0000           -0.3589993              -9.7689
        90        2.0000           -0.3472502              -9.4492 (HOMO)
        91                         -0.3096311              -8.4255 (LUMO)
        92                         -0.2721357              -7.4052
        93                         -0.2574234              -7.0048
        94                         -0.2319933              -6.3129
        95                         -0.2258839              -6.1466
        96                         -0.2244227              -6.1069
        97                         -0.2194373              -5.9712
        98                         -0.2184888              -5.9454
        99                         -0.2090987              -5.6899
       100                         -0.2001626              -5.4467
       101                         -0.1904368              -5.1820
       ...                                ...                  ...
       177                          0.7069984              19.2384
      -------------------------------------------------------------
                  HL-Gap            0.0376191 Eh            1.0237 eV

     #   Z          covCN         q      C6AA      α(0)
     1   6 C        3.761    -0.104    22.536     6.767
     2   6 C        3.908     0.021    20.166     6.383
     3   6 C        3.761    -0.104    22.529     6.766
     4   6 C        2.979    -0.014    28.352     8.734
     5   6 C        2.928    -0.037    28.930     8.821
     6   6 C        2.917    -0.046    29.150     8.854
     7   6 C        2.919    -0.035    28.863     8.810
     8   6 C        2.924    -0.060    29.483     8.904
     9   6 C        2.928     0.059    26.680     8.471
    10   7 N        2.755    -0.077    22.727     7.080
    11   6 C        2.923     0.074    26.337     8.416
    12   6 C        2.918    -0.037    28.925     8.819
    13   6 C        2.916    -0.043    29.061     8.840
    14   6 C        2.965     0.081    26.202     8.396
    15   7 N        1.848    -0.258    27.566     7.781
    16   6 C        2.959     0.086    26.078     8.376
    17   6 C        2.987    -0.007    28.180     8.708
    18   6 C        2.924    -0.027    28.685     8.783
    19   6 C        2.916    -0.028    28.692     8.784
    20   6 C        2.918    -0.025    28.636     8.775
    21   6 C        2.922    -0.033    28.833     8.806
    22   6 C        2.975     0.006    27.887     8.662
    23   6 C        2.975     0.006    27.885     8.662
    24   6 C        2.922    -0.033    28.834     8.806
    25   6 C        2.918    -0.025    28.634     8.775
    26   6 C        2.916    -0.028    28.691     8.784
    27   6 C        2.924    -0.027    28.681     8.782
    28   6 C        2.988    -0.007    28.182     8.708
    29   6 C        2.959     0.087    26.056     8.373
    30   7 N        1.848    -0.260    27.614     7.788
    31   6 C        2.965     0.083    26.138     8.386
    32   6 C        2.920    -0.053    29.306     8.877
    33   6 C        2.928     0.059    26.680     8.471
    34   6 C        2.924    -0.060    29.483     8.904
    35   6 C        2.919    -0.035    28.863     8.810
    36   6 C        2.917    -0.046    29.150     8.854
    37   6 C        2.928    -0.037    28.930     8.821
    38   6 C        2.979    -0.014    28.352     8.734
    39   1 H        0.925     0.043     2.415     2.430
    40   1 H        0.925     0.030     2.585     2.514
    41   1 H        0.925     0.043     2.415     2.430
    42   1 H        0.925     0.030     2.586     2.515
    43   1 H        0.925     0.042     2.417     2.431
    44   1 H        0.925     0.042     2.417     2.431
    45   1 H        0.926     0.034     2.525     2.485
    46   1 H        0.926     0.027     2.627     2.535
    47   1 H        0.926     0.026     2.638     2.540
    48   1 H        0.926     0.017     2.773     2.604
    49   1 H        0.926     0.055     2.256     2.349
    50   1 H        0.926     0.061     2.189     2.314
    51   1 H        0.926     0.056     2.252     2.347
    52   1 H        0.926     0.044     2.396     2.421
    53   1 H        0.926     0.045     2.385     2.415
    54   1 H        0.926     0.047     2.358     2.401
    55   1 H        0.926     0.047     2.356     2.400
    56   1 H        0.926     0.045     2.383     2.414
    57   1 H        0.926     0.044     2.398     2.421
    58   1 H        0.926     0.055     2.256     2.349
    59   1 H        0.926     0.058     2.221     2.330
    60   1 H        0.926     0.017     2.773     2.604
    61   1 H        0.926     0.026     2.638     2.540
    62   1 H        0.926     0.027     2.627     2.535
    63   1 H        0.926     0.034     2.525     2.485

molecular dipole:
                 x           y           z       tot (Debye)
 q only:        0.912      -0.154      -0.000
   full:        0.945      -0.111      -0.000       2.419

 projected vibrational frequencies (cm⁻¹)
eigval :       -0.00    -0.00    -0.00     0.00     0.00     0.00
eigval :      -17.36    17.09    17.53    30.52    40.20    54.58
eigval :       83.32    85.55    96.88    98.38   113.94   124.94
eigval :      133.36   147.68   190.93   194.70   200.64   218.91
eigval :      227.93   242.10   251.04   285.61   289.87   304.75
eigval :      328.73   329.17   341.81   352.19   374.64   375.48
eigval :      389.17   391.56   396.90   400.64   409.64   435.28
eigval :      442.16   443.38   448.22   485.75   512.64   518.41
eigval :      529.30   537.51   544.41   544.85   557.83   572.26
eigval :      586.36   587.26   594.40   602.28   634.15   654.15
eigval :      674.18   679.76   682.00   686.20   691.09   702.05
eigval :      733.75   733.90   761.46   768.39   769.80   776.18
eigval :      777.00   790.62   814.01   825.90   836.31   854.69
eigval :      868.38   868.98   870.05   878.00   881.03   911.64
eigval :      912.42   914.83   918.57   918.74   919.58   919.82
eigval :      922.64   931.18   931.89   936.50   940.36   954.19
eigval :      984.06  1010.23  1022.08  1059.03  1075.21  1079.23
eigval :     1083.68  1101.30  1111.28  1117.45  1135.80  1138.90
eigval :     1142.32  1147.93  1157.97  1158.89  1177.98  1179.36
eigval :     1182.24  1185.70  1186.01  1206.07  1232.62  1237.91
eigval :     1243.68  1247.88  1254.15  1265.73  1283.54  1286.96
eigval :     1292.44  1296.75  1299.57  1322.81  1323.48  1332.37
eigval :     1335.88  1338.34  1347.27  1368.29  1398.57  1406.76
eigval :     1417.31  1423.22  1423.98  1433.26  1435.82  1439.95
eigval :     1460.38  1473.32  1476.80  1483.16  1486.00  1486.74
eigval :     1494.46  1496.48  1501.67  1502.24  1531.66  1554.28
eigval :     1566.96  1573.82  1584.10  1588.71  1589.79  1595.78
eigval :     1597.57  1602.38  3021.02  3023.50  3037.83  3041.42
eigval :     3046.25  3051.69  3072.34  3072.39  3077.98  3078.51
eigval :     3079.77  3079.88  3086.48  3088.51  3088.71  3088.77
eigval :     3089.12  3094.85  3096.17  3098.07  3100.48  3104.52
eigval :     3106.06  3106.44  3114.20

   temp. (K)  partition function   enthalpy   heat capacity  entropy
                                   cal/mol     cal/K/mol   cal/K/mol   J/K/mol
 298.15  VIB  0.197E+13            16995.720    111.532    103.027
         ROT  0.413E+08              888.752      2.981     37.830
         INT  0.813E+20            17884.472    114.512    140.857
         TR   0.104E+29             1481.254      4.968     44.420
         TOT                       19365.7260   119.4806   185.2771   775.1993

       T/K    H(0)-H(T)+PV         H(T)/Eh          T*S/Eh         G(T)/Eh
   ------------------------------------------------------------------------
    298.15    0.308612E-01    0.519909E+00    0.880311E-01    0.431877E+00
   ------------------------------------------------------------------------

         :::::::::::::::::::::::::::::::::::::::::::::::::::::
         ::                  THERMODYNAMIC                  ::
         :::::::::::::::::::::::::::::::::::::::::::::::::::::
         :: total free energy         -96.135044056898 Eh   ::
         ::.................................................::
         :: total energy              -96.566921465354 Eh   ::
         :: zero point energy           0.489047274717 Eh   ::
         :: G(RRHO) w/o ZPVE           -0.057169866262 Eh   ::
         :: G(RRHO) contrib.            0.431877408456 Eh   ::
         :::::::::::::::::::::::::::::::::::::::::::::::::::::

           -------------------------------------------------
          | TOTAL ENERGY              -96.566921465354 Eh   |
          | TOTAL ENTHALPY            -96.047012941792 Eh   |
          | TOTAL FREE ENERGY         -96.135044056898 Eh   |
          | GRADIENT NORM               0.000022870793 Eh/α |
          | HOMO-LUMO GAP               1.023667165606 eV   |
           -------------------------------------------------

 * finished run on 2025/09/05 at 11:26:17.027
