   * xtb version 6.7.1 (edcfbbe) compiled by 'albert@albert-system' on 2024-07-22

   ID    Z sym.   atoms
    1    6 C      1-9, 11-14, 16-29, 31-38
    2    7 N      10, 15, 30
    3    1 H      39-63

          program call               : xtb data2507/toluene/DMAC-11-DPPZ/DMAC-11-DPPZ_toluene_S0_finalOpt.xtbopt.xyz --gfn 2 --uhf 2 --gbsa toluene --ohess vtight --parallel 40 --molden --ceasefiles --namespace data2507/toluene/DMAC-11-DPPZ/DMAC-11-DPPZ_toluene_T1_preOpt
      * Solvation model:               GBSA
        Solvent                        toluene
        Solvent mass                       9.2140E+01 g/mol
          :  Hamiltonian                  GFN2-xTB          :
 * total energy  :   -96.5143268 Eh     change       -0.7526495E-08 Eh
 * total energy  :   -96.5171249 Eh     change       -0.2798085E-02 Eh
 * total energy  :   -96.5180131 Eh     change       -0.8882858E-03 Eh
 * total energy  :   -96.5181258 Eh     change       -0.1127019E-03 Eh
 * total energy  :   -96.5181791 Eh     change       -0.5321490E-04 Eh
 * total energy  :   -96.5181898 Eh     change       -0.1075878E-04 Eh
 * total energy  :   -96.5182020 Eh     change       -0.1220229E-04 Eh
 * total energy  :   -96.5182166 Eh     change       -0.1461642E-04 Eh
 * total energy  :   -96.5182287 Eh     change       -0.1208337E-04 Eh
 * total energy  :   -96.5182363 Eh     change       -0.7560504E-05 Eh
 * total energy  :   -96.5184423 Eh     change       -0.1589185E-05 Eh
 * total energy  :   -96.5184436 Eh     change       -0.1310043E-05 Eh
 * total energy  :   -96.5184447 Eh     change       -0.1086001E-05 Eh
 * total energy  :   -96.5184456 Eh     change       -0.9043938E-06 Eh
 * total energy  :   -96.5184464 Eh     change       -0.7630724E-06 Eh
 * total energy  :   -96.5184471 Eh     change       -0.6622198E-06 Eh
 * total energy  :   -96.5184476 Eh     change       -0.5964557E-06 Eh
 * total energy  :   -96.5184482 Eh     change       -0.5601485E-06 Eh
 * total energy  :   -96.5184482 Eh     change       -0.5181064E-08 Eh
   *** GEOMETRY OPTIMIZATION CONVERGED AFTER 94 ITERATIONS ***

 final structure:
================
63
 xtb: 6.7.1 (edcfbbe)
C           -6.94701443621194        0.20800281802705        0.65567347598690
C           -5.79833610663370       -0.39396017699025       -0.17718430105939
C           -6.36141117650637       -1.35594443797717       -1.24147045471629
C           -4.88623941456543       -1.17039845443413        0.75065154267004
C           -5.39406159156106       -2.24115393048409        1.47399308326954
C           -4.61216384978765       -2.97131112102622        2.35042300373275
C           -3.28249687407467       -2.62380661421886        2.52777171427900
C           -2.75079065828974       -1.56642994250077        1.82311408647476
C           -3.53448002577821       -0.83620670734051        0.91965688433785
N           -2.96894611072052        0.20952787780364        0.21598600823048
C           -1.59441794412404        0.52195540390749        0.42677376644921
C           -1.24852029267498        1.58191816190476        1.25699464961832
C            0.08311672142270        1.89356159876136        1.46686157160169
C            1.09886592511329        1.15240858991697        0.86190268832340
N            2.38911393717452        1.42870300939309        1.04429578979816
C            3.34726753260867        0.70830191483777        0.46963430451830
C            4.72637044357653        1.02303737045058        0.67597993507528
C            5.06214795935511        2.12291264697771        1.48377766610985
C            6.37223768436419        2.46150441386532        1.70158282265070
C            7.38626965020990        1.70507776615345        1.11179035496578
C            7.07685634964479        0.62520071303564        0.31985441506647
C            5.74719431928392        0.24710619953756        0.07744504270926
C            5.38758412079295       -0.88363617506800       -0.74678918006659
C            6.33764899833065       -1.71754706180140       -1.35647745915111
C            5.96462012753845       -2.78432718031874       -2.13862195215669
C            4.61405685976050       -3.06684677771792       -2.34890844381057
C            3.65878238815124       -2.27564741542253       -1.76574867619381
C            4.02095113251559       -1.18238265065212       -0.96034881911042
C            2.99235797936425       -0.38997773362562       -0.36105576731191
N            1.70899592913051       -0.67238112613379       -0.56115150295967
C            0.73755008755284        0.04433974642994        0.00575825501769
C           -0.61076616454395       -0.23833661353018       -0.19697937039225
C           -3.69994106476100        0.97422286589068       -0.67230112021141
C           -3.06654176417466        2.00314204575807       -1.38197552781710
C           -3.77174872694621        2.79533418944223       -2.26075324475405
C           -5.12575642573109        2.57280129827213       -2.45468735775300
C           -5.75002890517155        1.54473601838974       -1.77211522473462
C           -5.06501185884586        0.72934812491015       -0.88126396161534
H           -7.50492149551504       -0.57300460212807        1.16385573218290
H           -6.54586768757584        0.88778080013067        1.40535386048766
H           -7.63408270467989        0.76143685612639        0.02233309184489
H           -5.54740252364499       -1.77930252030591       -1.82727482109393
H           -7.03451825897408       -0.83430449287817       -1.91545523154538
H           -6.90892946967503       -2.16979820488946       -0.77538762018662
H           -6.43018997209034       -2.51791548506635        1.35543625168673
H           -5.03830804919688       -3.79983727428382        2.89526139126372
H           -2.65878052283531       -3.17471697995566        3.21580749443328
H           -1.71688692472524       -1.29480343674187        1.96769222467877
H           -2.02415147729650        2.16145396473013        1.73408959176466
H            0.36398395123072        2.71470189291150        2.10747273748225
H            4.25468556287164        2.68950430129572        1.92290244770773
H            6.62058777921850        3.30880606316001        2.32349772195588
H            8.42008589859489        1.97057668810828        1.27825357502743
H            7.88395187196220        0.06311559625400       -0.12210317770870
H            7.38926815497706       -1.52728410205078       -1.21318900994688
H            6.72069366329426       -3.40774057997781       -2.59312212944121
H            4.32563597747910       -3.90515673012886       -2.96570516368028
H            2.60609547663260       -2.47059532545324       -1.90552029736192
H           -0.87938743872078       -1.06038434267089       -0.84208406233406
H           -2.01115296587801        2.17367432123058       -1.23735077890003
H           -3.26405152849245        3.58517772090949       -2.79389283761469
H           -5.68938095415862        3.19063509469194       -3.13704515317945
H           -6.80222475365856        1.37775093300874       -1.94275626507088

          :  Hamiltonian                  GFN2-xTB          :
         :: gradient norm              0.000063519311 Eh/a0 ::
         :: HOMO-LUMO gap              1.048686728641 eV    ::
         :: SCC energy               -98.276810735934 Eh    ::
         :: -> dispersion             -0.087623474858 Eh    ::
         :: -> Gsolv                  -0.040706081144 Eh    ::
         :: repulsion energy           1.758362522891 Eh    ::

    * Orbital Energies and Occupations

         #    Occupation            Energy/Eh            Energy/eV
      -------------------------------------------------------------
         1        2.0000           -0.6776935             -18.4410
       ...           ...                  ...                  ...
        79        2.0000           -0.4184919             -11.3877
        80        2.0000           -0.4153651             -11.3027
        81        2.0000           -0.4144078             -11.2766
        82        2.0000           -0.4127978             -11.2328
        83        2.0000           -0.4118513             -11.2070
        84        2.0000           -0.4071628             -11.0795
        85        2.0000           -0.4014608             -10.9243
        86        2.0000           -0.3961494             -10.7798
        87        2.0000           -0.3894548             -10.5976
        88        2.0000           -0.3836585             -10.4399
        89        1.7511           -0.3568416              -9.7102
        90        1.2489           -0.3547430              -9.6530
        91        1.0000           -0.3029039              -8.2424 (HOMO)
        92                         -0.2643654              -7.1937 (LUMO)
        93                         -0.2493641              -6.7855
        94                         -0.2349018              -6.3920
        95                         -0.2279153              -6.2019
        96                         -0.2272542              -6.1839
        97                         -0.2210006              -6.0137
        98                         -0.2171163              -5.9080
        99                         -0.1998664              -5.4386
       100                         -0.1972019              -5.3661
       101                         -0.1911628              -5.2018
       102                         -0.1494477              -4.0667
       ...                                ...                  ...
       177                          0.7109341              19.3455
      -------------------------------------------------------------
                  HL-Gap            0.0385384 Eh            1.0487 eV

     #   Z          covCN         q      C6AA      α(0)
     1   6 C        3.761    -0.106    22.575     6.773
     2   6 C        3.909     0.023    20.134     6.378
     3   6 C        3.761    -0.106    22.577     6.773
     4   6 C        2.978    -0.007    28.178     8.707
     5   6 C        2.926    -0.035    28.866     8.811
     6   6 C        2.917    -0.037    28.932     8.820
     7   6 C        2.918    -0.031    28.763     8.795
     8   6 C        2.923    -0.052    29.287     8.875
     9   6 C        2.928     0.061    26.635     8.464
    10   7 N        2.755    -0.042    22.045     6.973
    11   6 C        2.924     0.053    26.806     8.491
    12   6 C        2.916    -0.049    29.208     8.862
    13   6 C        2.918    -0.063    29.564     8.916
    14   6 C        2.940     0.086    26.096     8.378
    15   7 N        1.849    -0.245    27.247     7.736
    16   6 C        2.941     0.080    26.213     8.397
    17   6 C        2.987    -0.009    28.238     8.717
    18   6 C        2.923    -0.031    28.761     8.795
    19   6 C        2.916    -0.033    28.814     8.802
    20   6 C        2.917    -0.032    28.808     8.802
    21   6 C        2.920    -0.035    28.875     8.812
    22   6 C        2.976    -0.002    28.068     8.690
    23   6 C        2.976    -0.002    28.066     8.690
    24   6 C        2.920    -0.035    28.875     8.812
    25   6 C        2.917    -0.032    28.807     8.801
    26   6 C        2.916    -0.033    28.814     8.802
    27   6 C        2.923    -0.030    28.760     8.795
    28   6 C        2.987    -0.009    28.237     8.717
    29   6 C        2.941     0.081    26.200     8.395
    30   7 N        1.849    -0.247    27.293     7.743
    31   6 C        2.940     0.088    26.047     8.370
    32   6 C        2.920    -0.072    29.787     8.950
    33   6 C        2.929     0.061    26.638     8.464
    34   6 C        2.923    -0.052    29.290     8.875
    35   6 C        2.918    -0.031    28.763     8.795
    36   6 C        2.917    -0.038    28.933     8.821
    37   6 C        2.926    -0.035    28.865     8.811
    38   6 C        2.978    -0.007    28.178     8.707
    39   1 H        0.925     0.048     2.343     2.394
    40   1 H        0.925     0.034     2.529     2.487
    41   1 H        0.925     0.048     2.341     2.393
    42   1 H        0.925     0.034     2.532     2.488
    43   1 H        0.925     0.048     2.343     2.394
    44   1 H        0.925     0.048     2.342     2.393
    45   1 H        0.926     0.044     2.394     2.419
    46   1 H        0.926     0.037     2.483     2.464
    47   1 H        0.926     0.035     2.513     2.479
    48   1 H        0.926     0.031     2.572     2.508
    49   1 H        0.926     0.042     2.416     2.430
    50   1 H        0.926     0.048     2.350     2.397
    51   1 H        0.926     0.043     2.410     2.428
    52   1 H        0.926     0.037     2.494     2.470
    53   1 H        0.926     0.036     2.501     2.473
    54   1 H        0.926     0.039     2.464     2.455
    55   1 H        0.926     0.039     2.464     2.454
    56   1 H        0.926     0.036     2.499     2.472
    57   1 H        0.926     0.037     2.492     2.469
    58   1 H        0.926     0.043     2.408     2.427
    59   1 H        0.926     0.047     2.362     2.403
    60   1 H        0.926     0.031     2.566     2.505
    61   1 H        0.926     0.036     2.509     2.477
    62   1 H        0.926     0.037     2.484     2.464
    63   1 H        0.926     0.044     2.395     2.420

molecular dipole:
                 x           y           z       tot (Debye)
 q only:       -1.986      -0.242      -0.138
   full:       -1.891      -0.197      -0.106       4.840

 projected vibrational frequencies (cm⁻¹)
eigval :       -0.00    -0.00    -0.00    -0.00     0.00     0.00
eigval :       10.77    15.18    19.29    45.68    52.83    59.36
eigval :       84.21    90.74    92.31   103.72   114.22   129.43
eigval :      133.48   149.41   187.69   193.61   198.66   216.62
eigval :      227.76   241.31   245.83   268.68   291.58   302.68
eigval :      326.79   329.88   342.41   349.92   375.71   379.56
eigval :      389.23   394.24   401.17   404.28   410.57   423.38
eigval :      444.26   446.14   449.33   499.39   506.61   517.52
eigval :      524.06   534.67   539.06   542.72   553.56   568.52
eigval :      583.47   585.12   585.49   597.94   618.77   639.86
eigval :      651.90   671.62   675.44   683.54   685.89   695.85
eigval :      698.60   723.60   725.24   757.61   761.06   771.61
eigval :      774.58   775.85   795.50   812.03   825.28   830.72
eigval :      845.99   861.21   866.16   868.71   871.80   873.74
eigval :      905.89   910.22   912.36   912.66   915.25   915.29
eigval :      918.97   919.77   920.75   923.38   937.22   958.58
eigval :      989.25  1008.65  1013.01  1057.73  1074.71  1080.24
eigval :     1083.17  1096.77  1107.19  1113.04  1129.16  1137.68
eigval :     1141.01  1147.38  1151.44  1160.30  1176.03  1178.38
eigval :     1181.20  1183.32  1185.01  1215.25  1221.36  1235.78
eigval :     1243.18  1245.90  1255.18  1256.73  1259.89  1275.74
eigval :     1283.16  1291.83  1294.78  1310.71  1317.57  1322.87
eigval :     1327.85  1332.83  1338.79  1351.36  1366.52  1388.28
eigval :     1398.52  1406.60  1414.42  1417.03  1425.29  1426.24
eigval :     1430.30  1458.39  1462.25  1466.38  1474.96  1483.41
eigval :     1484.04  1487.42  1493.77  1498.12  1512.72  1530.50
eigval :     1531.78  1549.00  1557.99  1572.32  1580.14  1580.75
eigval :     1590.97  1591.27  3024.99  3027.06  3045.11  3046.97
eigval :     3052.40  3056.09  3072.48  3072.89  3080.12  3080.60
eigval :     3080.66  3081.46  3086.40  3087.19  3088.75  3092.33
eigval :     3093.65  3096.04  3096.48  3097.17  3097.95  3099.74
eigval :     3103.86  3105.15  3106.99

   temp. (K)  partition function   enthalpy   heat capacity  entropy
                                   cal/mol     cal/K/mol   cal/K/mol   J/K/mol
 298.15  VIB  0.166E+13            17076.705    113.194    103.837
         ROT  0.414E+08              888.752      2.981     37.835
         INT  0.689E+20            17965.458    116.175    141.672
         TR   0.104E+29             1481.254      4.968     44.420
         TOT                       19446.7117   121.1435   186.0926   778.6113

       T/K    H(0)-H(T)+PV         H(T)/Eh          T*S/Eh         G(T)/Eh
   ------------------------------------------------------------------------
    298.15    0.309903E-01    0.517652E+00    0.884186E-01    0.429233E+00
   ------------------------------------------------------------------------

         :::::::::::::::::::::::::::::::::::::::::::::::::::::
         ::                  THERMODYNAMIC                  ::
         :::::::::::::::::::::::::::::::::::::::::::::::::::::
         :: total free energy         -96.089214744100 Eh   ::
         ::.................................................::
         :: total energy              -96.518448208471 Eh   ::
         :: zero point energy           0.486661735437 Eh   ::
         :: G(RRHO) w/o ZPVE           -0.057428271066 Eh   ::
         :: G(RRHO) contrib.            0.429233464371 Eh   ::
         :::::::::::::::::::::::::::::::::::::::::::::::::::::

           -------------------------------------------------
          | TOTAL ENERGY              -96.518448208471 Eh   |
          | TOTAL ENTHALPY            -96.000796165364 Eh   |
          | TOTAL FREE ENERGY         -96.089214744100 Eh   |
          | GRADIENT NORM               0.000065133355 Eh/α |
          | HOMO-LUMO GAP               1.048683704366 eV   |
           -------------------------------------------------

 * finished run on 2025/09/05 at 11:29:09.574
