   * xtb version 6.7.1 (edcfbbe) compiled by 'albert@albert-system' on 2024-07-22

   ID    Z sym.   atoms
    1    6 C      1-9, 11-14, 16-29, 31-38
    2    7 N      10, 15, 30
    3    1 H      39-63

          program call               : xtb data2507/toluene/DMAC-11-DPPZ/DMAC-11-DPPZ_toluene_T1_crest.xyz --gfn 2 --uhf 2 --gbsa toluene --ohess vtight --parallel 40 --molden --ceasefiles --namespace data2507/toluene/DMAC-11-DPPZ/DMAC-11-DPPZ_toluene_T1_finalOpt
      * Solvation model:               GBSA
        Solvent                        toluene
        Solvent mass                       9.2140E+01 g/mol
          :  Hamiltonian                  GFN2-xTB          :
 * total energy  :   -96.5185288 Eh     change       -0.2326037E-07 Eh
 * total energy  :   -96.5185923 Eh     change       -0.6343848E-04 Eh
 * total energy  :   -96.5186192 Eh     change       -0.2692466E-04 Eh
 * total energy  :   -96.5186239 Eh     change       -0.4657461E-05 Eh
 * total energy  :   -96.5186258 Eh     change       -0.1904278E-05 Eh
 * total energy  :   -96.5186279 Eh     change       -0.2169809E-05 Eh
 * total energy  :   -96.5186315 Eh     change       -0.3543639E-05 Eh
 * total energy  :   -96.5186360 Eh     change       -0.4517164E-05 Eh
 * total energy  :   -96.5186399 Eh     change       -0.3895598E-05 Eh
 * total energy  :   -96.5186427 Eh     change       -0.2760976E-05 Eh
 * total energy  :   -96.5186527 Eh     change       -0.1877356E-05 Eh
 * total energy  :   -96.5186537 Eh     change       -0.9924250E-06 Eh
 * total energy  :   -96.5186544 Eh     change       -0.7300804E-06 Eh
 * total energy  :   -96.5186552 Eh     change       -0.7324768E-06 Eh
 * total energy  :   -96.5186559 Eh     change       -0.7057848E-06 Eh
 * total energy  :   -96.5186563 Eh     change       -0.4508980E-06 Eh
 * total energy  :   -96.5186565 Eh     change       -0.2305168E-06 Eh
 * total energy  :   -96.5186567 Eh     change       -0.1617560E-06 Eh
 * total energy  :   -96.5186567 Eh     change       -0.7930510E-09 Eh
   *** GEOMETRY OPTIMIZATION CONVERGED AFTER 22 ITERATIONS ***

 final structure:
================
63
 xtb: 6.7.1 (edcfbbe)
C           -6.96719405526547        0.43514610549034        0.36306131582417
C           -5.79061149945346       -0.38770121635338       -0.19719936616023
C           -6.31861678907439       -1.61403526298349       -0.96691939654366
C           -4.94118289525478       -0.86941234443250        0.96141965017487
C           -5.50489296723349       -1.68155793809034        1.93619779824206
C           -4.77622784032132       -2.14465028328425        3.01670477965238
C           -3.44203867755414       -1.79097307498730        3.14074908402292
C           -2.85546864651326       -0.98667138519270        2.18880125126653
C           -3.58918902593591       -0.51917126190312        1.09040019597483
N           -2.97131048133675        0.28236996303265        0.15108383892722
C           -1.59454238708695        0.61249318613209        0.32539388705759
C           -1.24296174818064        1.77588929366646        0.99954181808064
C            0.09112382347743        2.09634370861753        1.18073452183784
C            1.10224770896091        1.26506653350919        0.69736491418008
N            2.39463204893189        1.54239824609331        0.86382644976228
C            3.34810054167125        0.73818494490991        0.40372220935361
C            4.72975343493430        1.04650107948967        0.60349997264112
C            5.07470612703106        2.22107349557434        1.29369964916443
C            6.38755913369306        2.54995466012966        1.51011706196995
C            7.39535480292849        1.70717883983572        1.03872388058368
C            7.07699603862155        0.55468413634289        0.36090771307152
C            5.74434575855155        0.18678730568695        0.11971589707709
C            5.37624832521642       -1.01610193143201       -0.59062586977856
C            6.31944049934078       -1.91938077282810       -1.10445879820930
C            5.93761667867120       -3.05613024243711       -1.77601972291494
C            4.58497063398123       -3.34268354836095       -1.96659958148483
C            3.63621677908471       -2.48274278392969       -1.47782196020340
C            4.00760412964450       -1.31593350300031       -0.78820255846048
C            2.98547868051517       -0.44778392141291       -0.29210816962053
N            1.70034564630490       -0.73684670140158       -0.46942911526084
C            0.73382817815362        0.05706631284543       -0.00702069680768
C           -0.61635000692649       -0.23859517221636       -0.17689495156370
C           -3.64485011621593        0.77512939258307       -0.94862679452731
C           -2.96293860386819        1.57840593458700       -1.87214780669853
C           -3.60814146336028        2.09099855394479       -2.97581805175482
C           -4.94951807912889        1.81007632841642       -3.18176974471398
C           -5.62449049432742        1.01277206937640       -2.27542500311463
C           -5.00108140296488        0.48241540390372       -1.15400335883637
H           -7.56691617380389       -0.16278810472802        1.04292098480983
H           -6.59008648086605        1.29995257988186        0.90612691343061
H           -7.60912584886992        0.78641509927051       -0.43944393804191
H           -5.48473467403681       -2.19218852258837       -1.36111113862973
H           -6.94720546191419       -1.30688864196533       -1.79754174242721
H           -6.90406248428342       -2.25596769988831       -0.31528717168453
H           -6.54294309951316       -1.96470985654401        1.85587568892523
H           -5.24589412035547       -2.77471198466463        3.75666868473096
H           -2.85735644769660       -2.14093048155349        3.97836891986419
H           -1.81699762105360       -0.71131532433681        2.28717399420143
H           -2.01508860761814        2.42600725064164        1.38188154872390
H            0.37700031653996        2.99571014191171        1.70325279647946
H            4.27202764162166        2.85135146407286        1.64618000301104
H            6.64292435863965        3.45469200558279        2.04176776913054
H            8.43122365828415        1.96220297601392        1.20814417440290
H            7.87965290324966       -0.07416406894766        0.01025843777721
H            7.37252112816108       -1.72743992246064       -0.97495320165453
H            6.68858077322950       -3.73138793504339       -2.15935735078209
H            4.29024860024941       -4.23704774958933       -2.49539361377646
H            2.58189813432405       -2.67571490413462       -1.60784803861463
H           -0.89037970816742       -1.14078562056720       -0.70138980469245
H           -1.91814616620931        1.79565931480823       -1.71337855693165
H           -3.06394977799917        2.70878382319848       -3.67437102664067
H           -5.46534622238760        2.20735868057689       -4.04262876273920
H           -6.66764127453516        0.80126008753130       -2.45237621008370

          :  Hamiltonian                  GFN2-xTB          :
         :: gradient norm              0.000032106995 Eh/a0 ::
         :: HOMO-LUMO gap              1.050759403155 eV    ::
         :: SCC energy               -98.277220567900 Eh    ::
         :: -> dispersion             -0.087583166082 Eh    ::
         :: -> Gsolv                  -0.040832669700 Eh    ::
         :: repulsion energy           1.758563860215 Eh    ::

    * Orbital Energies and Occupations

         #    Occupation            Energy/Eh            Energy/eV
      -------------------------------------------------------------
         1        2.0000           -0.6777010             -18.4412
       ...           ...                  ...                  ...
        79        2.0000           -0.4184791             -11.3874
        80        2.0000           -0.4152436             -11.2994
        81        2.0000           -0.4145840             -11.2814
        82        2.0000           -0.4128110             -11.2332
        83        2.0000           -0.4118780             -11.2078
        84        2.0000           -0.4072488             -11.0818
        85        2.0000           -0.4015296             -10.9262
        86        2.0000           -0.3962335             -10.7821
        87        2.0000           -0.3894475             -10.5974
        88        2.0000           -0.3836759             -10.4404
        89        1.7450           -0.3568616              -9.7107
        90        1.2550           -0.3548243              -9.6553
        91        1.0000           -0.3030203              -8.2456 (HOMO)
        92                         -0.2644055              -7.1948 (LUMO)
        93                         -0.2493962              -6.7864
        94                         -0.2348796              -6.3914
        95                         -0.2278832              -6.2010
        96                         -0.2272562              -6.1840
        97                         -0.2209962              -6.0136
        98                         -0.2169398              -5.9032
        99                         -0.1999375              -5.4406
       100                         -0.1974818              -5.3738
       101                         -0.1912053              -5.2030
       102                         -0.1495425              -4.0693
       ...                                ...                  ...
       177                          0.7109969              19.3472
      -------------------------------------------------------------
                  HL-Gap            0.0386147 Eh            1.0508 eV

     #   Z          covCN         q      C6AA      α(0)
     1   6 C        3.761    -0.106    22.576     6.773
     2   6 C        3.909     0.023    20.134     6.378
     3   6 C        3.761    -0.106    22.575     6.773
     4   6 C        2.978    -0.007    28.179     8.707
     5   6 C        2.926    -0.035    28.865     8.811
     6   6 C        2.917    -0.037    28.932     8.820
     7   6 C        2.918    -0.031    28.762     8.795
     8   6 C        2.923    -0.052    29.286     8.875
     9   6 C        2.929     0.061    26.632     8.463
    10   7 N        2.755    -0.042    22.052     6.975
    11   6 C        2.924     0.053    26.804     8.490
    12   6 C        2.916    -0.049    29.209     8.862
    13   6 C        2.918    -0.063    29.563     8.916
    14   6 C        2.940     0.085    26.096     8.378
    15   7 N        1.849    -0.245    27.247     7.736
    16   6 C        2.941     0.080    26.213     8.397
    17   6 C        2.987    -0.009    28.238     8.717
    18   6 C        2.923    -0.030    28.761     8.795
    19   6 C        2.916    -0.033    28.814     8.802
    20   6 C        2.917    -0.032    28.809     8.802
    21   6 C        2.920    -0.035    28.875     8.812
    22   6 C        2.976    -0.002    28.067     8.690
    23   6 C        2.976    -0.002    28.065     8.690
    24   6 C        2.920    -0.035    28.875     8.812
    25   6 C        2.917    -0.032    28.807     8.801
    26   6 C        2.916    -0.033    28.813     8.802
    27   6 C        2.923    -0.030    28.760     8.795
    28   6 C        2.987    -0.009    28.237     8.717
    29   6 C        2.942     0.081    26.199     8.395
    30   7 N        1.849    -0.247    27.290     7.742
    31   6 C        2.940     0.088    26.045     8.370
    32   6 C        2.920    -0.072    29.786     8.950
    33   6 C        2.929     0.061    26.632     8.463
    34   6 C        2.923    -0.052    29.287     8.875
    35   6 C        2.918    -0.031    28.762     8.795
    36   6 C        2.917    -0.038    28.933     8.821
    37   6 C        2.926    -0.035    28.865     8.811
    38   6 C        2.978    -0.007    28.180     8.708
    39   1 H        0.925     0.048     2.342     2.393
    40   1 H        0.925     0.034     2.528     2.487
    41   1 H        0.925     0.048     2.342     2.393
    42   1 H        0.925     0.034     2.532     2.489
    43   1 H        0.925     0.048     2.342     2.393
    44   1 H        0.925     0.048     2.342     2.393
    45   1 H        0.926     0.044     2.394     2.419
    46   1 H        0.926     0.037     2.483     2.464
    47   1 H        0.926     0.035     2.512     2.478
    48   1 H        0.926     0.031     2.577     2.510
    49   1 H        0.926     0.042     2.416     2.430
    50   1 H        0.926     0.048     2.351     2.398
    51   1 H        0.926     0.043     2.410     2.428
    52   1 H        0.926     0.037     2.494     2.470
    53   1 H        0.926     0.036     2.500     2.473
    54   1 H        0.926     0.039     2.463     2.454
    55   1 H        0.926     0.039     2.463     2.454
    56   1 H        0.926     0.036     2.499     2.472
    57   1 H        0.926     0.037     2.492     2.468
    58   1 H        0.926     0.043     2.407     2.426
    59   1 H        0.926     0.046     2.367     2.406
    60   1 H        0.926     0.031     2.573     2.509
    61   1 H        0.926     0.035     2.510     2.477
    62   1 H        0.926     0.037     2.483     2.464
    63   1 H        0.926     0.044     2.395     2.420

molecular dipole:
                 x           y           z       tot (Debye)
 q only:       -1.979      -0.256      -0.126
   full:       -1.883      -0.207      -0.099       4.821

 projected vibrational frequencies (cm⁻¹)
eigval :       -0.00    -0.00     0.00     0.00     0.00     0.00
eigval :       15.62    18.98    23.38    46.66    55.33    61.58
eigval :       91.02    94.08    95.34   105.21   114.61   134.75
eigval :      139.34   152.74   189.78   199.50   203.25   219.83
eigval :      227.48   242.11   246.91   270.72   291.84   303.33
eigval :      326.88   330.13   342.09   352.46   376.08   380.86
eigval :      389.44   394.75   401.45   405.26   411.45   426.82
eigval :      444.40   446.37   449.97   499.47   507.25   520.11
eigval :      525.68   534.69   539.00   543.08   552.98   568.87
eigval :      584.44   585.13   585.59   598.46   622.00   641.12
eigval :      652.01   673.44   675.82   685.70   686.57   696.25
eigval :      698.83   725.34   725.41   758.01   763.72   771.74
eigval :      773.96   777.55   791.22   805.20   824.73   831.15
eigval :      846.44   863.55   866.02   868.38   869.34   873.16
eigval :      907.29   911.90   912.36   912.62   913.37   919.25
eigval :      919.90   920.13   920.36   921.15   937.31   959.01
eigval :      989.77  1008.92  1012.30  1058.22  1074.68  1080.79
eigval :     1083.61  1097.34  1107.21  1112.89  1129.77  1138.23
eigval :     1141.85  1148.80  1151.51  1160.47  1177.58  1178.81
eigval :     1182.04  1183.26  1184.30  1215.86  1221.95  1236.22
eigval :     1243.89  1246.39  1255.66  1257.25  1260.62  1276.07
eigval :     1284.40  1292.17  1295.07  1310.80  1319.66  1321.97
eigval :     1328.51  1333.13  1339.17  1351.43  1366.50  1388.49
eigval :     1397.57  1406.40  1414.44  1416.28  1425.49  1426.32
eigval :     1430.49  1458.74  1462.45  1466.56  1475.54  1483.53
eigval :     1484.39  1487.98  1494.37  1498.17  1513.02  1530.41
eigval :     1532.02  1549.24  1557.97  1572.44  1580.15  1580.78
eigval :     1591.09  1591.35  3024.90  3027.66  3045.57  3047.51
eigval :     3052.85  3056.61  3073.61  3074.06  3079.01  3080.80
eigval :     3081.79  3082.57  3086.10  3087.58  3088.42  3093.58
eigval :     3094.56  3095.37  3096.82  3097.45  3098.65  3099.21
eigval :     3103.77  3104.48  3107.18

   temp. (K)  partition function   enthalpy   heat capacity  entropy
                                   cal/mol     cal/K/mol   cal/K/mol   J/K/mol
 298.15  VIB  0.541E+12            16984.345    113.264    102.376
         ROT  0.414E+08              888.752      2.981     37.835
         INT  0.224E+20            17873.097    116.245    140.210
         TR   0.104E+29             1481.254      4.968     44.420
         TOT                       19354.3512   121.2131   184.6307   772.4948

       T/K    H(0)-H(T)+PV         H(T)/Eh          T*S/Eh         G(T)/Eh
   ------------------------------------------------------------------------
    298.15    0.308431E-01    0.517785E+00    0.877240E-01    0.430061E+00
   ------------------------------------------------------------------------

         :::::::::::::::::::::::::::::::::::::::::::::::::::::
         ::                  THERMODYNAMIC                  ::
         :::::::::::::::::::::::::::::::::::::::::::::::::::::
         :: total free energy         -96.088595964494 Eh   ::
         ::.................................................::
         :: total energy              -96.518656706658 Eh   ::
         :: zero point energy           0.486941621133 Eh   ::
         :: G(RRHO) w/o ZPVE           -0.056880878970 Eh   ::
         :: G(RRHO) contrib.            0.430060742163 Eh   ::
         :::::::::::::::::::::::::::::::::::::::::::::::::::::

           -------------------------------------------------
          | TOTAL ENERGY              -96.518656706658 Eh   |
          | TOTAL ENTHALPY            -96.000871963589 Eh   |
          | TOTAL FREE ENERGY         -96.088595964494 Eh   |
          | GRADIENT NORM               0.000032684239 Eh/α |
          | HOMO-LUMO GAP               1.050759803228 eV   |
           -------------------------------------------------

 * finished run on 2025/09/05 at 11:33:09.340
