   * xtb version 6.7.1 (edcfbbe) compiled by 'albert@albert-system' on 2024-07-22

   ID    Z sym.   atoms
    1    6 C      1, 2, 4-8, 10-15, 18-23, 25, 26, 28-33, 35-40, 42, 43,
                  45-50, 52
    2    7 N      3, 9, 16, 17, 24, 27, 34, 41, 44, 51
    3    1 H      53-88

          program call               : xtb data2507/gas/MOF/MOF_gas_S0_crest.xyz --gfn 2 --ohess vtight --parallel 40 --molden --ceasefiles --namespace data2507/gas/MOF/MOF_gas_S0_finalOpt
          :  Hamiltonian                  GFN2-xTB          :
 * total energy  :  -137.6202322 Eh     change       -0.8373206E-08 Eh
 * total energy  :  -137.6202333 Eh     change       -0.1041292E-05 Eh
 * total energy  :  -137.6202342 Eh     change       -0.9507108E-06 Eh
 * total energy  :  -137.6202365 Eh     change       -0.2272582E-05 Eh
 * total energy  :  -137.6202396 Eh     change       -0.3090056E-05 Eh
 * total energy  :  -137.6202426 Eh     change       -0.2954877E-05 Eh
 * total energy  :  -137.6202448 Eh     change       -0.2262658E-05 Eh
 * total energy  :  -137.6202466 Eh     change       -0.1784590E-05 Eh
 * total energy  :  -137.6202486 Eh     change       -0.2008220E-05 Eh
 * total energy  :  -137.6202512 Eh     change       -0.2586306E-05 Eh
 * total energy  :  -137.6202702 Eh     change       -0.2224993E-06 Eh
 * total energy  :  -137.6202704 Eh     change       -0.2050419E-06 Eh
 * total energy  :  -137.6202705 Eh     change       -0.1549829E-06 Eh
 * total energy  :  -137.6202706 Eh     change       -0.1183886E-06 Eh
 * total energy  :  -137.6202707 Eh     change       -0.1120235E-06 Eh
 * total energy  :  -137.6202709 Eh     change       -0.1222075E-06 Eh
 * total energy  :  -137.6202710 Eh     change       -0.1462429E-06 Eh
 * total energy  :  -137.6202712 Eh     change       -0.1457156E-06 Eh
 * total energy  :  -137.6202712 Eh     change       -0.3509882E-08 Eh
   *** GEOMETRY OPTIMIZATION CONVERGED AFTER 44 ITERATIONS ***

 final structure:
================
88
 xtb: 6.7.1 (edcfbbe)
C            3.69740012680134        4.77883869828709        0.80101397586637
C            2.87622368691708        5.37153318110480        1.74821999720628
N            1.96021317243118        4.70301547601914        2.42817443111817
C            1.81615072562166        3.41383496267261        2.18247300539823
C            2.56123408871217        2.71634675212373        1.23410888626850
C            2.30186466042818        1.26768187379579        0.95373182939358
C            1.13865409959900        1.10636685652202       -0.06004464497781
C           -0.15095633574626        1.55335115813861        0.56866821557566
N           -0.95539818917133        0.84441835558013        1.31412404881708
C           -2.00442690159426        1.67119140434456        1.64218915064753
C           -3.15740819248161        1.41451092656976        2.37261828380439
C           -4.05714495823941        2.44887387067976        2.52040702286334
C           -3.82316179688870        3.70987696254578        1.96931523733470
C           -2.68186264019644        3.98297153623378        1.24312590114902
C           -1.78072124878088        2.94514290664734        1.07853423043421
N           -0.58648588729546        2.83523253541681        0.41681502430218
N            1.15434575488677       -0.21887609560892       -0.64171857886669
C            1.04006774216116       -1.36861779506026        0.24973194724659
C            2.23254341608230       -2.32724142450375        0.02707960419840
C            2.34259289465316       -3.28274635370961        1.17415515286781
C            1.74024633756299       -4.53536157330390        1.14369122444199
C            1.83606366509997       -5.35824791666472        2.25337192151684
C            2.53347478783589       -4.89553441744118        3.35883919302369
N            3.11298976208252       -3.70788525960977        3.40165352179097
C            3.01672261021879       -2.92956895005542        2.33955506215096
C           -0.24346373077504       -2.12548888641048        0.11649333317268
N           -0.45181349864707       -3.15006260401111       -0.67054199898767
C           -1.76558107925090       -3.50296742927778       -0.47071390557910
C           -2.52963600164490       -4.50791148376131       -1.05433173177486
C           -3.85422712138880       -4.59901808477444       -0.68182001962791
C           -4.41975647134727       -3.71994636957875        0.24524449189296
C           -3.67883141582186       -2.71948618622266        0.84115833802910
C           -2.34560271816530       -2.62165229591324        0.47737927755963
N           -1.33658070513885       -1.77552654853760        0.84522727229737
C            0.56659359431781       -0.36173113519734       -1.96957187624697
C            1.40617835872353        0.36316217452766       -3.04849730776137
C            2.87288013102132        0.24119731722283       -2.77513439533047
C            3.53194870131664       -0.98174396653633       -2.83234956839748
C            4.87621238862516       -1.04397467560418       -2.50683824457932
C            5.51768993867113        0.12512038230972       -2.12604831577277
N            4.91111592417532        1.29924274826651       -2.09088604629183
C            3.63184884440576        1.34965512912235       -2.41723166787175
C           -0.84145181694515        0.14946568162695       -2.00402558591684
N           -1.16329537509428        1.41382139010476       -1.98071952220650
C           -2.53086104632340        1.45180357455973       -1.86221997579015
C           -3.40005700085100        2.53089636884373       -1.75354129088386
C           -4.74018132885417        2.25549932770375       -1.58708979380407
C           -5.22221546642008        0.94574107662248       -1.53837587981038
C           -4.38002323303238       -0.14062914696810       -1.66150941004339
C           -3.03206723651947        0.13059330286636       -1.82256906000542
N           -1.92836438925377       -0.67342915706568       -1.94032257844934
C            3.53292677117535        3.42858439178796        0.53845614401937
H            4.44713394098733        5.35594786711797        0.28242474058349
H            2.95542916251556        6.42472918635414        1.98322277680931
H            1.06722559456555        2.90832032852351        2.78007727886109
H            3.18783718140381        0.80737426257637        0.51431433449642
H            2.05576725293645        0.75458258030115        1.88423883740126
H            1.32895197851763        1.79632212750160       -0.88773811629563
H           -3.33659347300742        0.44279527909290        2.80607231979758
H           -4.96722224868151        2.28421231296662        3.07770064507132
H           -4.55613109938991        4.48883795800192        2.11592241625586
H           -2.50058461264486        4.95816436438229        0.81813107054998
H           -0.15814776274295        3.53833714338489       -0.16008556643449
H            1.07999736750356       -0.99351706387147        1.27511035092903
H            3.14068256999597       -1.72949312181961       -0.06029126721760
H            2.07129757338843       -2.87570050261973       -0.89986412012955
H            1.19869642147642       -4.84853799861234        0.26311903102971
H            1.37946525698610       -6.33612353653807        2.26052130790878
H            2.63735919815900       -5.49803025253253        4.25172568374553
H            3.51152150289636       -1.96872341827760        2.42033850925906
H           -2.09396446770282       -5.18448774653053       -1.77278605271762
H           -4.47587558239514       -5.36719666989308       -1.11768779492630
H           -5.46389672977233       -3.82832215422239        0.49900549615927
H           -4.11690403915621       -2.03595378161743        1.55202976123425
H           -1.37604248530408       -0.88720787369111        1.35380164982347
H            0.56120228387502       -1.43485859535581       -2.18017790736459
H            1.11273167776132        1.41290761503324       -3.08131807225331
H            1.16237761827576       -0.08180939522682       -4.01560710964364
H            2.99820976009448       -1.87255306112367       -3.12978026375229
H            5.41364702867156       -1.97904909184577       -2.54098835760589
H            6.56165475477210        0.12875184075409       -1.84196460643986
H            3.18638846091083        2.33733804623632       -2.39553488772100
H           -3.03163291932384        3.54347569389311       -1.79214104869058
H           -5.43999806417837        3.07176993263797       -1.48757076705214
H           -6.28044279282835        0.78173328753156       -1.40064393300868
H           -4.74619434153788       -1.15553995741275       -1.62107060970473
H           -1.92084077185763       -1.68129897103987       -1.95048570170617
H            4.15795470247673        2.92889220382269       -0.18794594615229

          :  Hamiltonian                  GFN2-xTB          :
         :: gradient norm              0.000040900263 Eh/a0 ::
         :: HOMO-LUMO gap              2.910777362286 eV    ::
         :: SCC energy              -139.897505668568 Eh    ::
         :: -> dispersion             -0.139332535914 Eh    ::
         :: repulsion energy           2.277234509051 Eh    ::

    * Orbital Energies and Occupations

         #    Occupation            Energy/Eh            Energy/eV
      -------------------------------------------------------------
         1        2.0000           -0.6966499             -18.9568
       ...           ...                  ...                  ...
       115        2.0000           -0.3990257             -10.8580
       116        2.0000           -0.3968093             -10.7977
       117        2.0000           -0.3939182             -10.7191
       118        2.0000           -0.3905272             -10.6268
       119        2.0000           -0.3889988             -10.5852
       120        2.0000           -0.3884526             -10.5703
       121        2.0000           -0.3875205             -10.5450
       122        2.0000           -0.3855757             -10.4920
       123        2.0000           -0.3836565             -10.4398
       124        2.0000           -0.3768445             -10.2545
       125        2.0000           -0.3710457             -10.0967
       126        2.0000           -0.3644649              -9.9176
       127        2.0000           -0.3631572              -9.8820 (HOMO)
       128                         -0.2561881              -6.9712 (LUMO)
       129                         -0.2524022              -6.8682
       130                         -0.2485889              -6.7644
       131                         -0.2467489              -6.7144
       132                         -0.2439166              -6.6373
       133                         -0.2423096              -6.5936
       134                         -0.2403729              -6.5409
       135                         -0.2394125              -6.5147
       136                         -0.2326121              -6.3297
       137                         -0.2101231              -5.7177
       138                         -0.2071516              -5.6369
       ...                                ...                  ...
       244                          0.6989895              19.0205
      -------------------------------------------------------------
                  HL-Gap            0.1069691 Eh            2.9108 eV

     #   Z          covCN         q      C6AA      α(0)
     1   6 C        2.912    -0.039    28.978     8.827
     2   6 C        2.913     0.055    26.760     8.483
     3   7 N        1.835    -0.222    26.689     7.656
     4   6 C        2.917     0.051    26.858     8.498
     5   6 C        2.966    -0.002    28.083     8.692
     6   6 C        3.810    -0.068    21.791     6.645
     7   6 C        3.796     0.038    19.942     6.359
     8   6 C        3.156     0.145    24.576     8.106
     9   7 N        1.894    -0.313    28.966     7.979
    10   6 C        3.194     0.064    26.071     8.326
    11   6 C        2.910    -0.045    29.114     8.848
    12   6 C        2.924    -0.038    28.942     8.822
    13   6 C        2.927    -0.034    28.847     8.808
    14   6 C        2.908    -0.048    29.181     8.858
    15   6 C        3.084     0.048    26.828     8.491
    16   7 N        2.789    -0.112    23.431     7.189
    17   7 N        2.733    -0.176    24.814     7.398
    18   6 C        3.798     0.035    19.988     6.366
    19   6 C        3.812    -0.073    21.884     6.659
    20   6 C        2.967     0.002    27.974     8.675
    21   6 C        2.933    -0.020    28.499     8.755
    22   6 C        2.913    -0.039    28.980     8.827
    23   6 C        2.915     0.055    26.764     8.483
    24   7 N        1.835    -0.222    26.687     7.655
    25   6 C        2.919     0.049    26.896     8.505
    26   6 C        3.190     0.138    24.558     8.083
    27   7 N        1.884    -0.323    29.240     8.016
    28   6 C        3.202     0.058    26.144     8.331
    29   6 C        2.909    -0.048    29.200     8.861
    30   6 C        2.923    -0.042    29.037     8.837
    31   6 C        2.926    -0.037    28.933     8.821
    32   6 C        2.907    -0.051    29.256     8.869
    33   6 C        3.095     0.043    26.914     8.503
    34   7 N        2.777    -0.148    24.201     7.306
    35   6 C        3.797     0.037    19.964     6.362
    36   6 C        3.811    -0.072    21.865     6.656
    37   6 C        2.965     0.011    27.764     8.643
    38   6 C        2.935    -0.016    28.403     8.740
    39   6 C        2.912    -0.039    28.975     8.827
    40   6 C        2.914     0.055    26.756     8.482
    41   7 N        1.835    -0.225    26.769     7.667
    42   6 C        2.920     0.053    26.814     8.492
    43   6 C        3.177     0.136    24.674     8.111
    44   7 N        1.889    -0.317    29.062     7.992
    45   6 C        3.200     0.066    25.984     8.307
    46   6 C        2.911    -0.044    29.088     8.844
    47   6 C        2.924    -0.039    28.978     8.828
    48   6 C        2.928    -0.035    28.884     8.814
    49   6 C        2.908    -0.052    29.282     8.873
    50   6 C        3.089     0.043    26.929     8.506
    51   7 N        2.782    -0.134    23.895     7.260
    52   6 C        2.932    -0.025    28.621     8.774
    53   1 H        0.926     0.040     2.447     2.446
    54   1 H        0.925     0.040     2.455     2.450
    55   1 H        0.925     0.035     2.518     2.481
    56   1 H        0.924     0.056     2.252     2.347
    57   1 H        0.924     0.049     2.334     2.389
    58   1 H        0.924     0.058     2.227     2.334
    59   1 H        0.926     0.036     2.497     2.471
    60   1 H        0.926     0.036     2.508     2.477
    61   1 H        0.926     0.037     2.486     2.466
    62   1 H        0.926     0.033     2.537     2.491
    63   1 H        0.860     0.171     1.269     1.764
    64   1 H        0.924     0.052     2.298     2.371
    65   1 H        0.924     0.046     2.369     2.407
    66   1 H        0.925     0.062     2.181     2.310
    67   1 H        0.926     0.051     2.312     2.378
    68   1 H        0.926     0.036     2.505     2.475
    69   1 H        0.925     0.037     2.484     2.465
    70   1 H        0.925     0.033     2.547     2.496
    71   1 H        0.926     0.037     2.490     2.468
    72   1 H        0.926     0.030     2.586     2.515
    73   1 H        0.926     0.031     2.575     2.510
    74   1 H        0.926     0.029     2.603     2.523
    75   1 H        0.860     0.206     1.078     1.626
    76   1 H        0.924     0.056     2.242     2.342
    77   1 H        0.924     0.058     2.227     2.334
    78   1 H        0.924     0.050     2.321     2.383
    79   1 H        0.926     0.039     2.457     2.451
    80   1 H        0.926     0.038     2.469     2.457
    81   1 H        0.925     0.039     2.460     2.453
    82   1 H        0.925     0.034     2.533     2.489
    83   1 H        0.926     0.036     2.496     2.471
    84   1 H        0.926     0.033     2.541     2.493
    85   1 H        0.926     0.035     2.521     2.483
    86   1 H        0.926     0.030     2.584     2.514
    87   1 H        0.860     0.174     1.249     1.751
    88   1 H        0.926     0.055     2.262     2.352

molecular dipole:
                 x           y           z       tot (Debye)
 q only:        0.327       0.264      -0.832
   full:       -0.462      -0.069      -1.368       3.675

 projected vibrational frequencies (cm⁻¹)
eigval :       -0.00    -0.00    -0.00     0.00     0.00     0.00
eigval :       10.79    15.66    17.24    18.05    20.11    23.44
eigval :       31.34    38.70    40.18    47.55    49.61    58.99
eigval :       60.92    67.98    71.86    78.19    84.84    92.74
eigval :      106.16   115.69   123.52   138.47   141.17   152.07
eigval :      158.59   164.66   183.41   195.57   197.89   219.57
eigval :      246.34   250.37   256.87   263.37   288.48   305.19
eigval :      323.22   330.34   340.76   356.82   365.73   367.25
eigval :      373.22   375.41   382.17   403.25   414.11   418.79
eigval :      430.56   436.25   448.21   454.08   470.42   478.98
eigval :      511.13   513.79   522.08   540.68   545.26   546.48
eigval :      547.72   551.56   557.46   560.90   572.93   593.62
eigval :      604.48   605.66   607.97   609.91   611.11   614.63
eigval :      619.59   631.54   652.91   677.79   688.94   691.29
eigval :      694.81   698.52   700.62   711.76   713.38   716.89
eigval :      724.34   735.79   752.80   771.15   773.42   775.12
eigval :      784.40   786.05   793.26   828.16   852.64   856.09
eigval :      861.27   864.36   865.53   865.98   867.35   869.25
eigval :      872.43   874.25   878.29   896.77   898.40   899.18
eigval :      900.69   904.98   907.56   912.09   915.74   915.98
eigval :      920.41   920.97   921.61   922.53   932.11   932.78
eigval :      945.79   948.44   953.33   959.86  1008.28  1009.89
eigval :     1010.27  1021.47  1023.34  1029.60  1049.38  1052.66
eigval :     1054.73  1061.78  1062.90  1068.03  1095.77  1096.26
eigval :     1097.27  1103.37  1113.62  1116.49  1120.59  1130.51
eigval :     1132.92  1137.52  1138.39  1143.95  1144.10  1149.72
eigval :     1154.58  1156.84  1173.79  1174.10  1176.36  1182.02
eigval :     1198.07  1198.53  1199.64  1220.19  1220.68  1221.66
eigval :     1235.51  1237.65  1240.46  1244.97  1253.94  1260.25
eigval :     1269.25  1270.23  1272.71  1278.09  1284.31  1286.01
eigval :     1287.61  1288.90  1290.87  1292.96  1296.89  1301.90
eigval :     1302.11  1308.97  1311.29  1311.64  1339.87  1343.14
eigval :     1369.45  1371.15  1374.03  1384.01  1386.92  1397.77
eigval :     1411.98  1413.01  1413.59  1414.99  1416.45  1421.03
eigval :     1453.60  1454.11  1456.96  1461.45  1469.86  1483.22
eigval :     1490.60  1492.95  1493.00  1526.94  1531.73  1537.66
eigval :     1571.24  1573.29  1573.99  1580.06  1582.80  1584.07
eigval :     1590.84  1594.87  1597.64  1624.27  1627.42  1629.54
eigval :     2956.81  2958.12  2968.59  2972.85  2990.03  2990.45
eigval :     2994.94  3002.77  3014.41  3037.11  3038.89  3046.55
eigval :     3058.11  3060.62  3062.16  3076.51  3078.11  3079.09
eigval :     3080.62  3081.05  3081.18  3083.74  3085.03  3085.73
eigval :     3092.87  3093.54  3094.21  3094.66  3094.86  3095.94
eigval :     3100.32  3100.96  3104.88  3135.72  3437.23  3488.88

   temp. (K)  partition function   enthalpy   heat capacity  entropy
                                   cal/mol     cal/K/mol   cal/K/mol   J/K/mol
 298.15  VIB  0.481E+21            24952.835    153.502    158.076
         ROT  0.622E+08              888.752      2.981     38.643
         INT  0.299E+29            25841.588    156.483    196.719
         TR   0.172E+29             1481.254      4.968     45.415
         TOT                       27322.8416   161.4512   242.1338  1013.0878

       T/K    H(0)-H(T)+PV         H(T)/Eh          T*S/Eh         G(T)/Eh
   ------------------------------------------------------------------------
    298.15    0.435417E-01    0.732720E+00    0.115046E+00    0.617675E+00
   ------------------------------------------------------------------------

         :::::::::::::::::::::::::::::::::::::::::::::::::::::
         ::                  THERMODYNAMIC                  ::
         :::::::::::::::::::::::::::::::::::::::::::::::::::::
         :: total free energy        -137.002596313857 Eh   ::
         ::.................................................::
         :: total energy             -137.620271159515 Eh   ::
         :: zero point energy           0.689178708666 Eh   ::
         :: G(RRHO) w/o ZPVE           -0.071503863009 Eh   ::
         :: G(RRHO) contrib.            0.617674845658 Eh   ::
         :::::::::::::::::::::::::::::::::::::::::::::::::::::

           -------------------------------------------------
          | TOTAL ENERGY             -137.620271159515 Eh   |
          | TOTAL ENTHALPY           -136.887550731282 Eh   |
          | TOTAL FREE ENERGY        -137.002596313857 Eh   |
          | GRADIENT NORM               0.000040906754 Eh/α |
          | HOMO-LUMO GAP               2.910777522675 eV   |
           -------------------------------------------------

 * finished run on 2025/08/29 at 18:20:12.517
