   * xtb version 6.7.1 (edcfbbe) compiled by 'albert@albert-system' on 2024-07-22

   ID    Z sym.   atoms
    1    6 C      1, 2, 4-8, 10-15, 18-23, 25, 26, 28-33, 35-40, 42, 43,
                  45-50, 52
    2    7 N      3, 9, 16, 17, 24, 27, 34, 41, 44, 51
    3    1 H      53-88

          program call               : xtb data2507/gas/MOF/MOF_gas_S0_finalOpt.xtbopt.xyz --gfn 2 --spinpol --tblite --uhf 2 --ohess vtight --parallel 40 --molden --ceasefiles --namespace data2507/gas/MOF/MOF_gas_T1_preOpt
 * total energy  :  -137.5040210 Eh     change       -0.1406534E-08 Eh
 * total energy  :  -137.5061244 Eh     change       -0.2103390E-02 Eh
 * total energy  :  -137.5064605 Eh     change       -0.3361159E-03 Eh
 * total energy  :  -137.5065093 Eh     change       -0.4874114E-04 Eh
 * total energy  :  -137.5065497 Eh     change       -0.4047694E-04 Eh
 * total energy  :  -137.5065636 Eh     change       -0.1386242E-04 Eh
 * total energy  :  -137.5065844 Eh     change       -0.2078253E-04 Eh
 * total energy  :  -137.5065954 Eh     change       -0.1102029E-04 Eh
 * total energy  :  -137.5066243 Eh     change       -0.2893805E-04 Eh
 * total energy  :  -137.5066441 Eh     change       -0.1974333E-04 Eh
 * total energy  :  -137.5072460 Eh     change       -0.1279794E-06 Eh
 * total energy  :  -137.5072462 Eh     change       -0.1493771E-06 Eh
 * total energy  :  -137.5072463 Eh     change       -0.1125785E-06 Eh
 * total energy  :  -137.5072465 Eh     change       -0.1888395E-06 Eh
 * total energy  :  -137.5072464 Eh     change        0.3442247E-07 Eh
 * total energy  :  -137.5072466 Eh     change       -0.1523762E-06 Eh
 * total energy  :  -137.5072467 Eh     change       -0.1132219E-06 Eh
 * total energy  :  -137.5072467 Eh     change        0.4405365E-08 Eh
 * total energy  :  -137.5072467 Eh     change       -0.1466157E-07 Eh
   *** GEOMETRY OPTIMIZATION CONVERGED AFTER 123 ITERATIONS ***

 final structure:
================
88
 xtb: 6.7.1 (edcfbbe)
C            3.09480531590395        5.11079605763375        0.73326782332891
C            2.48950833707427        5.57064363242278        1.87603012944731
N            1.86244051191263        4.73461710870796        2.71810246213513
C            1.80854975730695        3.42908206384905        2.45308285210994
C            2.37505005675821        2.87760961524911        1.32626603878094
C            2.23268644579382        1.41590294466114        1.03010097934884
C            1.07800442489392        1.20129718527047        0.01575414812336
C           -0.22384375498364        1.62144022546342        0.63520166742933
N           -1.08954676573610        0.86825874053462        1.26155229333405
C           -2.12953610216340        1.69352832411203        1.61772018331710
C           -3.33023836723730        1.40444487716179        2.25352429120473
C           -4.20714894359775        2.44959589200829        2.45622859115732
C           -3.90594985711346        3.75030456791085        2.05087210112830
C           -2.71593299282293        4.05596842098981        1.42007331428023
C           -1.83694562713268        3.00968548013690        1.20124858188824
N           -0.61190696238938        2.92589451998147        0.59322630088715
N            1.10459931065224       -0.12382074036719       -0.55102090189219
C            1.09016664218103       -1.28697861879972        0.31907408346645
C            2.34078703220991       -2.15896754843792        0.06179836209151
C            2.51387868034438       -3.15227774338698        1.16776819707567
C            1.96482426367262       -4.43070864673531        1.09722976396899
C            2.12279841293392       -5.29623427526909        2.16986792957181
C            2.82211340520163       -4.85181322655445        3.27914452790393
N            3.34873913308971       -3.64045348044405        3.35102587845378
C            3.20052308196849       -2.81676969757170        2.32864842430324
C           -0.15560548365089       -2.10105639373060        0.15805030347120
N           -0.30256469873983       -3.13475903240411       -0.63015825846333
C           -1.61535709859657       -3.51564131885710       -0.49125962867520
C           -2.32781319531818       -4.54264415417687       -1.10146140796253
C           -3.66740987590510       -4.65759564565513       -0.79542192171745
C           -4.29722989003085       -3.78236683333115        0.09338183639744
C           -3.60803287896970       -2.76172948597835        0.71651872136521
C           -2.26024431432267       -2.63841329187865        0.41842197017212
N           -1.28997405762801       -1.76590033944780        0.82943450220290
C            0.57994535048516       -0.28639808628998       -1.89895859037756
C            1.50322516787557        0.34960177357612       -2.96038473480712
C            2.89707836573231       -0.17114346367491       -2.80175406049668
C            3.24059861306111       -1.47051170624188       -3.21086309528397
C            4.53823247249118       -1.92979982267396       -2.98461542180212
C            5.43977533036610       -1.09836974676981       -2.35889337376016
N            5.11329164119238        0.13904641696795       -1.98385772592138
C            3.88175845229723        0.58750239424056       -2.20277327782709
C           -0.80028492831861        0.28899370313959       -1.97075630290411
N           -1.07308472233417        1.56446818410732       -1.97654173286033
C           -2.43636283304542        1.65793124912195       -1.84304852290421
C           -3.26025661467499        2.77321011786806       -1.74361323244408
C           -4.60640080440592        2.55471168514753       -1.54233329145920
C           -5.13772443152106        1.26692948362396       -1.45089648612127
C           -4.34097612754642        0.14489154209759       -1.56307184413886
C           -2.98730206511061        0.35871307807120       -1.75751860244311
N           -1.91696022022298       -0.49132378956824       -1.86501695880723
C            3.03958610044897        3.74598623406639        0.43088022732190
H            3.60119565800011        5.80176139374811        0.07691148956887
H            2.48953207560124        6.61290196759828        2.15564501366547
H            1.29266236364506        2.82125602471896        3.18374670381068
H            3.14934979123341        1.02750194314907        0.58260092071745
H            2.02855069938339        0.87124541172487        1.95229989747777
H            1.24806922011938        1.89020631029135       -0.81835425248641
H           -3.56311059308691        0.40059483199701        2.57257995808341
H           -5.15285701596693        2.26075923030866        2.94196300366946
H           -4.62393012851302        4.53531104690335        2.23451861102737
H           -2.48307410206218        5.06146283780218        1.10538855571255
H           -0.11636879648716        3.67281556068498        0.13739360768406
H            1.11312121277863       -0.92876991477833        1.35143027121120
H            3.21015095691282       -1.50340131808344       -0.00002235815032
H            2.21800801789311       -2.67543900186491       -0.88946029297571
H            1.41570096670421       -4.72833984357279        0.21688013342158
H            1.70952353334232       -6.29262645596320        2.14555795944234
H            2.97166198757334       -5.48148923100113        4.14566835609527
H            3.66020742550810       -1.84274532397486        2.44114759389260
H           -1.84223087680997       -5.21656379377991       -1.78941336895891
H           -4.25056054474766       -5.44242669785191       -1.25397977389810
H           -5.35032308308503       -3.91077856907753        0.29535056332924
H           -4.09451630122738       -2.08265885685387        1.39958122169242
H           -1.38436734973429       -0.85335588708151        1.29477458600267
H            0.53077679129502       -1.36288996694955       -2.08659278554100
H            1.47380984680524        1.43467535023576       -2.86679074716922
H            1.10879261565741        0.08797644043695       -3.94446983678660
H            2.51054179323004       -2.09858509182623       -3.69712606960065
H            4.83507172565765       -2.92231368517192       -3.28601354950123
H            6.45337175350163       -1.40447591900594       -2.14523073091653
H            3.69220302868403        1.60603718284216       -1.89180451609203
H           -2.85192946088593        3.76870951651214       -1.81232886145398
H           -5.27148404571041        3.39992663014686       -1.44707901358343
H           -6.19809873347979        1.14823259225101       -1.28624261876389
H           -4.74554036523755       -0.85339213262153       -1.48864738331282
H           -1.95121721221881       -1.49825357612496       -1.85115051420370
H            3.51662246861770        3.35816032187876       -0.45447681704396

 projected vibrational frequencies (cm⁻¹)
eigval :       -0.00    -0.00    -0.00    -0.00    -0.00     0.00
eigval :        6.60    14.58    14.98    18.67    19.82    22.92
eigval :       28.57    34.27    36.77    40.65    44.84    49.75
eigval :       56.85    61.12    63.89    71.49    77.04    88.61
eigval :      105.29   110.89   119.00   133.89   139.66   147.65
eigval :      156.74   163.74   180.31   196.85   199.49   216.50
eigval :      242.82   249.00   252.01   259.40   281.88   301.28
eigval :      318.84   337.03   341.64   347.43   350.87   356.46
eigval :      362.50   366.09   370.02   397.59   414.19   414.91
eigval :      422.48   434.65   441.91   451.52   462.74   474.45
eigval :      484.45   495.16   506.33   516.28   528.70   537.99
eigval :      543.70   545.96   547.16   550.03   551.77   560.14
eigval :      577.83   583.09   586.47   593.97   603.21   608.82
eigval :      610.20   614.36   618.55   630.40   652.55   666.11
eigval :      674.36   684.12   690.31   696.31   709.25   712.21
eigval :      715.18   718.20   730.10   745.45   754.86   768.92
eigval :      770.50   772.20   773.68   773.89   781.03   815.46
eigval :      823.50   824.54   832.76   837.19   850.32   859.50
eigval :      861.15   864.69   865.91   867.12   868.15   869.86
eigval :      871.83   875.02   876.56   884.57   886.55   893.49
eigval :      896.53   897.07   898.68   900.11   902.34   915.33
eigval :      919.08   920.26   922.61   941.14   951.91   952.26
eigval :      987.47   994.73  1017.16  1019.08  1040.73  1042.25
eigval :     1045.33  1052.11  1058.99  1059.96  1060.76  1064.88
eigval :     1067.51  1087.81  1098.99  1103.53  1106.32  1112.21
eigval :     1115.42  1120.36  1125.27  1128.17  1131.11  1135.45
eigval :     1136.51  1139.26  1145.21  1156.10  1162.23  1173.47
eigval :     1173.77  1176.25  1176.85  1183.88  1207.81  1216.34
eigval :     1219.35  1219.89  1220.42  1221.35  1232.67  1238.27
eigval :     1242.00  1251.71  1255.52  1260.47  1261.74  1275.79
eigval :     1280.58  1285.45  1285.99  1287.43  1294.99  1298.45
eigval :     1303.73  1306.11  1308.72  1310.40  1334.74  1336.58
eigval :     1342.92  1350.18  1367.47  1368.03  1370.68  1374.61
eigval :     1375.46  1379.09  1387.87  1389.71  1392.27  1412.55
eigval :     1414.20  1420.48  1433.54  1443.59  1446.70  1454.74
eigval :     1456.91  1464.68  1472.82  1480.37  1487.18  1489.98
eigval :     1491.19  1491.72  1510.19  1511.00  1520.92  1561.21
eigval :     1587.78  1590.72  1592.91  1620.62  1622.57  1624.36
eigval :     2941.94  2957.93  2962.78  2975.96  2981.84  2994.24
eigval :     2996.54  3009.67  3014.38  3045.40  3047.05  3048.44
eigval :     3055.52  3063.38  3072.48  3077.08  3078.78  3079.39
eigval :     3081.42  3082.18  3084.13  3084.86  3086.05  3086.34
eigval :     3086.56  3091.99  3093.82  3094.59  3094.93  3095.39
eigval :     3096.41  3101.14  3103.35  3105.16  3442.87  3484.79

   temp. (K)  partition function   enthalpy   heat capacity  entropy
                                   cal/mol     cal/K/mol   cal/K/mol   J/K/mol
 298.15  VIB  0.491E+22            25576.104    156.575    162.311
         ROT  0.629E+08              888.752      2.981     38.665
         INT  0.308E+30            26464.856    159.556    200.976
         TR   0.172E+29             1481.254      4.968     45.415
         TOT                       27946.1100   164.5241   246.3909  1030.8995

       T/K    H(0)-H(T)+PV         H(T)/Eh          T*S/Eh         G(T)/Eh
   ------------------------------------------------------------------------
    298.15    0.445350E-01    0.724928E+00    0.117068E+00    0.607860E+00
   ------------------------------------------------------------------------

         :::::::::::::::::::::::::::::::::::::::::::::::::::::
         ::                  THERMODYNAMIC                  ::
         :::::::::::::::::::::::::::::::::::::::::::::::::::::
         :: total free energy        -136.899386863815 Eh   ::
         ::.................................................::
         :: total energy             -137.507246726547 Eh   ::
         :: zero point energy           0.680393165563 Eh   ::
         :: G(RRHO) w/o ZPVE           -0.072533302831 Eh   ::
         :: G(RRHO) contrib.            0.607859862732 Eh   ::
         :::::::::::::::::::::::::::::::::::::::::::::::::::::

           -------------------------------------------------
          | TOTAL ENERGY             -137.507246726547 Eh   |
          | TOTAL ENTHALPY           -136.782318599849 Eh   |
          | TOTAL FREE ENERGY        -136.899386863815 Eh   |
          | GRADIENT NORM               0.000111112781 Eh/α |
           -------------------------------------------------

 * finished run on 2025/08/29 at 18:20:52.859
