   * xtb version 6.7.1 (edcfbbe) compiled by 'albert@albert-system' on 2024-07-22

   ID    Z sym.   atoms
    1    6 C      1, 2, 4-8, 10-15, 18-23, 25, 26, 28-33, 35-40, 42, 43,
                  45-50, 52
    2    7 N      3, 9, 16, 17, 24, 27, 34, 41, 44, 51
    3    1 H      53-88

          program call               : xtb data2507/gas/MOF/MOF.xyz --gfn 2 --ohess vtight --parallel 40 --molden --ceasefiles --namespace data2507/gas/MOF/MOF_gas_S0_preOpt
          :  Hamiltonian                  GFN2-xTB          :
 * total energy  :  -137.5575852 Eh     change       -0.1265988E-08 Eh
 * total energy  :  -137.5789184 Eh     change       -0.2133317E-01 Eh
 * total energy  :  -137.5863003 Eh     change       -0.7381925E-02 Eh
 * total energy  :  -137.5893559 Eh     change       -0.3055650E-02 Eh
 * total energy  :  -137.5913480 Eh     change       -0.1992088E-02 Eh
 * total energy  :  -137.5925004 Eh     change       -0.1152366E-02 Eh
 * total energy  :  -137.5932816 Eh     change       -0.7812524E-03 Eh
 * total energy  :  -137.5938851 Eh     change       -0.6034637E-03 Eh
 * total energy  :  -137.5943191 Eh     change       -0.4339743E-03 Eh
 * total energy  :  -137.5946245 Eh     change       -0.3054112E-03 Eh
 * total energy  :  -137.5981123 Eh     change       -0.9714204E-06 Eh
 * total energy  :  -137.5981129 Eh     change       -0.6631877E-06 Eh
 * total energy  :  -137.5981135 Eh     change       -0.5854603E-06 Eh
 * total energy  :  -137.5981141 Eh     change       -0.5691581E-06 Eh
 * total energy  :  -137.5981146 Eh     change       -0.5192605E-06 Eh
 * total energy  :  -137.5981150 Eh     change       -0.4263183E-06 Eh
 * total energy  :  -137.5981153 Eh     change       -0.2905377E-06 Eh
 * total energy  :  -137.5981155 Eh     change       -0.1532946E-06 Eh
 * total energy  :  -137.5981155 Eh     change       -0.7889844E-07 Eh
   *** GEOMETRY OPTIMIZATION CONVERGED AFTER 67 ITERATIONS ***

 final structure:
================
88
 xtb: 6.7.1 (edcfbbe)
C            3.25549881112068        2.33744121917451       -2.49469198553860
C            2.85933791661966        3.66550610643649       -2.44512826278145
N            1.61734374443741        4.03647153901899       -2.19093674161478
C            0.72309821375403        3.09213079039285       -1.95816041838791
C            1.00194170167718        1.73080899576880       -1.95703562628551
C           -0.08544598603596        0.71919836141473       -1.73390114221018
C            0.24314786916552       -0.29511233181689       -0.61646708404114
C           -0.72131825314613       -1.44426185566861       -0.66556771754284
N           -0.33217320738875       -2.69426793870615       -0.62499328861272
C           -1.46233439028939       -3.44768865447758       -0.82023049016210
C           -1.63544163619653       -4.82471943934104       -0.87650481244643
C           -2.90982490358414       -5.29472221013390       -1.10957804846098
C           -3.99279516370727       -4.43031223709413       -1.28472455736437
C           -3.84193310233117       -3.06011925096593       -1.22475266922875
C           -2.56555901291460       -2.57898814981931       -0.98524483313148
N           -2.05571876055843       -1.31100888114744       -0.88358173293996
N            0.47748445846910        0.28562815830694        0.69733499729619
C           -0.60688003292813        0.83406762497422        1.50144766897643
C           -1.32003051893669       -0.05315451175655        2.57670351799755
C           -2.09169555475065       -1.28580131406662        2.21172672986156
C           -3.45881883606849       -1.22959174629411        1.95268992060433
C           -4.17243929564812       -2.40524382545400        1.80274999033238
C           -3.49676316005785       -3.60925399529844        1.93356854787283
N           -2.19815691068015       -3.68056129534169        2.16027098674018
C           -1.52213187273956       -2.55422187434456        2.28894712705537
C           -1.60878981991677        1.60040826753075        0.70240699531463
N           -2.72161395287213        1.16685467273977        0.17432546360213
C           -3.33059791135916        2.26180315605839       -0.39109906959046
C           -4.52653331544626        2.36422823543301       -1.09178964752872
C           -4.88351295687903        3.61252284770445       -1.55564863173521
C           -4.08137739187845        4.73543542871877       -1.33864322422833
C           -2.89082276144649        4.65378440963718       -0.64523443122565
C           -2.52713148002994        3.40326283982930       -0.17313067131384
N           -1.44784627534580        2.94646535528235        0.54022542729220
C            1.49589475197467       -0.37700376228902        1.52538513890266
C            2.18030392252837        0.63218138740786        2.48611604567617
C            2.36851833837491        2.01034226588928        1.92267606628962
C            1.73792059178497        3.11602171232926        2.48249732759081
C            1.93947224462283        4.37186638518054        1.92990555719619
C            2.79587896758915        4.47962972821719        0.84665565288451
N            3.43278134805684        3.44313294651551        0.32982389838294
C            3.21928055797954        2.24755959508379        0.84497324818455
C            2.53396842013576       -1.13247220023524        0.74916831122501
N            3.77556918681614       -0.76430767329013        0.59527925880921
C            4.38994510909943       -1.78606131949341       -0.08249287995698
C            5.70261432798542       -1.91847481903224       -0.52064415222892
C            6.03349292599735       -3.07382834213077       -1.19607068920513
C            5.09413431670158       -4.07996626674752       -1.43755291014400
C            3.78720444658216       -3.96903212680775       -1.00928731667013
C            3.44625496938479       -2.81172128062684       -0.32749046012090
N            2.27795801371956       -2.37850493623658        0.23953915570354
C            2.31238579933740        1.35857809274522       -2.24392104560843
H            4.27751294183398        2.07679770956607       -2.71741220707162
H            3.56015316046512        4.46804605509740       -2.62666431171792
H           -0.28618862693524        3.44826494939632       -1.78672208858300
H           -1.02873948632501        1.23225268225983       -1.56827321875368
H           -0.19766785580846        0.12764900652993       -2.64942105286747
H            1.20981409448469       -0.70956389483567       -0.90944889724821
H           -0.79987547655974       -5.49214430805720       -0.74171905516403
H           -3.08113289131146       -6.35974773638179       -1.16037992487099
H           -4.97165501620745       -4.84759266006387       -1.47014611090157
H           -4.67722519055167       -2.38936256719828       -1.35735952927446
H           -2.57153418130190       -0.44369314597309       -0.73458677035217
H           -0.11828496768928        1.60369333587786        2.11489620303921
H           -2.01295337901444        0.63157283794183        3.07492068268810
H           -0.56375916111989       -0.33715690626638        3.31202638640284
H           -3.95326132670208       -0.27169078653580        1.88329989100722
H           -5.23468736569030       -2.38895187918993        1.61418876449990
H           -4.01128351089785       -4.55708966056861        1.85554726743155
H           -0.46588640975559       -2.68130305450079        2.49623724460830
H           -5.14407444785237        1.49650713915436       -1.26132537956321
H           -5.80581894014035        3.73003185388288       -2.10429004590130
H           -4.40232869143391        5.69043736713701       -1.72582652750449
H           -2.26721977745963        5.51920044759931       -0.48235310919351
H           -0.63756003136069        3.47872522065610        0.81480143781437
H            1.01661899042427       -1.14900372412986        2.15322270783541
H            3.16122457482189        0.22041932401132        2.72824516688344
H            1.60387084411683        0.70096495509336        3.41207180091551
H            1.10933052435674        3.00771185061466        3.35939889116736
H            1.45802453264269        5.24542257774365        2.34465005031352
H            2.99151573190836        5.43392884298394        0.37693356847122
H            3.76128691649180        1.42358440257751        0.40191658543450
H            6.42539461495884       -1.14025611057901       -0.33409487227792
H            7.04436957289637       -3.21023732801623       -1.55152069212257
H            5.40256338383333       -4.96543236281341       -1.97369307447864
H            3.05846385912609       -4.74286798471657       -1.19574278637819
H            1.34543094825292       -2.77910281261877        0.08287879615711
H            2.59181655269143        0.31505648111627       -2.28417128395931

          :  Hamiltonian                  GFN2-xTB          :
         :: gradient norm              0.000057007305 Eh/a0 ::
         :: HOMO-LUMO gap              2.730450855245 eV    ::
         :: SCC energy              -139.866562551155 Eh    ::
         :: -> dispersion             -0.144228648562 Eh    ::
         :: repulsion energy           2.268447005991 Eh    ::

    * Orbital Energies and Occupations

         #    Occupation            Energy/Eh            Energy/eV
      -------------------------------------------------------------
         1        2.0000           -0.7122924             -19.3825
       ...           ...                  ...                  ...
       115        2.0000           -0.4062994             -11.0560
       116        2.0000           -0.4058869             -11.0447
       117        2.0000           -0.4034885             -10.9795
       118        2.0000           -0.3915388             -10.6543
       119        2.0000           -0.3879037             -10.5554
       120        2.0000           -0.3853323             -10.4854
       121        2.0000           -0.3798771             -10.3370
       122        2.0000           -0.3777831             -10.2800
       123        2.0000           -0.3759987             -10.2314
       124        2.0000           -0.3694432             -10.0531
       125        2.0000           -0.3650327              -9.9330
       126        2.0000           -0.3621424              -9.8544
       127        2.0000           -0.3616846              -9.8419 (HOMO)
       128                         -0.2613424              -7.1115 (LUMO)
       129                         -0.2496125              -6.7923
       130                         -0.2494234              -6.7872
       131                         -0.2418195              -6.5802
       132                         -0.2408928              -6.5550
       133                         -0.2383648              -6.4862
       134                         -0.2360704              -6.4238
       135                         -0.2344390              -6.3794
       136                         -0.2299657              -6.2577
       137                         -0.2226878              -6.0596
       138                         -0.2044752              -5.5641
       ...                                ...                  ...
       244                          0.7087209              19.2853
      -------------------------------------------------------------
                  HL-Gap            0.1003422 Eh            2.7304 eV

     #   Z          covCN         q      C6AA      α(0)
     1   6 C        2.913    -0.031    28.762     8.794
     2   6 C        2.916     0.065    26.536     8.447
     3   7 N        1.835    -0.225    26.759     7.666
     4   6 C        2.922     0.047    26.939     8.511
     5   6 C        2.963     0.000    28.025     8.683
     6   6 C        3.809    -0.067    21.774     6.642
     7   6 C        3.793     0.032    20.038     6.375
     8   6 C        3.179     0.131    24.757     8.123
     9   7 N        1.892    -0.314    28.983     7.981
    10   6 C        3.190     0.068    26.009     8.319
    11   6 C        2.910    -0.040    28.983     8.828
    12   6 C        2.924    -0.038    28.940     8.822
    13   6 C        2.927    -0.037    28.915     8.818
    14   6 C        2.908    -0.053    29.305     8.877
    15   6 C        3.102     0.044    26.891     8.497
    16   7 N        2.775    -0.139    23.998     7.276
    17   7 N        2.727    -0.191    25.142     7.447
    18   6 C        3.795     0.036    19.976     6.364
    19   6 C        3.804    -0.066    21.767     6.642
    20   6 C        2.961     0.001    27.994     8.678
    21   6 C        2.935    -0.019    28.488     8.753
    22   6 C        2.912    -0.038    28.955     8.824
    23   6 C        2.915     0.059    26.684     8.471
    24   7 N        1.835    -0.221    26.672     7.653
    25   6 C        2.920     0.056    26.753     8.482
    26   6 C        3.157     0.147    24.529     8.098
    27   7 N        1.890    -0.304    28.734     7.947
    28   6 C        3.192     0.063    26.117     8.334
    29   6 C        2.910    -0.044    29.083     8.843
    30   6 C        2.924    -0.037    28.915     8.818
    31   6 C        2.927    -0.033    28.819     8.804
    32   6 C        2.908    -0.050    29.230     8.865
    33   6 C        3.081     0.044    26.931     8.508
    34   7 N        2.785    -0.125    23.710     7.232
    35   6 C        3.798     0.043    19.863     6.346
    36   6 C        3.808    -0.070    21.841     6.653
    37   6 C        2.962     0.010    27.792     8.647
    38   6 C        2.934    -0.028    28.698     8.786
    39   6 C        2.911    -0.048    29.186     8.859
    40   6 C        2.911     0.056    26.735     8.479
    41   7 N        1.836    -0.219    26.606     7.644
    42   6 C        2.915     0.051    26.847     8.497
    43   6 C        3.182     0.135    24.654     8.104
    44   7 N        1.887    -0.302    28.679     7.939
    45   6 C        3.199     0.063    26.063     8.321
    46   6 C        2.910    -0.044    29.088     8.844
    47   6 C        2.924    -0.041    29.012     8.833
    48   6 C        2.927    -0.037    28.917     8.819
    49   6 C        2.908    -0.052    29.294     8.875
    50   6 C        3.094     0.044    26.912     8.502
    51   7 N        2.773    -0.150    24.247     7.313
    52   6 C        2.935    -0.014    28.364     8.734
    53   1 H        0.926     0.046     2.365     2.405
    54   1 H        0.926     0.047     2.364     2.404
    55   1 H        0.925     0.023     2.687     2.563
    56   1 H        0.925     0.038     2.478     2.462
    57   1 H        0.924     0.047     2.360     2.403
    58   1 H        0.924     0.066     2.127     2.281
    59   1 H        0.926     0.044     2.393     2.419
    60   1 H        0.926     0.034     2.525     2.485
    61   1 H        0.926     0.032     2.561     2.502
    62   1 H        0.926     0.027     2.624     2.533
    63   1 H        0.860     0.199     1.109     1.650
    64   1 H        0.923     0.048     2.345     2.395
    65   1 H        0.924     0.041     2.436     2.441
    66   1 H        0.924     0.040     2.443     2.444
    67   1 H        0.926     0.043     2.413     2.429
    68   1 H        0.926     0.036     2.507     2.476
    69   1 H        0.925     0.038     2.473     2.459
    70   1 H        0.925     0.031     2.577     2.511
    71   1 H        0.926     0.042     2.416     2.431
    72   1 H        0.926     0.038     2.471     2.458
    73   1 H        0.926     0.040     2.449     2.447
    74   1 H        0.926     0.037     2.486     2.466
    75   1 H        0.860     0.173     1.254     1.754
    76   1 H        0.923     0.026     2.639     2.541
    77   1 H        0.924     0.073     2.051     2.240
    78   1 H        0.924     0.034     2.531     2.488
    79   1 H        0.925     0.021     2.711     2.575
    80   1 H        0.926     0.029     2.598     2.520
    81   1 H        0.925     0.041     2.431     2.438
    82   1 H        0.926     0.072     2.066     2.248
    83   1 H        0.926     0.040     2.443     2.444
    84   1 H        0.926     0.030     2.589     2.516
    85   1 H        0.926     0.030     2.581     2.512
    86   1 H        0.926     0.032     2.559     2.501
    87   1 H        0.859     0.204     1.086     1.632
    88   1 H        0.926     0.034     2.531     2.488

molecular dipole:
                 x           y           z       tot (Debye)
 q only:       -0.967       0.882       0.348
   full:       -1.857       0.983       0.700       5.629

 projected vibrational frequencies (cm⁻¹)
eigval :       -0.00    -0.00    -0.00     0.00     0.00     0.00
eigval :       16.42    21.96    27.40    30.62    36.98    39.72
eigval :       41.39    53.20    54.98    55.67    63.06    64.71
eigval :       71.91    78.87    84.37    90.33   103.19   111.49
eigval :      119.34   141.41   149.81   154.74   159.54   161.24
eigval :      170.58   173.03   183.99   207.21   213.38   233.15
eigval :      242.22   251.07   253.67   258.66   271.08   294.48
eigval :      328.73   334.20   339.91   362.70   368.50   370.69
eigval :      375.12   378.15   383.84   411.69   414.09   420.76
eigval :      428.33   435.52   441.32   452.74   455.13   485.42
eigval :      509.17   522.35   523.34   537.07   538.38   545.63
eigval :      546.68   548.02   570.89   575.27   588.78   602.88
eigval :      603.30   604.05   608.16   609.62   611.75   619.52
eigval :      647.24   656.82   672.12   680.86   688.65   689.88
eigval :      694.16   699.59   714.54   715.20   715.65   736.64
eigval :      738.67   758.65   766.04   772.08   774.01   774.73
eigval :      776.19   782.59   785.40   790.17   840.22   848.18
eigval :      856.31   866.02   866.67   867.87   868.99   869.63
eigval :      873.63   878.82   882.99   893.76   897.30   899.25
eigval :      899.40   901.39   907.91   909.50   910.95   913.76
eigval :      918.17   921.56   922.41   923.44   924.64   926.56
eigval :      929.25   941.70   947.87   955.55   979.91   989.52
eigval :     1008.62  1009.90  1011.82  1031.05  1049.03  1054.54
eigval :     1059.56  1061.17  1067.75  1084.03  1097.93  1099.09
eigval :     1099.34  1104.05  1120.75  1133.66  1135.89  1138.02
eigval :     1141.68  1144.23  1145.59  1154.50  1168.94  1173.37
eigval :     1173.93  1176.96  1178.11  1188.26  1195.10  1199.65
eigval :     1200.29  1201.24  1214.17  1219.11  1220.49  1222.83
eigval :     1232.97  1238.03  1243.10  1249.64  1256.20  1264.73
eigval :     1274.20  1274.70  1277.95  1286.16  1289.31  1290.42
eigval :     1292.13  1293.56  1293.93  1301.85  1306.63  1307.91
eigval :     1311.27  1313.73  1328.98  1335.14  1351.16  1363.98
eigval :     1368.41  1370.77  1372.40  1382.14  1394.12  1403.60
eigval :     1413.80  1414.39  1415.04  1416.47  1418.07  1419.00
eigval :     1451.89  1455.79  1458.39  1464.06  1479.67  1480.10
eigval :     1491.67  1493.19  1493.89  1517.49  1538.02  1544.65
eigval :     1571.69  1572.23  1573.64  1580.75  1580.87  1586.53
eigval :     1592.38  1592.77  1594.47  1624.53  1625.96  1627.78
eigval :     2809.63  2906.13  2935.59  2953.16  2958.80  2975.87
eigval :     2993.48  2993.57  3025.50  3034.69  3038.91  3057.33
eigval :     3064.76  3066.29  3067.16  3072.28  3073.78  3076.09
eigval :     3076.21  3078.89  3079.20  3081.27  3083.34  3083.74
eigval :     3085.85  3090.33  3092.24  3093.93  3094.52  3099.92
eigval :     3104.41  3104.81  3105.99  3108.96  3206.94  3453.21

   temp. (K)  partition function   enthalpy   heat capacity  entropy
                                   cal/mol     cal/K/mol   cal/K/mol   J/K/mol
 298.15  VIB  0.189E+19            24450.906    155.202    152.209
         ROT  0.607E+08              888.752      2.981     38.595
         INT  0.115E+27            25339.658    158.183    190.804
         TR   0.172E+29             1481.254      4.968     45.415
         TOT                       26820.9118   163.1507   236.2193   988.3414

       T/K    H(0)-H(T)+PV         H(T)/Eh          T*S/Eh         G(T)/Eh
   ------------------------------------------------------------------------
    298.15    0.427418E-01    0.732501E+00    0.112235E+00    0.620266E+00
   ------------------------------------------------------------------------

         :::::::::::::::::::::::::::::::::::::::::::::::::::::
         ::                  THERMODYNAMIC                  ::
         :::::::::::::::::::::::::::::::::::::::::::::::::::::
         :: total free energy        -136.977849699885 Eh   ::
         ::.................................................::
         :: total energy             -137.598115545166 Eh   ::
         :: zero point energy           0.689759399927 Eh   ::
         :: G(RRHO) w/o ZPVE           -0.069493554646 Eh   ::
         :: G(RRHO) contrib.            0.620265845281 Eh   ::
         :::::::::::::::::::::::::::::::::::::::::::::::::::::

           -------------------------------------------------
          | TOTAL ENERGY             -137.598115545166 Eh   |
          | TOTAL ENTHALPY           -136.865614301571 Eh   |
          | TOTAL FREE ENERGY        -136.977849699885 Eh   |
          | GRADIENT NORM               0.000057033274 Eh/α |
          | HOMO-LUMO GAP               2.730449316768 eV   |
           -------------------------------------------------

 * finished run on 2025/08/29 at 18:08:14.583
