   * xtb version 6.7.1 (edcfbbe) compiled by 'albert@albert-system' on 2024-07-22

   ID    Z sym.   atoms
    1    6 C      1, 2, 4-8, 10-15, 18-23, 25, 26, 28-33, 35-40, 42, 43,
                  45-50, 52
    2    7 N      3, 9, 16, 17, 24, 27, 34, 41, 44, 51
    3    1 H      53-88

          program call               : xtb data2507/gas/MOF/MOF_gas_T1_crest.xyz --gfn 2 --spinpol --tblite --uhf 2 --ohess vtight --parallel 40 --molden --ceasefiles --namespace data2507/gas/MOF/MOF_gas_T1_finalOpt
 * total energy  :  -137.5069814 Eh     change       -0.7556488E-07 Eh
 * total energy  :  -137.5070201 Eh     change       -0.3871779E-04 Eh
 * total energy  :  -137.5070361 Eh     change       -0.1605472E-04 Eh
 * total energy  :  -137.5070410 Eh     change       -0.4869654E-05 Eh
 * total energy  :  -137.5070455 Eh     change       -0.4452548E-05 Eh
 * total energy  :  -137.5070488 Eh     change       -0.3346853E-05 Eh
 * total energy  :  -137.5070532 Eh     change       -0.4444673E-05 Eh
 * total energy  :  -137.5070582 Eh     change       -0.4984145E-05 Eh
 * total energy  :  -137.5070635 Eh     change       -0.5270738E-05 Eh
 * total energy  :  -137.5070686 Eh     change       -0.5111720E-05 Eh
 * total energy  :  -137.5072279 Eh     change       -0.1744518E-06 Eh
 * total energy  :  -137.5072279 Eh     change        0.1090800E-07 Eh
 * total energy  :  -137.5072280 Eh     change       -0.1151521E-06 Eh
 * total energy  :  -137.5072282 Eh     change       -0.1592715E-06 Eh
 * total energy  :  -137.5072283 Eh     change       -0.1224502E-06 Eh
 * total energy  :  -137.5072284 Eh     change       -0.1061644E-06 Eh
 * total energy  :  -137.5072284 Eh     change        0.3132575E-07 Eh
 * total energy  :  -137.5072285 Eh     change       -0.1286325E-06 Eh
 * total energy  :  -137.5072285 Eh     change       -0.5423871E-07 Eh
   *** GEOMETRY OPTIMIZATION CONVERGED AFTER 61 ITERATIONS ***

 final structure:
================
88
 xtb: 6.7.1 (edcfbbe)
C           -0.85890001679899        5.95404351249472        0.69477073052178
C           -1.72887843969044        5.89115723752193        1.75725950812701
N           -1.78120634211942        4.82365791918166        2.56307918244350
C           -0.97872501047651        3.78598787272424        2.33717742171994
C           -0.08112734504862        3.74662386118444        1.29080917189764
C            0.75265482181495        2.52765472821148        1.03622637637690
C            0.04499546377349        1.62017696518977       -0.00362169361504
C           -1.24367539333734        1.10439048443358        0.56945628034670
N           -1.42743601049473       -0.00559279481614        1.23505119540005
C           -2.76998141856990       -0.06051776825134        1.52546997928442
C           -3.51158856225982       -1.04374495253064        2.16842483976822
C           -4.86897213336383       -0.83304687649869        2.29298518706730
C           -5.48102440345542        0.32159695871209        1.80412087557203
C           -4.75875894064183        1.31027799824507        1.16509334502982
C           -3.39811749949025        1.09976761376172        1.02507608373972
N           -2.39328308614415        1.82228485701244        0.43685894619601
N            0.93477456172180        0.61387522087302       -0.53017340527704
C            1.64229963042447       -0.27437111550262        0.37378250981290
C            3.16723359868193       -0.15167305901896        0.15149413712239
C            3.90072925300814       -0.77485173030635        1.29657351769427
C            4.13264568105554       -0.06673822964791        2.48292256125434
C            4.79647930875898       -0.69731447235657        3.53186075979964
C            5.19146752690305       -2.00911317460103        3.37056487010722
N            4.96962593263145       -2.67607500577030        2.24291021375673
C            4.34700791715293       -2.08426978327546        1.23525918982355
C            1.21657385651932       -1.70141685655671        0.22697034272841
N            1.78190412774656       -2.59532892596452       -0.54242085047099
C            1.02284832905966       -3.73164405797811       -0.40169657626887
C            1.14928827569699       -4.98276885209619       -0.99628269969708
C            0.19364859409435       -5.93015601470252       -0.69534615196998
C           -0.86634972711004       -5.65695191348069        0.17307080660834
C           -1.00680389482646       -4.42543606059367        0.78069136221225
C           -0.05022121025132       -3.46659698212199        0.48777355683953
N            0.12245592227504       -2.16872387923448        0.88642490977688
C            0.67968083680810        0.13453777981180       -1.88118832478946
C            1.01605613365857        1.19924655665834       -2.94714027169570
C            2.40873260393037        1.70763837839548       -2.74329634084281
C            3.52458545400826        0.93961129753365       -3.10316250155897
C            4.79914877131314        1.43249165153522       -2.83523167316020
C            4.92045290590954        2.65795008311721       -2.21439358060748
N            3.86211189256756        3.39368723453503       -1.88274817789256
C            2.64657295405277        2.93118623124761       -2.14603436133350
C           -0.74646445495048       -0.30606064945328       -1.99672490547017
N           -1.76783120922256        0.50007378971454       -2.09036592299233
C           -2.88331296396859       -0.29273289724463       -1.97990619636281
C           -4.23267926511804        0.04204965682270       -1.96808410559823
C           -5.13992716495683       -0.97691469375894       -1.77059168497717
C           -4.73375237499739       -2.30125162429077       -1.59703455436095
C           -3.40038790430042       -2.65915889862792       -1.62133632717970
C           -2.48483102778581       -1.63897994250824       -1.81351960694890
N           -1.11469982501351       -1.61363093790253       -1.85085889932114
C           -0.01903357948673        4.86744529984982        0.43878329514618
H           -0.83214063372015        6.83205758740528        0.06797763830880
H           -2.40730062246646        6.69625714827309        1.99699393475968
H           -1.06980403933365        2.96279939191442        3.03350786108207
H            1.72549827894312        2.81029769769264        0.63030067932011
H            0.89899851983062        1.98247032496339        1.96922137834840
H           -0.23363752979770        2.25328247843269       -0.85268971842437
H           -3.03970464568684       -1.93475284827781        2.55219171227592
H           -5.47786307335700       -1.57879140979640        2.78196840198013
H           -6.54666790832850        0.44169130509309        1.92815569182410
H           -5.23194015463842        2.20268476843139        0.78590607001679
H           -2.49375527202631        2.68550816131724       -0.06891201304754
H            1.40471121502402        0.03347532089658        1.39480315961085
H            3.42421221081808        0.90550205845747        0.06639541147729
H            3.42386335896936       -0.65448264026541       -0.77973550385840
H            3.80501124270957        0.95791400740492        2.57610261751083
H            4.99349051483771       -0.17825729642984        4.45712327997865
H            5.69848283509029       -2.55550211963937        4.15287460443181
H            4.19396225210411       -2.68071130151862        0.34698295943982
H            1.96701530263946       -5.19305706020521       -1.66702941840046
H            0.26098828014818       -6.91133883616783       -1.14138823182850
H           -1.59233028729752       -6.43133452727544        0.37200216812994
H           -1.82724648307208       -4.21230189711497        1.44849033370023
H           -0.54335869259272       -1.53017914107975        1.33726755207750
H            1.33553698206238       -0.72752296652087       -2.03377028978799
H            0.28947753279080        2.00952966972044       -2.89530570009037
H            0.92199528603810        0.72799182009804       -3.92755528609263
H            3.39389226360308       -0.01741780394011       -3.58477046859112
H            5.67895556163837        0.86690666754211       -3.09978333925214
H            5.88365693558547        3.08267412428780       -1.97003638857212
H            1.82853503875563        3.58443070054816       -1.87228184801904
H           -4.54860318654900        1.06443476248145       -2.10050537534872
H           -6.19490829514952       -0.74860890076061       -1.74354151550044
H           -5.48281264109138       -3.06232000433871       -1.43829218900457
H           -3.07979695386774       -3.68092029626005       -1.48378371225404
H           -0.50136256670496       -2.40965690195189       -1.77672712648674
H            0.68188767021313        4.89315791632850       -0.38024398408444

 projected vibrational frequencies (cm⁻¹)
eigval :       -0.00    -0.00    -0.00    -0.00     0.00     0.00
eigval :       11.61    14.78    15.23    17.06    19.48    20.99
eigval :       28.53    35.17    37.41    41.01    43.04    49.25
eigval :       57.17    58.99    63.76    70.47    76.31    88.47
eigval :      105.91   112.01   118.69   133.94   139.32   147.40
eigval :      156.84   163.13   180.96   195.73   197.36   216.91
eigval :      243.17   247.86   252.35   259.26   282.30   300.43
eigval :      325.52   336.53   346.07   348.31   350.06   356.22
eigval :      359.44   366.04   368.03   397.42   412.88   414.72
eigval :      424.36   435.04   441.79   451.71   463.71   471.60
eigval :      488.11   491.06   504.41   510.70   521.35   535.74
eigval :      542.65   545.48   545.81   548.19   551.21   559.83
eigval :      580.07   584.90   591.46   601.20   608.24   608.87
eigval :      611.00   614.71   619.91   641.71   644.39   650.59
eigval :      669.20   685.43   693.17   706.72   709.90   711.71
eigval :      714.94   716.73   730.93   743.93   751.66   757.96
eigval :      768.54   771.89   773.44   789.31   799.60   802.57
eigval :      832.20   838.77   845.76   848.20   849.37   856.95
eigval :      860.18   860.70   862.67   863.99   864.41   866.76
eigval :      867.56   869.63   871.27   878.22   879.19   882.13
eigval :      892.39   893.14   893.46   896.49   898.04   898.21
eigval :      918.89   920.17   922.35   944.03   945.96   953.68
eigval :      986.88  1003.69  1018.67  1020.20  1042.72  1045.76
eigval :     1050.88  1051.35  1059.43  1060.23  1063.74  1068.06
eigval :     1079.08  1084.87  1101.43  1104.36  1111.45  1114.06
eigval :     1115.52  1116.72  1122.65  1129.40  1131.92  1133.81
eigval :     1136.53  1137.83  1145.63  1155.93  1160.81  1173.34
eigval :     1173.58  1176.46  1181.66  1184.55  1218.83  1219.57
eigval :     1220.50  1221.08  1221.53  1225.49  1236.64  1240.22
eigval :     1241.24  1245.88  1254.71  1256.30  1270.58  1274.47
eigval :     1281.43  1283.97  1285.25  1286.42  1290.74  1297.41
eigval :     1300.64  1306.56  1308.23  1309.34  1324.64  1327.13
eigval :     1336.24  1341.47  1343.18  1367.55  1370.50  1373.97
eigval :     1375.10  1377.01  1382.37  1391.18  1398.66  1400.65
eigval :     1411.55  1413.69  1419.55  1438.79  1443.82  1449.26
eigval :     1452.67  1455.98  1458.56  1469.91  1479.71  1489.59
eigval :     1490.69  1491.26  1507.03  1509.06  1520.60  1560.23
eigval :     1587.59  1589.96  1592.12  1619.70  1621.68  1623.17
eigval :     2941.30  2956.80  2966.55  2977.38  2983.16  2986.12
eigval :     2991.94  3009.22  3018.34  3047.09  3050.58  3068.83
eigval :     3069.27  3070.13  3073.79  3075.00  3078.69  3079.07
eigval :     3079.56  3080.09  3081.32  3083.65  3083.76  3085.66
eigval :     3086.42  3091.00  3092.49  3094.07  3094.42  3094.74
eigval :     3095.03  3100.67  3104.16  3105.08  3441.33  3486.36

   temp. (K)  partition function   enthalpy   heat capacity  entropy
                                   cal/mol     cal/K/mol   cal/K/mol   J/K/mol
 298.15  VIB  0.347E+22            25585.996    156.588    161.967
         ROT  0.628E+08              888.752      2.981     38.664
         INT  0.218E+30            26474.749    159.569    200.631
         TR   0.172E+29             1481.254      4.968     45.415
         TOT                       27956.0026   164.5374   246.0457  1029.4554

       T/K    H(0)-H(T)+PV         H(T)/Eh          T*S/Eh         G(T)/Eh
   ------------------------------------------------------------------------
    298.15    0.445507E-01    0.724618E+00    0.116904E+00    0.607714E+00
   ------------------------------------------------------------------------

         :::::::::::::::::::::::::::::::::::::::::::::::::::::
         ::                  THERMODYNAMIC                  ::
         :::::::::::::::::::::::::::::::::::::::::::::::::::::
         :: total free energy        -136.899514970247 Eh   ::
         ::.................................................::
         :: total energy             -137.507228528589 Eh   ::
         :: zero point energy           0.680067104082 Eh   ::
         :: G(RRHO) w/o ZPVE           -0.072353545739 Eh   ::
         :: G(RRHO) contrib.            0.607713558343 Eh   ::
         :::::::::::::::::::::::::::::::::::::::::::::::::::::

           -------------------------------------------------
          | TOTAL ENERGY             -137.507228528589 Eh   |
          | TOTAL ENTHALPY           -136.782610698528 Eh   |
          | TOTAL FREE ENERGY        -136.899514970247 Eh   |
          | GRADIENT NORM               0.000110922264 Eh/α |
           -------------------------------------------------

 * finished run on 2025/08/29 at 18:55:36.452
