   * xtb version 6.7.1 (edcfbbe) compiled by 'albert@albert-system' on 2024-07-22

   ID    Z sym.   atoms
    1    8 O      1, 21
    2   15 P      2
    3    6 C      3-20, 22-38, 40-71
    4    7 N      39
    5    1 H      72-115

          program call               : xtb data2507/gas/9PhCzFDBFSPO/9PhCzFDBFSPO_gas_S0_finalOpt.xtbopt.xyz --gfn 2 --spinpol --tblite --uhf 2 --ohess vtight --parallel 40 --molden --ceasefiles --namespace data2507/gas/9PhCzFDBFSPO/9PhCzFDBFSPO_gas_T1_preOpt
 * total energy  :  -179.4860083 Eh     change        0.3334102E-07 Eh
 * total energy  :  -179.4900719 Eh     change       -0.4063643E-02 Eh
 * total energy  :  -179.4932395 Eh     change       -0.3167626E-02 Eh
 * total energy  :  -179.4941786 Eh     change       -0.9390830E-03 Eh
 * total energy  :  -179.4953821 Eh     change       -0.1203445E-02 Eh
 * total energy  :  -179.4958279 Eh     change       -0.4457972E-03 Eh
 * total energy  :  -179.4961286 Eh     change       -0.3007525E-03 Eh
 * total energy  :  -179.4963371 Eh     change       -0.2085391E-03 Eh
 * total energy  :  -179.4964428 Eh     change       -0.1056387E-03 Eh
 * total energy  :  -179.4964974 Eh     change       -0.5463960E-04 Eh
 * total energy  :  -179.4975593 Eh     change       -0.9739191E-06 Eh
 * total energy  :  -179.4975604 Eh     change       -0.1120572E-05 Eh
 * total energy  :  -179.4975619 Eh     change       -0.1481545E-05 Eh
 * total energy  :  -179.4975640 Eh     change       -0.2077824E-05 Eh
 * total energy  :  -179.4975661 Eh     change       -0.2109218E-05 Eh
 * total energy  :  -179.4975660 Eh     change        0.1369865E-06 Eh
 * total energy  :  -179.4975661 Eh     change       -0.1430764E-06 Eh
 * total energy  :  -179.4975661 Eh     change        0.5384237E-07 Eh
 * total energy  :  -179.4975661 Eh     change       -0.5412608E-07 Eh
   *** GEOMETRY OPTIMIZATION CONVERGED AFTER 125 ITERATIONS ***

 final structure:
================
115
 xtb: 6.7.1 (edcfbbe)
O          -11.19624239768313       -1.96723302336971        1.23242543279843
P           -9.91720788504876       -1.97195509585929        0.51187849329423
C           -9.33476249969769       -3.63768814675199        0.07313800846472
C          -10.10146220477490       -4.71031391363175        0.50477421852091
C           -9.70461456628276       -6.00446882333894        0.21778004254113
C           -8.53942300102272       -6.22405944502414       -0.49827642842657
C           -7.77184630413254       -5.15188580547856       -0.92801182433163
C           -8.16493358693518       -3.85720236921529       -0.64399032391191
C           -9.93940384005872       -0.99368071199622       -1.02688562224836
C           -9.94297264570074        0.38849528288010       -0.89972992735677
C           -9.99971894370259        1.18664826300816       -2.02678607905742
C          -10.06182777111920        0.60271265641322       -3.28225460031401
C          -10.07731509813769       -0.77628733812926       -3.40819143682064
C          -10.01785027013188       -1.57765574062585       -2.28088945218131
C           -8.56812382864026       -1.23130410925034        1.48356958279292
C           -8.72446718027313       -1.10430500601583        2.85701216207332
C           -7.73862145343550       -0.53169430833474        3.65257175070055
C           -6.56320303173004       -0.05698708556726        3.10057644098588
C           -6.38482906462457       -0.16658270652253        1.72667577742621
C           -7.38681719473679       -0.75900392978121        0.93429431576315
O           -7.04604294248675       -0.77943267387119       -0.38033819466854
C           -5.81989017177404       -0.19125995459067       -0.46489466859978
C           -5.08003725021844        0.01280984827621       -1.61473228187907
C           -3.84860633732204        0.62436424382397       -1.47653530603005
C           -3.35514499273889        1.03275528581322       -0.23040520240461
C           -2.03753128783138        1.68015172003209       -0.14032554397556
C           -0.95691943120504        1.20621780471677       -0.88017416136681
C            0.28024927038343        1.81182333599935       -0.79090865459045
C            0.47557513163289        2.90961020257424        0.03998778639832
C            1.81813191954346        3.60695812091183        0.07197125252380
C            2.97838040729329        2.64784370566689        0.00180487296748
C            4.16380028314231        2.97425619753681       -0.67956195474517
C            5.23012125144626        2.12520484886321       -0.69856174724291
C            5.21821986244406        0.87021300095519       -0.00118011140075
C            6.31061295652326       -0.00957212145976       -0.01890191028895
C            6.41863035088579       -1.13043623193845        0.88550247119623
C            7.46866197509294       -1.98590168425224        0.85820893627252
C            8.53651150662894       -1.81031778291793       -0.06318322660024
N            9.60834635180586       -2.67693263590235       -0.08363006381210
C            9.54051324224677       -4.05695074545262        0.01782565975306
C            8.42901666204470       -4.88594920540889        0.07972998334929
C            8.64077550695507       -6.25106940655297        0.14382604742911
C            9.92705598541886       -6.78788600343297        0.13177143899051
C           11.03742779550820       -5.97129113883065        0.02762270480982
C           10.84937435933398       -4.59841214474765       -0.03930653475598
C           11.74544103824784       -3.48703136579859       -0.18683860981735
C           13.12558032841906       -3.38225338190275       -0.28095578741160
C           13.68958413050842       -2.12390647039224       -0.37608380533776
C           12.89555588378650       -0.97857748891485       -0.35254344181313
C           11.51800244800086       -1.05846960515796       -0.26056600905455
C           10.94122443020700       -2.31981741389054       -0.20735637920491
C            8.46363107081846       -0.71120185674219       -0.96144275344575
C            7.40808346640712        0.13774358388268       -0.94619502680571
C            4.01001333780691        0.58211625919292        0.71874811259999
C            2.94527449952620        1.43155026205856        0.71071591368628
C            1.83545260523797        4.65237376594442       -1.02719644070069
C            1.65435740251748        4.47722352873529       -2.38206191558505
C            1.70206822702822        5.59149586602260       -3.20922637360820
C            1.92349246492433        6.85624456200499       -2.68566462942721
C            2.09984315142002        7.03898040002830       -1.32384197142380
C            2.05346258518700        5.93073066294897       -0.49378225575371
C            2.19582023300159        5.81334993084047        0.94724009960659
C            2.43518639106630        6.77332045751055        1.91682861115595
C            2.51566657566938        6.37498495231680        3.24093897849273
C            2.36183720851592        5.04130760047319        3.59103392063140
C            2.12683824846476        4.07402947742600        2.62423117292193
C            2.03839535510613        4.46567503317779        1.30480894398983
C           -0.60248675191268        3.39301295470888        0.76961706435568
C           -1.83904368674387        2.78264867374162        0.68639032684803
C           -4.11231130807705        0.82628899462588        0.91623099259137
C           -5.34863908185949        0.20947685871975        0.80062253825452
H          -11.00665470627372       -4.50778587674553        1.05906759499377
H          -10.30171401785742       -6.84080870843910        0.55075911017328
H           -8.22692538036908       -7.23326277360758       -0.72422130077756
H           -6.86436629140115       -5.32842357549135       -1.48747821219479
H           -7.57702378908941       -3.01690807201232       -0.98134299319195
H           -9.90036357152752        0.82601471172040        0.08961856546165
H           -9.99485415495697        2.26271423663893       -1.92963691291760
H          -10.10297790298227        1.22513247440599       -4.16433571556330
H          -10.13510836396265       -1.22894935851528       -4.38768121084284
H          -10.02987624674244       -2.65516481250887       -2.37191767577716
H           -9.64967625549444       -1.45443879837312        3.29098418929928
H           -7.89923154820891       -0.45201489819135        4.71725713123388
H           -5.80016831294717        0.39424998160889        3.71605151704577
H           -5.45802495589268       -0.29089689604364       -2.57795405221723
H           -3.25469534790875        0.81366236352842       -2.35792616835177
H           -1.08338288150529        0.34155176173427       -1.51548624321829
H            1.10958146208781        1.42132576399792       -1.36339354802873
H            4.22467786312352        3.91783582902204       -1.20314350105582
H            6.12024778437889        2.42849555612725       -1.22575340336275
H            5.66813922566010       -1.26013201931100        1.64798541348159
H            7.54618174645911       -2.77602773266493        1.59079945276264
H            7.42749136142242       -4.48544959488378        0.05856046590094
H            7.79109413847496       -6.91496748332898        0.19648361537148
H           10.05256496889123       -7.85877180125650        0.18815892909175
H           12.03197409454192       -6.38929555787526       -0.00880309795543
H           13.74295100338611       -4.26767188991175       -0.27209534686540
H           14.76162977942488       -2.02138508984003       -0.45320696689922
H           13.36580432212309       -0.00792775822792       -0.39912006353279
H           10.91760985391779       -0.16347733869126       -0.21166644836590
H            9.23481976039992       -0.60733867649097       -1.71073706137680
H            7.36005019724919        0.91436375629733       -1.69185802610093
H            3.92307884864465       -0.34872117406441        1.25585334934442
H            2.04581997034825        1.16351047232544        1.24754343317978
H            1.48115827457564        3.49483090078042       -2.79570479525038
H            1.56484563213691        5.47104148837409       -4.27386277560717
H            1.95710485049540        7.70872122610535       -3.34849708215768
H            2.26949050715425        8.02532630912081       -0.91822184096796
H            2.55667390940326        7.81166611070977        1.64598062944669
H            2.70109060918167        7.10979369739234        4.01082710575198
H            2.42637039598154        4.75161733541820        4.62964800438017
H            2.01106894026480        3.03767564486354        2.90428093380727
H           -0.47380198523351        4.25500194251004        1.40812609087637
H           -2.66897368865870        3.18082712344077        1.25189469090350
H           -3.73704175527333        1.12176200255367        1.88400238832241

 projected vibrational frequencies (cm⁻¹)
eigval :       -0.00    -0.00    -0.00     0.00     0.00     0.00
eigval :        4.40     6.15     8.36    10.66    12.91    17.83
eigval :       22.26    24.49    26.25    31.47    32.01    37.38
eigval :       41.40    48.70    55.63    57.99    59.72    71.59
eigval :       78.30    81.97    86.95    92.25    97.93   101.43
eigval :      112.82   118.28   119.56   131.49   137.95   146.17
eigval :      150.68   158.22   163.36   177.95   199.89   208.08
eigval :      216.19   221.18   229.48   237.54   238.09   244.46
eigval :      248.11   264.60   268.23   271.09   273.66   284.13
eigval :      292.16   296.01   302.75   326.02   338.14   355.12
eigval :      362.58   363.74   366.89   374.35   378.31   382.42
eigval :      386.43   390.02   395.16   395.63   403.06   411.25
eigval :      413.38   414.70   419.96   434.66   437.26   441.34
eigval :      449.73   453.13   467.03   468.02   476.70   496.46
eigval :      500.30   514.19   516.67   522.96   532.79   533.17
eigval :      537.47   543.82   544.34   544.49   568.22   577.80
eigval :      582.99   586.25   586.41   586.58   588.22   591.48
eigval :      598.25   600.28   609.03   615.80   623.66   634.99
eigval :      648.07   657.73   658.23   662.22   666.89   669.84
eigval :      681.63   686.24   688.79   694.46   700.17   704.43
eigval :      711.83   722.08   725.13   736.43   741.71   744.11
eigval :      750.28   754.87   758.10   766.28   768.24   774.65
eigval :      778.45   781.11   783.24   784.61   794.85   798.84
eigval :      807.89   830.25   837.02   845.61   868.86   869.18
eigval :      872.12   875.55   876.56   879.00   879.63   880.54
eigval :      882.84   891.29   892.34   893.86   895.06   895.93
eigval :      898.85   901.80   903.90   904.24   907.65   908.05
eigval :      909.54   910.06   911.09   912.67   917.15   918.62
eigval :      921.55   921.82   923.04   925.29   926.88   927.03
eigval :      930.53   931.65   933.62   934.67   934.77   946.63
eigval :      972.67   972.90   977.03   988.14  1004.68  1008.10
eigval :     1011.46  1036.65  1068.40  1071.53  1074.05  1075.97
eigval :     1077.51  1078.80  1081.37  1094.12  1105.31  1110.28
eigval :     1113.19  1114.96  1123.51  1131.14  1131.55  1137.34
eigval :     1141.11  1143.63  1145.70  1146.73  1165.52  1166.03
eigval :     1174.16  1175.22  1176.86  1179.44  1180.36  1180.87
eigval :     1181.28  1183.75  1191.00  1192.50  1198.61  1203.16
eigval :     1205.32  1209.69  1217.84  1219.06  1222.93  1227.06
eigval :     1231.70  1236.68  1240.58  1248.18  1252.68  1255.87
eigval :     1257.76  1260.13  1266.67  1270.60  1272.98  1274.37
eigval :     1276.42  1286.49  1288.79  1306.58  1309.39  1319.66
eigval :     1321.08  1322.90  1326.75  1329.48  1334.83  1340.91
eigval :     1341.11  1344.45  1355.00  1365.19  1367.10  1372.18
eigval :     1385.25  1387.37  1399.23  1402.09  1410.94  1418.27
eigval :     1424.35  1425.12  1427.22  1428.84  1435.35  1452.80
eigval :     1455.97  1457.72  1458.01  1459.68  1461.43  1470.68
eigval :     1472.53  1474.45  1483.50  1501.50  1513.27  1528.11
eigval :     1557.07  1557.12  1557.99  1568.17  1572.95  1580.54
eigval :     1582.02  1583.41  1584.48  1585.49  1585.66  1586.89
eigval :     1589.59  1589.65  1593.28  1596.79  1598.95  1602.97
eigval :     1610.60  3051.69  3064.27  3066.52  3071.60  3072.20
eigval :     3073.09  3073.47  3073.76  3074.68  3075.66  3076.82
eigval :     3076.93  3078.33  3079.08  3080.18  3080.58  3081.18
eigval :     3081.86  3082.73  3083.12  3083.55  3086.31  3087.01
eigval :     3087.55  3088.34  3088.51  3089.09  3089.49  3090.46
eigval :     3091.02  3092.47  3093.92  3094.20  3094.74  3096.36
eigval :     3097.19  3097.82  3098.79  3099.25  3101.00  3101.84
eigval :     3105.13  3110.42  3111.60

   temp. (K)  partition function   enthalpy   heat capacity  entropy
                                   cal/mol     cal/K/mol   cal/K/mol   J/K/mol
 298.15  VIB  0.137E+30            34335.892    212.704    217.408
         ROT  0.520E+09              888.752      2.981     42.863
         INT  0.713E+38            35224.644    215.685    260.271
         TR   0.273E+29             1481.254      4.968     46.331
         TOT                       36705.8980   220.6527   306.6023  1282.8242

       T/K    H(0)-H(T)+PV         H(T)/Eh          T*S/Eh         G(T)/Eh
   ------------------------------------------------------------------------
    298.15    0.584946E-01    0.934555E+00    0.145677E+00    0.788878E+00
   ------------------------------------------------------------------------

         :::::::::::::::::::::::::::::::::::::::::::::::::::::
         ::                  THERMODYNAMIC                  ::
         :::::::::::::::::::::::::::::::::::::::::::::::::::::
         :: total free energy        -178.708687632537 Eh   ::
         ::.................................................::
         :: total energy             -179.497566113790 Eh   ::
         :: zero point energy           0.876060573787 Eh   ::
         :: G(RRHO) w/o ZPVE           -0.087182092534 Eh   ::
         :: G(RRHO) contrib.            0.788878481252 Eh   ::
         :::::::::::::::::::::::::::::::::::::::::::::::::::::

           -------------------------------------------------
          | TOTAL ENERGY             -179.497566113790 Eh   |
          | TOTAL ENTHALPY           -178.563010968161 Eh   |
          | TOTAL FREE ENERGY        -178.708687632537 Eh   |
          | GRADIENT NORM               0.000123230037 Eh/α |
           -------------------------------------------------

 * finished run on 2025/07/17 at 12:44:37.100
