   * xtb version 6.7.1 (edcfbbe) compiled by 'albert@albert-system' on 2024-07-22

   ID    Z sym.   atoms
    1    8 O      1, 21
    2   15 P      2
    3    6 C      3-20, 22-38, 40-71
    4    7 N      39
    5    1 H      72-115

          program call               : xtb data2507/gas/9PhCzFDBFSPO/9PhCzFDBFSPO.xyz --gfn 2 --ohess vtight --parallel 40 --molden --ceasefiles --namespace data2507/gas/9PhCzFDBFSPO/9PhCzFDBFSPO_gas_S0_preOpt
          :  Hamiltonian                  GFN2-xTB          :
 * total energy  :  -179.5631440 Eh     change       -0.1906301E-08 Eh
 * total energy  :  -179.5840202 Eh     change       -0.2087626E-01 Eh
 * total energy  :  -179.5901722 Eh     change       -0.6151944E-02 Eh
 * total energy  :  -179.5920425 Eh     change       -0.1870281E-02 Eh
 * total energy  :  -179.5936298 Eh     change       -0.1587290E-02 Eh
 * total energy  :  -179.5943708 Eh     change       -0.7410407E-03 Eh
 * total energy  :  -179.5946972 Eh     change       -0.3264163E-03 Eh
 * total energy  :  -179.5948750 Eh     change       -0.1777899E-03 Eh
 * total energy  :  -179.5950127 Eh     change       -0.1377047E-03 Eh
 * total energy  :  -179.5951499 Eh     change       -0.1371705E-03 Eh
 * total energy  :  -179.5966440 Eh     change       -0.8729196E-06 Eh
 * total energy  :  -179.5966448 Eh     change       -0.7518894E-06 Eh
 * total energy  :  -179.5966454 Eh     change       -0.6585422E-06 Eh
 * total energy  :  -179.5966461 Eh     change       -0.6773803E-06 Eh
 * total energy  :  -179.5966468 Eh     change       -0.7001221E-06 Eh
 * total energy  :  -179.5966476 Eh     change       -0.8124221E-06 Eh
 * total energy  :  -179.5966486 Eh     change       -0.9944218E-06 Eh
 * total energy  :  -179.5966497 Eh     change       -0.1146483E-05 Eh
 * total energy  :  -179.5966498 Eh     change       -0.7914082E-08 Eh
   *** GEOMETRY OPTIMIZATION CONVERGED AFTER 94 ITERATIONS ***

 final structure:
================
115
 xtb: 6.7.1 (edcfbbe)
O          -11.50210447477800       -2.10753122368727        1.33678018420154
P          -10.23230770359646       -2.09114325715429        0.60055943434842
C           -9.65691063448939       -3.74232947320170        0.10213010016558
C          -10.42571821780248       -4.82693069180791        0.49852575893712
C          -10.03564333768913       -6.11124080134339        0.16201857938639
C           -8.87526655960311       -6.30889171210541       -0.56807749462705
C           -8.10565541233661       -5.22473378340210       -0.96258740632259
C           -8.49208024856595       -3.93980074897310       -0.62931344608886
C          -10.26946894703568       -1.06327326628006       -0.90512902563803
C          -10.27379698384181        0.31399617618354       -0.73229266956315
C          -10.33911124318220        1.14885904819984       -1.83194200187217
C          -10.40918450881429        0.60659187061544       -3.10556867108575
C          -10.42429557939060       -0.76753044003957       -3.27688764695921
C          -10.35604019359150       -1.60567273190616       -2.17714073556904
C           -8.87103397479374       -1.38072388480021        1.57950137433040
C           -9.01222111002934       -1.29528065247536        2.95706625899155
C           -8.01901600778990       -0.74374288970530        3.75883240710608
C           -6.85151807898787       -0.24881463898304        3.20811866152703
C           -6.68827345037470       -0.31676645193228        1.83015265886294
C           -7.69724372626288       -0.88853367368178        1.03143543697573
O           -7.37074571432080       -0.86914515510528       -0.28672341728324
C           -6.14740629012107       -0.27541109399902       -0.36722768364755
C           -5.42054828027094       -0.03631420266505       -1.51890209396894
C           -4.18947446170166        0.57418908274663       -1.37638486320258
C           -3.68371994108027        0.94842372757325       -0.12456161695039
C           -2.36745890544816        1.59815799188865       -0.03131910863601
C           -1.29281928149107        1.14722843170497       -0.79369905510978
C           -0.05739431534623        1.75637955913717       -0.70361222970154
C            0.14292697073117        2.83525224651176        0.15070939894054
C            1.48159837396362        3.54289874824479        0.18242494802225
C            2.64989948056856        2.58416509299502        0.08193558592571
C            3.80112850781951        2.92742957272411       -0.61484990241695
C            4.88254363313279        2.06884198460860       -0.65554405204985
C            4.85179849047583        0.84852200963551        0.01395885982025
C            6.00324012489453       -0.06214787544088       -0.02759912680457
C            6.41709308445343       -0.74148278224104        1.11659817649665
C            7.50578898895064       -1.58878553310251        1.08387406063571
C            8.19884952956935       -1.79167139019384       -0.10653098697589
N            9.29947705718467       -2.65700704213623       -0.14617995067044
C            9.32890978459381       -3.95014499603144        0.33726090585817
C            8.31487744353394       -4.70232491997049        0.91292992809410
C            8.60773847187138       -5.99885610506863        1.28999613402889
C            9.87420503278041       -6.54534831718517        1.09434267492599
C           10.88001304315738       -5.81031861849913        0.49970188793577
C           10.61006979438246       -4.50440326729976        0.11236963466965
C           11.38764132752859       -3.48528129979857       -0.53484442550060
C           12.70069577414513       -3.42560286675446       -0.98281155688562
C           13.15157567992926       -2.25349468517241       -1.55584517494651
C           12.31586960220818       -1.14472230114466       -1.67048071705403
C           11.00605950612619       -1.17961131942843       -1.23220352052507
C           10.53949118599944       -2.36314375393463       -0.67810901833734
C            7.78681596062351       -1.12519888791227       -1.25747061953262
C            6.70839243809796       -0.26549420839495       -1.21227731247384
C            3.70217166668088        0.51534466908731        0.72632513919820
C            2.61844872066110        1.36968125341641        0.75878916212383
C            1.46728437282869        4.59797147291316       -0.90777247205927
C            1.29120233305795        4.43099513946645       -2.26460643421526
C            1.29733985415618        5.55469669136509       -3.07998755496632
C            1.47164058127132        6.82121286791383       -2.54331384429095
C            1.64251568815841        6.99567341929543       -1.17960166624393
C            1.63816368194997        5.87780029206735       -0.36180111038241
C            1.78948397589533        5.75067968016364        1.07849310091001
C            1.99754527738754        6.70867343964575        2.05693945183435
C            2.10760789424249        6.29787463463753        3.37545241078886
C            2.01401537031311        4.95564459391132        3.71023785430897
C            1.80664935396679        3.99123838234648        2.73320807019355
C            1.69000290218958        4.39470241627674        1.42039097078572
C           -0.92991199338832        3.29574695427532        0.90274385086114
C           -2.16449821452464        2.68119060048859        0.81920553061949
C           -4.42770666413791        0.70700357698870        1.02394164774609
C           -5.66313498356820        0.08981791842109        0.90389965376033
H          -11.32693623684097       -4.64144654645964        1.06510828910366
H          -10.63432744895286       -6.95688544578431        0.46736337379041
H           -8.56818084544727       -7.31029030779110       -0.83269944667226
H           -7.20203692641364       -5.38410906037162       -1.53329199181355
H           -7.90295050435929       -3.08999215559398       -0.93956682548025
H          -10.22505957651727        0.71867214677865        0.27066762520531
H          -10.33470664226775        2.22111532326221       -1.69930796618105
H          -10.45696012319509        1.25774275150690       -3.96628406276783
H          -10.48860127151576       -1.18765541816154       -4.27032329358209
H          -10.36749305502671       -2.67956564921508       -2.30373183042535
H           -9.93160166146896       -1.66092035461440        3.39071548710707
H           -8.16796724592146       -0.69667780769196        4.82709168436502
H           -6.08307406314042        0.18651909721148        3.82835023989832
H           -5.80839277819543       -0.31331477620624       -2.48620098750012
H           -3.60528155157737        0.79010016975880       -2.25816325111866
H           -1.42220005621394        0.29758032783362       -1.44831709080736
H            0.76544398523245        1.38136080505550       -1.29515846654343
H            3.85339278206390        3.87486151776130       -1.13111504392121
H            5.77268483163496        2.35933747478462       -1.19425952219422
H            5.89731606634351       -0.57858677193569        2.04926974445778
H            7.83745260734870       -2.08566428635171        1.98343221362223
H            7.32493714327998       -4.29449886574069        1.05188905531351
H            7.83602665250216       -6.60351883012077        1.74345298157414
H           10.06393415605714       -7.56189755313650        1.40547716482737
H           11.85682893745907       -6.23878872169534        0.33291251056418
H           13.35285475599367       -4.27965723524057       -0.87860559655664
H           14.16846647516265       -2.18683221592358       -1.91314312678361
H           12.70159273636462       -0.23582337965792       -2.10851516024087
H           10.37230437323379       -0.30888171981529       -1.30840796059111
H            8.30731756843899       -1.29897939298868       -2.18751552951601
H            6.38812826480584        0.23452025021789       -2.11454025049496
H            3.64971115015538       -0.43268435568680        1.24184083310244
H            1.73126428850102        1.08388887074155        1.30555261765794
H            1.15406692588081        3.44755643470934       -2.68912033189289
H            1.16407280026041        5.44032740061508       -4.14576515997790
H            1.47237838998668        7.68130649353253       -3.19694105237045
H            1.77546516951263        7.98323929045735       -0.76357454833079
H            2.07336719688194        7.75429968601728        1.79816844449617
H            2.26983788452331        7.03071827916009        4.15236970462327
H            2.10422364468628        4.65591299191514        4.74403446050670
H            1.73593688652340        2.94749118245200        3.00101747232131
H           -0.80000070080427        4.14363513346352        1.55933185315808
H           -2.98954280278020        3.06214009883464        1.40331072876701
H           -4.04275070319097        0.97630752175262        1.99554173073710

          :  Hamiltonian                  GFN2-xTB          :
         :: gradient norm              0.000065213104 Eh/a0 ::
         :: HOMO-LUMO gap              2.562730468258 eV    ::
         :: SCC energy              -182.945302580324 Eh    ::
         :: -> dispersion             -0.169583132613 Eh    ::
         :: repulsion energy           3.348652822381 Eh    ::

    * Orbital Energies and Occupations

         #    Occupation            Energy/Eh            Energy/eV
      -------------------------------------------------------------
         1        2.0000           -0.7451593             -20.2768
       ...           ...                  ...                  ...
       155        2.0000           -0.4087461             -11.1225
       156        2.0000           -0.4083372             -11.1114
       157        2.0000           -0.4046870             -11.0121
       158        2.0000           -0.4031205             -10.9695
       159        2.0000           -0.4010719             -10.9137
       160        2.0000           -0.3992752             -10.8648
       161        2.0000           -0.3974784             -10.8159
       162        2.0000           -0.3966328             -10.7929
       163        2.0000           -0.3902778             -10.6200
       164        2.0000           -0.3843959             -10.4599
       165        2.0000           -0.3813976             -10.3784
       166        2.0000           -0.3765299             -10.2459
       167        2.0000           -0.3599364              -9.7944 (HOMO)
       168                         -0.2657578              -7.2316 (LUMO)
       169                         -0.2567369              -6.9862
       170                         -0.2540690              -6.9136
       171                         -0.2520848              -6.8596
       172                         -0.2468244              -6.7164
       173                         -0.2419398              -6.5835
       174                         -0.2397681              -6.5244
       175                         -0.2335151              -6.3543
       176                         -0.2322159              -6.3189
       177                         -0.2320896              -6.3155
       178                         -0.2302259              -6.2648
       ...                                ...                  ...
       333                          1.2188058              33.1654
      -------------------------------------------------------------
                  HL-Gap            0.0941786 Eh            2.5627 eV

     #   Z          covCN         q      C6AA      α(0)
     1   8 O        0.808    -0.356    20.851     6.121
     2  15 P        4.056     0.085   156.495    22.472
     3   6 C        2.921     0.012    27.742     8.637
     4   6 C        3.027    -0.021    28.494     8.756
     5   6 C        2.919    -0.027    28.683     8.783
     6   6 C        2.920    -0.025    28.632     8.775
     7   6 C        2.920    -0.028    28.704     8.786
     8   6 C        2.977    -0.027    28.669     8.783
     9   6 C        2.921     0.020    27.552     8.608
    10   6 C        3.023    -0.016    28.374     8.738
    11   6 C        2.919    -0.026    28.643     8.776
    12   6 C        2.921    -0.025    28.631     8.775
    13   6 C        2.920    -0.026    28.656     8.778
    14   6 C        2.977    -0.021    28.515     8.759
    15   6 C        2.908    -0.015    28.389     8.737
    16   6 C        3.014    -0.025    28.611     8.774
    17   6 C        2.919    -0.038    28.937     8.821
    18   6 C        2.913    -0.031    28.776     8.796
    19   6 C        3.054    -0.021    28.465     8.750
    20   6 C        3.156     0.132    24.842     8.150
    21   8 O        1.715    -0.219    17.637     5.670
    22   6 C        3.105     0.127    25.099     8.209
    23   6 C        2.907    -0.052    29.288     8.874
    24   6 C        2.932    -0.036    28.905     8.817
    25   6 C        2.977     0.005    27.915     8.667
    26   6 C        2.978     0.008    27.847     8.656
    27   6 C        2.924    -0.036    28.887     8.814
    28   6 C        2.922    -0.034    28.854     8.809
    29   6 C        2.980     0.016    27.642     8.624
    30   6 C        3.947     0.007    20.386     6.416
    31   6 C        2.980     0.016    27.652     8.626
    32   6 C        2.922    -0.036    28.896     8.815
    33   6 C        2.925    -0.035    28.869     8.811
    34   6 C        2.977     0.007    27.859     8.658
    35   6 C        2.976     0.007    27.859     8.658
    36   6 C        2.925    -0.034    28.836     8.806
    37   6 C        2.920    -0.044    29.081     8.843
    38   6 C        2.913     0.062    26.601     8.457
    39   7 N        2.802    -0.044    22.085     6.980
    40   6 C        3.076     0.047    26.875     8.500
    41   6 C        2.910    -0.051    29.267     8.871
    42   6 C        2.924    -0.034    28.839     8.807
    43   6 C        2.920    -0.041    29.020     8.834
    44   6 C        2.913    -0.033    28.820     8.803
    45   6 C        3.068    -0.017    28.366     8.733
    46   6 C        3.068    -0.017    28.367     8.733
    47   6 C        2.913    -0.033    28.820     8.803
    48   6 C        2.920    -0.041    29.019     8.834
    49   6 C        2.924    -0.034    28.837     8.806
    50   6 C        2.910    -0.051    29.265     8.871
    51   6 C        3.076     0.047    26.875     8.500
    52   6 C        2.920    -0.044    29.082     8.844
    53   6 C        2.925    -0.034    28.839     8.807
    54   6 C        2.924    -0.035    28.882     8.813
    55   6 C        2.922    -0.034    28.859     8.810
    56   6 C        3.058     0.004    27.878     8.659
    57   6 C        2.914    -0.034    28.835     8.806
    58   6 C        2.922    -0.032    28.804     8.801
    59   6 C        2.921    -0.032    28.809     8.802
    60   6 C        2.915    -0.034    28.841     8.806
    61   6 C        3.035     0.001    27.967     8.674
    62   6 C        3.035     0.001    27.968     8.674
    63   6 C        2.915    -0.034    28.840     8.806
    64   6 C        2.921    -0.032    28.808     8.802
    65   6 C        2.922    -0.032    28.803     8.801
    66   6 C        2.914    -0.034    28.835     8.805
    67   6 C        3.058     0.004    27.879     8.659
    68   6 C        2.922    -0.036    28.893     8.815
    69   6 C        2.925    -0.035    28.869     8.811
    70   6 C        2.918    -0.038    28.947     8.823
    71   6 C        3.055    -0.019    28.432     8.745
    72   1 H        0.926     0.064     2.152     2.294
    73   1 H        0.926     0.039     2.463     2.454
    74   1 H        0.926     0.037     2.495     2.470
    75   1 H        0.926     0.035     2.519     2.482
    76   1 H        0.926     0.050     2.325     2.384
    77   1 H        0.925     0.040     2.449     2.447
    78   1 H        0.926     0.037     2.491     2.468
    79   1 H        0.926     0.037     2.489     2.467
    80   1 H        0.926     0.037     2.495     2.470
    81   1 H        0.925     0.038     2.478     2.462
    82   1 H        0.926     0.068     2.103     2.268
    83   1 H        0.926     0.045     2.388     2.417
    84   1 H        0.926     0.043     2.406     2.426
    85   1 H        0.926     0.046     2.369     2.407
    86   1 H        0.926     0.043     2.406     2.425
    87   1 H        0.926     0.032     2.555     2.500
    88   1 H        0.926     0.032     2.559     2.502
    89   1 H        0.926     0.032     2.563     2.504
    90   1 H        0.926     0.032     2.555     2.500
    91   1 H        0.926     0.037     2.490     2.468
    92   1 H        0.926     0.040     2.443     2.444
    93   1 H        0.926     0.027     2.634     2.538
    94   1 H        0.926     0.028     2.613     2.528
    95   1 H        0.926     0.027     2.624     2.533
    96   1 H        0.926     0.030     2.580     2.512
    97   1 H        0.926     0.030     2.580     2.512
    98   1 H        0.926     0.027     2.623     2.533
    99   1 H        0.926     0.028     2.611     2.527
   100   1 H        0.926     0.027     2.632     2.537
   101   1 H        0.926     0.040     2.444     2.445
   102   1 H        0.926     0.037     2.491     2.468
   103   1 H        0.926     0.032     2.560     2.502
   104   1 H        0.926     0.031     2.573     2.508
   105   1 H        0.926     0.029     2.596     2.520
   106   1 H        0.926     0.031     2.579     2.511
   107   1 H        0.926     0.031     2.575     2.509
   108   1 H        0.926     0.032     2.562     2.503
   109   1 H        0.926     0.032     2.563     2.503
   110   1 H        0.926     0.031     2.574     2.509
   111   1 H        0.926     0.031     2.577     2.510
   112   1 H        0.926     0.029     2.595     2.519
   113   1 H        0.926     0.032     2.554     2.499
   114   1 H        0.926     0.032     2.553     2.498
   115   1 H        0.926     0.041     2.432     2.439

molecular dipole:
                 x           y           z       tot (Debye)
 q only:        1.169       0.487      -0.522
   full:        1.335       0.545      -0.670       4.041

 projected vibrational frequencies (cm⁻¹)
eigval :       -0.00    -0.00    -0.00    -0.00     0.00     0.00
eigval :        4.66     5.95     8.81    10.94    14.24    17.55
eigval :       21.68    24.80    27.55    31.58    33.22    38.01
eigval :       41.14    48.69    56.02    58.44    59.28    71.51
eigval :       76.90    80.38    86.58    89.93    98.41   100.97
eigval :      107.75   116.16   119.40   137.56   144.84   150.01
eigval :      155.29   156.93   168.73   177.77   199.91   210.64
eigval :      219.01   221.19   230.11   233.08   237.71   245.72
eigval :      253.63   264.99   268.23   271.33   272.41   288.39
eigval :      294.19   302.62   324.58   337.78   355.05   360.04
eigval :      362.58   366.85   374.07   379.68   385.83   387.57
eigval :      391.42   394.06   403.39   410.27   411.26   413.62
eigval :      415.94   418.02   423.20   432.19   441.24   452.40
eigval :      459.23   468.07   475.12   490.90   499.09   503.57
eigval :      516.36   518.69   523.39   530.95   534.35   537.69
eigval :      541.19   541.25   544.96   549.26   579.08   582.56
eigval :      586.37   586.60   588.56   595.81   596.72   601.42
eigval :      606.84   610.44   618.49   618.73   625.72   649.98
eigval :      657.79   661.68   665.89   673.93   681.66   684.77
eigval :      687.48   693.93   698.81   701.41   705.01   709.86
eigval :      712.69   722.10   728.87   740.73   743.61   747.84
eigval :      753.53   756.82   767.85   769.55   776.53   780.87
eigval :      784.97   800.16   804.91   809.96   830.11   832.11
eigval :      837.57   846.65   866.45   872.93   873.55   874.73
eigval :      877.27   878.08   878.89   880.08   881.77   882.57
eigval :      882.88   893.79   898.13   901.61   901.76   902.33
eigval :      902.84   907.84   908.03   909.09   910.91   917.66
eigval :      918.69   919.52   920.97   921.68   922.03   926.91
eigval :      926.92   927.61   927.87   930.56   931.73   933.56
eigval :      933.63   934.98   935.44   936.31   939.36   972.82
eigval :      976.97   997.02  1007.82  1012.10  1012.13  1024.10
eigval :     1037.04  1070.40  1073.92  1074.65  1076.47  1077.54
eigval :     1078.79  1081.71  1083.36  1094.02  1108.89  1113.07
eigval :     1114.97  1118.06  1123.71  1131.82  1135.95  1137.56
eigval :     1144.15  1148.15  1149.22  1152.97  1166.32  1176.50
eigval :     1176.57  1176.89  1179.99  1180.86  1181.31  1181.48
eigval :     1184.02  1184.70  1191.15  1192.63  1201.35  1204.89
eigval :     1205.77  1209.27  1210.22  1223.65  1229.20  1237.02
eigval :     1239.10  1242.84  1245.10  1248.22  1256.98  1260.70
eigval :     1264.06  1267.80  1270.73  1273.10  1277.17  1278.04
eigval :     1285.97  1297.12  1303.79  1305.72  1309.08  1316.08
eigval :     1316.66  1321.03  1322.87  1323.11  1327.58  1340.54
eigval :     1353.94  1357.83  1362.44  1366.41  1371.21  1386.58
eigval :     1393.80  1401.90  1414.18  1419.31  1424.36  1427.11
eigval :     1428.67  1429.10  1432.17  1432.77  1452.30  1456.62
eigval :     1457.66  1462.67  1472.79  1473.82  1476.63  1479.77
eigval :     1488.78  1502.09  1510.03  1558.24  1563.52  1569.05
eigval :     1572.45  1575.64  1583.08  1586.27  1586.53  1586.84
eigval :     1587.28  1589.30  1589.80  1591.02  1593.86  1594.90
eigval :     1599.30  1600.06  1602.40  1604.82  1606.28  1615.07
eigval :     1615.44  3051.70  3064.68  3071.80  3072.71  3073.36
eigval :     3073.84  3074.05  3074.62  3075.41  3075.76  3076.87
eigval :     3077.11  3077.27  3079.64  3080.20  3080.43  3080.91
eigval :     3081.04  3081.49  3082.46  3083.12  3083.41  3084.44
eigval :     3085.60  3086.83  3087.84  3088.50  3089.17  3089.43
eigval :     3089.49  3089.74  3089.76  3090.88  3091.25  3093.07
eigval :     3093.40  3094.18  3094.42  3094.49  3094.76  3096.45
eigval :     3098.13  3099.10  3105.85

   temp. (K)  partition function   enthalpy   heat capacity  entropy
                                   cal/mol     cal/K/mol   cal/K/mol   J/K/mol
 298.15  VIB  0.731E+29            33972.366    210.455    215.251
         ROT  0.519E+09              888.752      2.981     42.860
         INT  0.380E+38            34861.118    213.436    258.110
         TR   0.273E+29             1481.254      4.968     46.331
         TOT                       36342.3720   218.4042   304.4419  1273.7850

       T/K    H(0)-H(T)+PV         H(T)/Eh          T*S/Eh         G(T)/Eh
   ------------------------------------------------------------------------
    298.15    0.579153E-01    0.938334E+00    0.144650E+00    0.793684E+00
   ------------------------------------------------------------------------

         :::::::::::::::::::::::::::::::::::::::::::::::::::::
         ::                  THERMODYNAMIC                  ::
         :::::::::::::::::::::::::::::::::::::::::::::::::::::
         :: total free energy        -178.802965870108 Eh   ::
         ::.................................................::
         :: total energy             -179.596649757948 Eh   ::
         :: zero point energy           0.880418814341 Eh   ::
         :: G(RRHO) w/o ZPVE           -0.086734926501 Eh   ::
         :: G(RRHO) contrib.            0.793683887841 Eh   ::
         :::::::::::::::::::::::::::::::::::::::::::::::::::::

           -------------------------------------------------
          | TOTAL ENERGY             -179.596649757948 Eh   |
          | TOTAL ENTHALPY           -178.658315687366 Eh   |
          | TOTAL FREE ENERGY        -178.802965870108 Eh   |
          | GRADIENT NORM               0.000065204755 Eh/α |
          | HOMO-LUMO GAP               2.562730412969 eV   |
           -------------------------------------------------

 * finished run on 2025/07/17 at 12:27:35.413
