   * xtb version 6.7.1 (edcfbbe) compiled by 'albert@albert-system' on 2024-07-22

   ID    Z sym.   atoms
    1    8 O      1, 21
    2   15 P      2
    3    6 C      3-20, 22-38, 40-71
    4    7 N      39
    5    1 H      72-115

          program call               : xtb data2507/gas/9PhCzFDBFSPO/9PhCzFDBFSPO_gas_S0_crest.xyz --gfn 2 --ohess vtight --parallel 40 --molden --ceasefiles --namespace data2507/gas/9PhCzFDBFSPO/9PhCzFDBFSPO_gas_S0_finalOpt
          :  Hamiltonian                  GFN2-xTB          :
 * total energy  :  -179.5966379 Eh     change       -0.1324537E-08 Eh
 * total energy  :  -179.5966395 Eh     change       -0.1633824E-05 Eh
 * total energy  :  -179.5966413 Eh     change       -0.1746909E-05 Eh
 * total energy  :  -179.5966443 Eh     change       -0.3010667E-05 Eh
 * total energy  :  -179.5966457 Eh     change       -0.1385886E-05 Eh
 * total energy  :  -179.5966472 Eh     change       -0.1571617E-05 Eh
 * total energy  :  -179.5966488 Eh     change       -0.1521238E-05 Eh
 * total energy  :  -179.5966496 Eh     change       -0.8327267E-06 Eh
 * total energy  :  -179.5966503 Eh     change       -0.6908808E-06 Eh
 * total energy  :  -179.5966511 Eh     change       -0.7914149E-06 Eh
 * total energy  :  -179.5966542 Eh     change       -0.6132602E-06 Eh
 * total energy  :  -179.5966548 Eh     change       -0.5857391E-06 Eh
 * total energy  :  -179.5966554 Eh     change       -0.6226842E-06 Eh
 * total energy  :  -179.5966561 Eh     change       -0.6562608E-06 Eh
 * total energy  :  -179.5966567 Eh     change       -0.6555456E-06 Eh
 * total energy  :  -179.5966573 Eh     change       -0.6037357E-06 Eh
 * total energy  :  -179.5966578 Eh     change       -0.4833997E-06 Eh
 * total energy  :  -179.5966581 Eh     change       -0.3403071E-06 Eh
 * total energy  :  -179.5966582 Eh     change       -0.1425937E-07 Eh
   *** GEOMETRY OPTIMIZATION CONVERGED AFTER 22 ITERATIONS ***

 final structure:
================
115
 xtb: 6.7.1 (edcfbbe)
O          -11.19135727686305       -1.91636661308649        1.16233646066277
P           -9.90238461307386       -1.95105339840953        0.46100335731427
C           -9.33519238266131       -3.63101242479006        0.05915113009541
C          -10.13991394896798       -4.68531127668734        0.46578829839705
C           -9.75764315944070       -5.98887381463594        0.20230533833962
C           -8.56913769949057       -6.23586321689292       -0.46479420535104
C           -7.76355567055780       -5.18191574297179       -0.86929568222985
C           -8.14208901861979       -3.87791681381613       -0.60897806700716
C           -9.88502237215997       -0.99503020354133       -1.09156312258285
C           -9.90915651100298        0.38832749990155       -0.97842457715483
C           -9.93187204120372        1.17500281310392       -2.11459960014791
C           -9.93887038003101        0.57822311680987       -3.36560616963107
C           -9.93338504836290       -0.80197884052715       -3.47816907305883
C           -9.90795130959625       -1.59202991526393       -2.34154492204104
C           -8.55736733841538       -1.21165586621013        1.44109036918538
C           -8.72584142816359       -1.07507722546716        2.81147847180838
C           -7.74593576568804       -0.49944266349586        3.61261780587931
C           -6.56497982241779       -0.03038362274914        3.06797374537768
C           -6.37472884838784       -0.14902018455344        1.69696503666898
C           -7.37034161832516       -0.74508959673346        0.89924685733950
O           -7.01765739259815       -0.77429430574189       -0.41212161388854
C           -5.79146328826986       -0.18603821522516       -0.48971359349802
C           -5.04271285822287        0.01383406201808       -1.63484103134374
C           -3.81371651147608        0.62811091245011       -1.48998144061814
C           -3.32986638113485        1.04240146995928       -0.24204550469065
C           -2.01400535125625        1.69182974651610       -0.14269368428507
C           -0.92805274591266        1.22492612278256       -0.87906406533353
C            0.30870006691070        1.82960829921465       -0.77611169131932
C            0.50009960879270        2.91810768269061        0.06786093299467
C            1.84375777054934        3.61470970855231        0.12386219745850
C            3.00658141304228        2.64692856239573        0.04876566385557
C            4.17450857004751        2.98083656565174       -0.62446311989664
C            5.24881573738510        2.11272809484638       -0.64549827050546
C            5.19367115952831        0.89088791251328        0.01977545334255
C            6.33352202324471       -0.03462201550106       -0.00703709750816
C            6.71165964313812       -0.73548592782039        1.13663424568581
C            7.78456458152255       -1.60298348967189        1.11497327309131
C            8.49828939310995       -1.80374964877315       -0.06349281285983
N            9.58056195581861       -2.69232991482908       -0.09274193420264
C            9.56978426745280       -3.99372242932851        0.36876675591297
C            8.52618242200642       -4.73181811991806        0.90867736000311
C            8.78086409294970       -6.04102365243913        1.26928383012781
C           10.03871641039257       -6.61321755628693        1.09234704976363
C           11.07410849140418       -5.89169591561775        0.53299581672679
C           10.84266250927047       -4.57360979640281        0.16234208076889
C           11.65722401715475       -3.56216780154862       -0.45049909384773
C           12.98067617945808       -3.52555683994333       -0.86933682726166
C           13.47035103627616       -2.35500170587333       -1.41296974453961
C           12.66268660149240       -1.22556081051353       -1.52692523849388
C           11.34322727886045       -1.23728562109650       -1.11729840986319
C           10.83812911112473       -2.41855020505550       -0.59299878259650
C            8.12436510705483       -1.11307482413036       -1.21311525526620
C            7.06077185181562       -0.23465302097961       -1.17895893983833
C            4.02800272052238        0.56828097815083        0.71078312968062
C            2.95210351392627        1.43287562096829        0.72488211119481
C            1.86223995977013        4.66784998572801       -0.96789833023541
C            1.71410195154764        4.49957971478554       -2.32787861582223
C            1.75078366981311        5.62132300144514       -3.14516060710182
C            1.92725432278081        6.88703937163987       -2.60724623890622
C            2.06979907326562        7.06278178780362       -1.24042782306260
C            2.03526904002003        5.94686925453150       -0.42068422298810
C            2.15419699659854        5.82100968920480        1.02279711885995
C            2.35038939495388        6.77862840409441        2.00405188659761
C            2.42675321371367        6.36913967459431        3.32537791378748
C            2.31154932786462        5.02861868158407        3.66024707201846
C            2.11620875360584        4.06453003289633        2.68043869785081
C            2.03345891225449        4.46676958553471        1.36470533575777
C           -0.58491051937945        3.39755578441690        0.79015000981782
C           -1.82136095812562        2.78932167862168        0.69186716324457
C           -4.09565242297085        0.83927748021705        0.89972651737328
C           -5.33036302950854        0.22148359873946        0.77713711051239
H          -11.06194725360753       -4.46142267227885        0.98282923542531
H          -10.38417809790663       -6.81111384553183        0.51558785962145
H           -8.26787914603979       -7.25242191942178       -0.67208609738362
H           -6.83781244026363       -5.37997893572486       -1.39024943449163
H           -7.52462639015629       -3.05154406668229       -0.92754912103028
H           -9.90945048622956        0.83519879489597        0.00768506680533
H           -9.94314520465174        2.25191406647493       -2.02817264149259
H           -9.95331434216319        1.19157141738293       -4.25483281801419
H           -9.94812209552666       -1.26465571230973       -4.45453766687011
H           -9.90350927952489       -2.67029095753235       -2.42274517906580
H           -9.65589422864882       -1.41977307893126        3.23949830340759
H           -7.91610835288475       -0.41251628773631        4.67519377817922
H           -5.80686109657680        0.42390980945331        3.68731775664474
H           -5.41309760160685       -0.29479498445359       -2.59941207236401
H           -3.21399499193415        0.81494609957355       -2.36793879175773
H           -1.04908914503417        0.36559834689244       -1.52250878149621
H            1.13961248648581        1.44219462807017       -1.34806889651282
H            4.24541054229456        3.92828669538971       -1.13844574619990
H            6.15166700363459        2.39661599270790       -1.16624636642253
H            6.17613011837726       -0.57489280304143        2.06072718435031
H            8.08749488230447       -2.11843545465587        2.01422746195150
H            7.54294389069072       -4.30350923899744        1.03284683560821
H            7.98549202687907       -6.63537289132814        1.69460403922984
H           10.19826194641336       -7.63898031295713        1.38987958297532
H           12.04444600384093       -6.33973938653316        0.38044595644707
H           13.61074848879582       -4.39608127100576       -0.76554045858800
H           14.49600977953230       -2.30594154090295       -1.74730858479651
H           13.07835494549715       -0.31885185965812       -1.94145732908469
H           10.73104038232446       -0.35118429930953       -1.19273839516239
H            8.66175450162276       -1.28358335602427       -2.13411909160118
H            6.76889861046264        0.28255611679286       -2.08112228072240
H            3.95648534041615       -0.38000263276787        1.22345941332620
H            2.05275485620592        1.15483336066074        1.25548939024049
H            1.57571405727787        3.51655606098641       -2.75304637411589
H            1.64022286723766        5.50604015482906       -4.21342844014937
H            1.95229965473024        7.74559721730281       -3.26241274085392
H            2.20453212385913        8.04977191706736       -0.82360124608932
H            2.44267348541594        7.82292467956828        1.74525677589796
H            2.57920838771802        7.10164243181773        4.10459163438524
H            2.37510195811867        4.73000772905050        4.69634580231265
H            2.02827794070126        3.02210962274932        2.94831100432797
H           -0.46255206074874        4.25484950260439        1.43589121940033
H           -2.65523243130714        3.18544768414840        1.25282034961624
H           -3.72825890738825        1.13873529833061        1.86925997332987

          :  Hamiltonian                  GFN2-xTB          :
         :: gradient norm              0.000068510330 Eh/a0 ::
         :: HOMO-LUMO gap              2.563881333703 eV    ::
         :: SCC energy              -182.945337919217 Eh    ::
         :: -> dispersion             -0.169615598784 Eh    ::
         :: repulsion energy           3.348679767128 Eh    ::

    * Orbital Energies and Occupations

         #    Occupation            Energy/Eh            Energy/eV
      -------------------------------------------------------------
         1        2.0000           -0.7451396             -20.2763
       ...           ...                  ...                  ...
       155        2.0000           -0.4087513             -11.1227
       156        2.0000           -0.4082893             -11.1101
       157        2.0000           -0.4046721             -11.0117
       158        2.0000           -0.4031218             -10.9695
       159        2.0000           -0.4009938             -10.9116
       160        2.0000           -0.3992707             -10.8647
       161        2.0000           -0.3974661             -10.8156
       162        2.0000           -0.3966324             -10.7929
       163        2.0000           -0.3902253             -10.6186
       164        2.0000           -0.3843138             -10.4577
       165        2.0000           -0.3813330             -10.3766
       166        2.0000           -0.3765277             -10.2458
       167        2.0000           -0.3599381              -9.7944 (HOMO)
       168                         -0.2657172              -7.2305 (LUMO)
       169                         -0.2567719              -6.9871
       170                         -0.2542527              -6.9186
       171                         -0.2521962              -6.8626
       172                         -0.2469840              -6.7208
       173                         -0.2419563              -6.5840
       174                         -0.2398103              -6.5256
       175                         -0.2334393              -6.3522
       176                         -0.2322481              -6.3198
       177                         -0.2321009              -6.3158
       178                         -0.2302007              -6.2641
       ...                                ...                  ...
       333                          1.2181771              33.1483
      -------------------------------------------------------------
                  HL-Gap            0.0942209 Eh            2.5639 eV

     #   Z          covCN         q      C6AA      α(0)
     1   8 O        0.808    -0.356    20.850     6.121
     2  15 P        4.057     0.085   156.500    22.472
     3   6 C        2.921     0.012    27.741     8.637
     4   6 C        3.027    -0.021    28.493     8.756
     5   6 C        2.919    -0.027    28.682     8.782
     6   6 C        2.920    -0.025    28.631     8.775
     7   6 C        2.920    -0.028    28.704     8.786
     8   6 C        2.977    -0.027    28.666     8.782
     9   6 C        2.921     0.021    27.550     8.607
    10   6 C        3.026    -0.016    28.371     8.737
    11   6 C        2.919    -0.026    28.643     8.776
    12   6 C        2.921    -0.025    28.631     8.775
    13   6 C        2.920    -0.026    28.656     8.778
    14   6 C        2.976    -0.021    28.518     8.760
    15   6 C        2.908    -0.015    28.389     8.737
    16   6 C        3.014    -0.025    28.611     8.774
    17   6 C        2.919    -0.038    28.936     8.821
    18   6 C        2.913    -0.031    28.776     8.796
    19   6 C        3.054    -0.021    28.465     8.750
    20   6 C        3.156     0.132    24.842     8.150
    21   8 O        1.715    -0.219    17.641     5.671
    22   6 C        3.105     0.127    25.099     8.209
    23   6 C        2.907    -0.052    29.288     8.874
    24   6 C        2.932    -0.036    28.905     8.817
    25   6 C        2.977     0.005    27.916     8.667
    26   6 C        2.977     0.007    27.847     8.656
    27   6 C        2.924    -0.036    28.888     8.814
    28   6 C        2.922    -0.034    28.855     8.809
    29   6 C        2.980     0.016    27.642     8.624
    30   6 C        3.947     0.007    20.386     6.416
    31   6 C        2.980     0.016    27.651     8.626
    32   6 C        2.922    -0.036    28.897     8.815
    33   6 C        2.925    -0.035    28.870     8.811
    34   6 C        2.977     0.007    27.860     8.658
    35   6 C        2.976     0.007    27.859     8.658
    36   6 C        2.925    -0.034    28.837     8.806
    37   6 C        2.920    -0.043    29.080     8.843
    38   6 C        2.913     0.062    26.601     8.457
    39   7 N        2.802    -0.044    22.086     6.980
    40   6 C        3.076     0.047    26.875     8.500
    41   6 C        2.910    -0.051    29.266     8.871
    42   6 C        2.924    -0.034    28.839     8.807
    43   6 C        2.920    -0.041    29.020     8.834
    44   6 C        2.913    -0.033    28.820     8.803
    45   6 C        3.068    -0.017    28.366     8.733
    46   6 C        3.068    -0.017    28.367     8.733
    47   6 C        2.913    -0.033    28.820     8.803
    48   6 C        2.920    -0.041    29.020     8.834
    49   6 C        2.924    -0.034    28.837     8.806
    50   6 C        2.910    -0.051    29.265     8.871
    51   6 C        3.076     0.047    26.875     8.500
    52   6 C        2.920    -0.044    29.082     8.843
    53   6 C        2.925    -0.034    28.839     8.807
    54   6 C        2.924    -0.035    28.883     8.813
    55   6 C        2.922    -0.035    28.859     8.810
    56   6 C        3.058     0.004    27.878     8.659
    57   6 C        2.914    -0.033    28.834     8.805
    58   6 C        2.922    -0.032    28.804     8.801
    59   6 C        2.921    -0.032    28.809     8.802
    60   6 C        2.915    -0.034    28.841     8.806
    61   6 C        3.035     0.001    27.967     8.674
    62   6 C        3.035     0.001    27.968     8.674
    63   6 C        2.915    -0.034    28.840     8.806
    64   6 C        2.921    -0.032    28.808     8.802
    65   6 C        2.922    -0.032    28.803     8.801
    66   6 C        2.914    -0.033    28.834     8.805
    67   6 C        3.058     0.004    27.878     8.659
    68   6 C        2.922    -0.036    28.892     8.815
    69   6 C        2.925    -0.035    28.870     8.811
    70   6 C        2.918    -0.038    28.948     8.823
    71   6 C        3.055    -0.019    28.433     8.745
    72   1 H        0.926     0.064     2.151     2.293
    73   1 H        0.926     0.039     2.462     2.454
    74   1 H        0.926     0.037     2.494     2.470
    75   1 H        0.926     0.035     2.519     2.482
    76   1 H        0.926     0.049     2.331     2.387
    77   1 H        0.925     0.041     2.441     2.443
    78   1 H        0.926     0.037     2.491     2.468
    79   1 H        0.926     0.037     2.490     2.468
    80   1 H        0.926     0.036     2.497     2.471
    81   1 H        0.925     0.038     2.480     2.462
    82   1 H        0.926     0.068     2.105     2.269
    83   1 H        0.926     0.045     2.388     2.417
    84   1 H        0.926     0.043     2.406     2.426
    85   1 H        0.926     0.046     2.369     2.407
    86   1 H        0.926     0.043     2.405     2.425
    87   1 H        0.926     0.032     2.555     2.499
    88   1 H        0.926     0.032     2.559     2.502
    89   1 H        0.926     0.032     2.563     2.504
    90   1 H        0.926     0.032     2.555     2.499
    91   1 H        0.926     0.037     2.489     2.467
    92   1 H        0.926     0.040     2.444     2.445
    93   1 H        0.926     0.027     2.635     2.539
    94   1 H        0.926     0.028     2.613     2.528
    95   1 H        0.926     0.027     2.624     2.533
    96   1 H        0.926     0.030     2.580     2.512
    97   1 H        0.926     0.030     2.580     2.512
    98   1 H        0.926     0.027     2.623     2.533
    99   1 H        0.926     0.028     2.611     2.527
   100   1 H        0.926     0.027     2.633     2.537
   101   1 H        0.926     0.040     2.445     2.445
   102   1 H        0.926     0.037     2.491     2.468
   103   1 H        0.926     0.032     2.559     2.502
   104   1 H        0.926     0.031     2.572     2.508
   105   1 H        0.926     0.029     2.597     2.520
   106   1 H        0.926     0.031     2.578     2.511
   107   1 H        0.926     0.031     2.575     2.509
   108   1 H        0.926     0.032     2.562     2.503
   109   1 H        0.926     0.032     2.563     2.503
   110   1 H        0.926     0.031     2.574     2.509
   111   1 H        0.926     0.031     2.577     2.510
   112   1 H        0.926     0.029     2.595     2.519
   113   1 H        0.926     0.032     2.554     2.499
   114   1 H        0.926     0.032     2.552     2.498
   115   1 H        0.926     0.041     2.431     2.438

molecular dipole:
                 x           y           z       tot (Debye)
 q only:        1.187       0.454      -0.488
   full:        1.357       0.502      -0.631       4.013

 projected vibrational frequencies (cm⁻¹)
eigval :       -0.00    -0.00     0.00     0.00     0.00     0.00
eigval :        4.67     5.97     8.74    11.17    14.37    17.62
eigval :       21.74    24.55    27.54    31.43    33.27    37.77
eigval :       41.12    48.55    55.74    58.17    59.19    71.43
eigval :       76.90    80.29    86.64    90.21    98.65   101.13
eigval :      107.73   116.40   119.54   137.77   144.81   150.06
eigval :      155.21   156.93   168.52   177.49   199.82   210.63
eigval :      218.98   221.19   229.78   233.25   237.27   245.54
eigval :      253.65   265.39   268.86   271.42   272.53   288.49
eigval :      294.21   302.72   324.68   338.22   355.39   360.07
eigval :      362.43   366.78   374.06   379.83   385.80   387.63
eigval :      391.41   394.03   403.51   410.53   410.94   413.56
eigval :      415.88   417.99   423.17   432.15   441.21   452.56
eigval :      459.32   467.70   475.26   490.75   499.09   503.38
eigval :      516.10   518.67   523.35   530.96   534.25   537.70
eigval :      541.18   541.25   545.00   549.11   579.19   582.56
eigval :      586.35   586.58   588.54   595.97   596.74   601.37
eigval :      606.89   610.45   618.37   618.71   625.44   650.05
eigval :      657.76   661.57   665.97   673.90   681.63   684.57
eigval :      687.32   693.90   698.86   701.43   704.99   709.84
eigval :      712.68   722.20   728.90   740.65   743.66   747.80
eigval :      753.52   756.82   767.84   769.52   776.59   780.84
eigval :      785.00   800.06   804.72   809.90   830.11   832.17
eigval :      837.73   846.55   866.42   872.76   873.50   874.62
eigval :      877.30   878.12   878.74   880.07   881.71   882.57
eigval :      882.86   893.66   898.16   901.59   901.63   902.30
eigval :      902.82   907.77   908.04   909.14   910.87   917.66
eigval :      918.72   919.45   920.97   921.68   922.13   926.81
eigval :      926.93   927.55   927.86   930.51   931.66   933.44
eigval :      933.57   934.98   935.30   936.51   939.53   972.81
eigval :      976.97   997.02  1007.86  1012.06  1012.15  1024.14
eigval :     1037.09  1070.34  1073.86  1074.57  1076.35  1077.48
eigval :     1078.78  1081.58  1083.23  1094.01  1108.92  1113.02
eigval :     1114.98  1118.06  1123.72  1131.76  1136.00  1137.42
eigval :     1144.16  1148.51  1149.67  1152.96  1166.31  1176.53
eigval :     1176.62  1176.86  1179.96  1180.86  1181.30  1181.46
eigval :     1184.08  1184.72  1191.11  1192.65  1201.39  1205.05
eigval :     1205.93  1209.69  1210.85  1223.56  1229.18  1237.03
eigval :     1239.32  1242.87  1245.11  1248.40  1257.04  1260.80
eigval :     1263.98  1267.90  1270.67  1273.13  1277.42  1278.37
eigval :     1285.92  1297.10  1303.89  1305.69  1309.15  1316.16
eigval :     1316.64  1321.14  1322.89  1323.16  1327.56  1340.56
eigval :     1353.96  1357.85  1362.50  1366.40  1371.31  1386.55
eigval :     1393.78  1401.92  1414.31  1419.40  1424.37  1427.09
eigval :     1428.68  1429.11  1432.16  1432.81  1452.35  1456.55
eigval :     1457.61  1462.64  1472.78  1473.79  1476.65  1479.79
eigval :     1488.80  1501.94  1510.05  1558.19  1563.47  1569.00
eigval :     1572.40  1575.64  1583.12  1586.26  1586.53  1586.85
eigval :     1587.29  1589.33  1589.81  1590.99  1593.77  1594.92
eigval :     1599.34  1599.99  1602.40  1604.83  1606.33  1615.19
eigval :     1615.49  3051.63  3065.27  3071.99  3072.75  3073.52
eigval :     3073.83  3074.06  3074.64  3075.44  3075.79  3077.01
eigval :     3077.28  3077.30  3079.59  3080.27  3080.43  3080.86
eigval :     3081.11  3081.55  3082.57  3083.06  3083.43  3084.60
eigval :     3085.81  3086.75  3087.82  3088.42  3089.17  3089.47
eigval :     3089.51  3089.70  3089.88  3090.89  3091.44  3093.04
eigval :     3093.44  3094.19  3094.43  3094.78  3094.80  3096.46
eigval :     3097.38  3099.09  3105.87

   temp. (K)  partition function   enthalpy   heat capacity  entropy
                                   cal/mol     cal/K/mol   cal/K/mol   J/K/mol
 298.15  VIB  0.727E+29            33972.548    210.436    215.220
         ROT  0.519E+09              888.752      2.981     42.860
         INT  0.377E+38            34861.301    213.417    258.080
         TR   0.273E+29             1481.254      4.968     46.331
         TOT                       36342.5546   218.3852   304.4115  1273.6577

       T/K    H(0)-H(T)+PV         H(T)/Eh          T*S/Eh         G(T)/Eh
   ------------------------------------------------------------------------
    298.15    0.579155E-01    0.938341E+00    0.144636E+00    0.793706E+00
   ------------------------------------------------------------------------

         :::::::::::::::::::::::::::::::::::::::::::::::::::::
         ::                  THERMODYNAMIC                  ::
         :::::::::::::::::::::::::::::::::::::::::::::::::::::
         :: total free energy        -178.802952647821 Eh   ::
         ::.................................................::
         :: total energy             -179.596658152089 Eh   ::
         :: zero point energy           0.880425676790 Eh   ::
         :: G(RRHO) w/o ZPVE           -0.086720172522 Eh   ::
         :: G(RRHO) contrib.            0.793705504268 Eh   ::
         :::::::::::::::::::::::::::::::::::::::::::::::::::::

           -------------------------------------------------
          | TOTAL ENERGY             -179.596658152089 Eh   |
          | TOTAL ENTHALPY           -178.658316928039 Eh   |
          | TOTAL FREE ENERGY        -178.802952647821 Eh   |
          | GRADIENT NORM               0.000068498654 Eh/α |
          | HOMO-LUMO GAP               2.563881350195 eV   |
           -------------------------------------------------

 * finished run on 2025/07/17 at 12:43:57.942
