   * xtb version 6.7.1 (edcfbbe) compiled by 'albert@albert-system' on 2024-07-22

   ID    Z sym.   atoms
    1    8 O      1, 21
    2   15 P      2
    3    6 C      3-20, 22-38, 40-71
    4    7 N      39
    5    1 H      72-115

          program call               : xtb data2507/gas/9PhCzFDBFSPO/9PhCzFDBFSPO_gas_T1_crest.xyz --gfn 2 --spinpol --tblite --uhf 2 --ohess vtight --parallel 40 --molden --ceasefiles --namespace data2507/gas/9PhCzFDBFSPO/9PhCzFDBFSPO_gas_T1_finalOpt
 * total energy  :  -179.4974648 Eh     change        0.6387802E-07 Eh
 * total energy  :  -179.4975116 Eh     change       -0.4679609E-04 Eh
 * total energy  :  -179.4975299 Eh     change       -0.1828915E-04 Eh
 * total energy  :  -179.4975325 Eh     change       -0.2613313E-05 Eh
 * total energy  :  -179.4975352 Eh     change       -0.2674397E-05 Eh
 * total energy  :  -179.4975381 Eh     change       -0.2861004E-05 Eh
 * total energy  :  -179.4975419 Eh     change       -0.3794180E-05 Eh
 * total energy  :  -179.4975448 Eh     change       -0.2966747E-05 Eh
 * total energy  :  -179.4975464 Eh     change       -0.1605677E-05 Eh
 * total energy  :  -179.4975481 Eh     change       -0.1640036E-05 Eh
 * total energy  :  -179.4975935 Eh     change       -0.4435598E-06 Eh
 * total energy  :  -179.4975939 Eh     change       -0.3902138E-06 Eh
 * total energy  :  -179.4975944 Eh     change       -0.5507856E-06 Eh
 * total energy  :  -179.4975949 Eh     change       -0.5015780E-06 Eh
 * total energy  :  -179.4975956 Eh     change       -0.6844201E-06 Eh
 * total energy  :  -179.4975963 Eh     change       -0.6659559E-06 Eh
 * total energy  :  -179.4975970 Eh     change       -0.7308985E-06 Eh
 * total energy  :  -179.4975979 Eh     change       -0.8275489E-06 Eh
 * total energy  :  -179.4975979 Eh     change       -0.1486654E-08 Eh
   *** GEOMETRY OPTIMIZATION CONVERGED AFTER 68 ITERATIONS ***

 final structure:
================
115
 xtb: 6.7.1 (edcfbbe)
O          -11.19432920362330       -2.01969668007306       -1.14464800494431
P           -9.90773015278383       -2.02686428146501       -0.43778915873713
C           -9.91200027583914       -1.05249466593910        1.10351042279003
C           -9.93635430892090        0.32951099940393        0.97584717714886
C           -9.97669143037768        1.12778225561042        2.10343973712905
C          -10.00134768183453        0.54392174848140        3.36027930555216
C           -9.99594593702856       -0.83506456694503        3.48711665331731
C           -9.95282402618817       -1.63660826166521        2.35913882196356
C           -9.31936235495657       -3.69382722560179       -0.01228767482178
C           -8.13314955736902       -3.91537033558436        0.67675284795131
C           -7.73533113910922       -5.21075844292353        0.95077955280958
C           -8.51458431979890       -6.28155316392304        0.53894047387060
C           -9.69615930760703       -6.05991437947963       -0.14909339475206
C          -10.09771472044670       -4.76503726610720       -0.42615831290541
C           -8.56852521239944       -1.28305433592164       -1.42083923841413
C           -8.73432167257939       -1.16231073018840       -2.79370856970010
C           -7.75663577809069       -0.58786324172831       -3.59795570144433
C           -6.58021026466196       -0.10494029052045       -3.05534555487460
C           -6.39272094079356       -0.20786782120935       -1.68221247649506
C           -7.38638673919472       -0.80218478862271       -0.88083477574624
O           -7.03727178569353       -0.81440893245870        0.43186187317222
C           -5.81477540972996       -0.21721610662877        0.50621892161130
C           -5.06999067892316        0.00008481964339        1.65049147556336
C           -3.84420018332272        0.62060382050249        1.50170563890425
C           -3.36008700412571        1.02393034348599        0.25024755481012
C           -2.04810705847334        1.68016984435146        0.14496818906172
C           -1.86158143156711        2.76708870135265       -0.70510331402327
C           -0.62859388906016        3.38047069579117       -0.81216149807717
C            0.45819847292750        2.91721964121923       -0.08220273492857
C            1.79856663725355        3.61584022288498       -0.14972713833060
C            2.96446281932556        2.66454693020172       -0.07073478173030
C            4.16918401638477        3.03161421856065        0.55422976262771
C            5.24683579488148        2.19732089874556        0.56866940043248
C            5.21735691350337        0.90102406716640       -0.04921300854693
C            6.31351263841177        0.02674319763067       -0.01790306881302
C            6.21385080261543       -1.35651290037016       -0.42268689117336
C            7.27312360618628       -2.20037590992882       -0.39097011285534
C            8.54666311357320       -1.76513917259545        0.06528030179890
N            9.62100520334598       -2.62834183606050        0.10744696585163
C            9.96865505938717       -3.54254202609226       -0.87344570457581
C            9.40350052882034       -3.75665402638172       -2.12296729826194
C            9.97168236027420       -4.72123745170854       -2.93483021925606
C           11.08659713785653       -5.45055357578294       -2.52524649773130
C           11.68000494641836       -5.21418066821948       -1.29937587361451
C           11.12826322598012       -4.25000151312666       -0.46846571214131
C           11.49546921633919       -3.73036418722166        0.81820114296689
C           12.51367302904384       -4.03019260768640        1.71142136311104
C           12.56058626856464       -3.35154353524508        2.91473985898463
C           11.59348199987259       -2.40230251785726        3.24083634021420
C           10.57021766448700       -2.08607357583094        2.36598746645162
C           10.54003091496989       -2.73348970118083        1.13859936612701
C            8.67675533881957       -0.41088879319296        0.47556703762508
C            7.62419905913692        0.44053057312756        0.42704611836098
C            3.98422135812415        0.56628981513327       -0.70503368693871
C            2.91957122370363        1.41567333928104       -0.71965268501601
C            1.99859977699030        4.44085004032818       -1.40879653728617
C            2.07132186434084        4.01188852310309       -2.71749279701168
C            2.28791311585175        4.95244647571025       -3.71447770853511
C            2.43935346100844        6.29630994947781       -3.40434455552238
C            2.37523972819247        6.73182921413260       -2.09108080951557
C            2.15421159314455        5.79869971833838       -1.09137257963323
C            2.03215940229251        5.95552310629259        0.34778579787891
C            2.08625363997860        7.08645065254927        1.14617408930110
C            1.93269843498845        6.94052497868349        2.51520238845225
C            1.72635459121024        5.68970788176745        3.07695366229000
C            1.67062561659122        4.55280409470768        2.28163368433703
C            1.82859223753793        4.69146188356547        0.91975169922471
C            0.27334698508225        1.83975970412104        0.77719154819901
C           -0.96004068215022        1.22976688056815        0.88864926282546
C           -4.12203124465143        0.80323983222143       -0.89077303074782
C           -5.35343677728191        0.17920945568813       -0.76424461439137
H           -9.92259760144168        0.76634488712142       -0.01464185710909
H           -9.98785163969433        2.20374817229474        2.00575902700629
H          -10.02941719420741        1.16637017442763        4.24285286257545
H          -10.02443115914034       -1.28766794014678        4.46791685286537
H           -9.94834569029440       -2.71405343710376        2.45118441708677
H           -7.53610947257760       -3.07607543498536        1.00039787248557
H           -6.81496959109379       -5.38897309096757        1.48822558342254
H           -8.19822181008527       -7.29133223158337        0.75676574273350
H          -10.30217907710670       -6.89521938982345       -0.46826446005999
H          -11.01508915103678       -4.56084912684656       -0.95940744142874
H           -9.66060095870391       -1.51865255514297       -3.22031437684325
H           -7.92453258599597       -0.51314393509768       -4.66187487522986
H           -5.82346468457542        0.34788049402784       -3.67740076551283
H           -5.44040989637731       -0.30010589836439        2.61775783572888
H           -3.24782806974770        0.82090594208444        2.37898128465355
H           -2.69773169981285        3.15010300717230       -1.27183922073210
H           -0.50925900595733        4.22850907711050       -1.47080065886417
H            4.23476618447670        3.99497914038817        1.03991796506540
H            6.13637271309497        2.51723972442296        1.08655631769598
H            5.25215297493118       -1.74935877582225       -0.70913076782463
H            7.14626964405478       -3.24279212383092       -0.64463094392843
H            8.55961247034320       -3.17769666910611       -2.46439752445045
H            9.54701698553085       -4.90727368673752       -3.90980223480651
H           11.49947693962883       -6.19863850173377       -3.18526720949758
H           12.55940501628887       -5.76070659025557       -0.99418324568010
H           13.24771478278754       -4.78415482463223        1.47077905243059
H           13.34685991912304       -3.56846511198416        3.62217447877632
H           11.63925151301603       -1.90864276150910        4.19986861049359
H            9.81072171275929       -1.37172809039952        2.64309146462168
H            9.65507779174839       -0.05119332562002        0.75939282549775
H            7.78753251541110        1.47505698916311        0.68045049673812
H            3.90127915370355       -0.37169499321368       -1.23004616734602
H            2.01261920732825        1.12381075501533       -1.23086419583404
H            1.95746010412502        2.96718038410797       -2.96570977934777
H            2.33991176862107        4.63376954628315       -4.74526709055581
H            2.61024943035772        7.00986122419125       -4.19725245737467
H            2.49519994525081        7.77802573329920       -1.85156002629281
H            2.24472424887226        8.06196055368510        0.71090043577429
H            1.97277183795762        7.81112309152544        3.15367828661946
H            1.60738345486428        5.59802642020140        4.14663458672667
H            1.50930383211563        3.58138634881212        2.72491235211990
H            1.10811468171114        1.46713600072498        1.35363246698778
H           -1.07689162734731        0.37891921548230        1.54411653852215
H           -3.75421383778674        1.09367907232153       -1.86287939264363

 projected vibrational frequencies (cm⁻¹)
eigval :       -0.00    -0.00    -0.00    -0.00     0.00     0.00
eigval :        4.75     5.85     7.65    10.55    12.15    18.41
eigval :       19.60    25.26    30.48    31.15    32.80    36.30
eigval :       40.10    48.34    55.37    57.11    59.18    70.85
eigval :       77.89    83.08    85.53    89.01    94.90   103.67
eigval :      114.83   116.84   119.41   130.74   142.03   146.05
eigval :      150.51   157.02   163.16   178.15   199.67   205.42
eigval :      215.65   221.30   229.19   233.16   237.54   245.14
eigval :      254.09   264.16   269.20   270.98   277.38   278.70
eigval :      293.43   295.21   302.89   325.99   338.48   355.51
eigval :      362.51   362.72   366.82   372.23   378.15   382.12
eigval :      386.85   390.88   394.67   399.60   403.24   411.02
eigval :      413.36   414.93   420.21   432.92   434.96   441.42
eigval :      448.73   453.30   466.53   467.70   476.95   496.61
eigval :      500.30   514.22   516.47   523.05   532.66   533.33
eigval :      537.51   543.54   544.21   544.55   567.96   577.96
eigval :      582.99   585.69   586.30   586.46   588.08   590.97
eigval :      598.49   601.27   608.58   615.71   623.43   634.76
eigval :      647.95   657.70   658.00   662.12   666.85   669.95
eigval :      681.57   686.32   689.03   694.36   700.23   704.58
eigval :      711.85   722.06   725.12   736.95   741.72   744.06
eigval :      750.35   754.91   758.22   766.15   768.40   774.23
eigval :      776.82   780.37   781.72   784.31   792.38   798.83
eigval :      807.74   830.30   837.27   845.60   868.76   869.04
eigval :      872.00   875.76   876.65   878.96   879.63   880.69
eigval :      882.78   891.31   892.34   892.91   895.59   896.20
eigval :      898.99   901.77   903.28   904.97   907.57   908.09
eigval :      909.51   910.06   910.95   912.67   916.74   918.61
eigval :      921.64   921.69   922.77   925.30   926.91   927.00
eigval :      930.46   931.78   933.65   934.74   934.85   947.51
eigval :      972.79   972.90   977.03   987.86  1004.59  1008.29
eigval :     1011.70  1036.76  1068.64  1071.69  1074.11  1076.00
eigval :     1077.53  1078.82  1081.19  1094.14  1105.35  1110.40
eigval :     1113.20  1115.00  1123.49  1130.90  1131.49  1137.17
eigval :     1141.00  1143.56  1145.60  1147.15  1165.57  1166.27
eigval :     1174.11  1175.12  1176.99  1179.23  1180.32  1180.78
eigval :     1181.11  1183.70  1190.86  1192.35  1198.65  1203.21
eigval :     1205.34  1210.13  1218.66  1219.08  1222.78  1227.29
eigval :     1232.23  1236.66  1240.61  1247.99  1252.82  1256.33
eigval :     1257.76  1260.14  1267.43  1270.56  1272.94  1274.69
eigval :     1276.69  1286.17  1288.85  1306.58  1309.29  1319.52
eigval :     1321.14  1322.92  1326.72  1329.47  1335.04  1340.92
eigval :     1341.24  1344.73  1354.94  1365.01  1366.86  1372.15
eigval :     1385.21  1387.28  1399.64  1402.16  1411.10  1418.40
eigval :     1424.37  1424.90  1427.19  1428.67  1435.74  1452.42
eigval :     1455.87  1457.60  1457.84  1459.96  1461.29  1470.50
eigval :     1472.44  1475.08  1483.46  1501.21  1513.46  1527.65
eigval :     1557.35  1557.82  1558.92  1568.13  1573.38  1580.61
eigval :     1582.28  1584.10  1584.63  1585.86  1585.92  1587.15
eigval :     1589.78  1589.82  1593.48  1596.82  1599.06  1603.11
eigval :     1610.78  3051.23  3064.24  3066.27  3071.63  3072.02
eigval :     3072.84  3073.30  3073.52  3074.27  3075.76  3076.56
eigval :     3076.68  3077.70  3078.83  3079.92  3080.27  3080.81
eigval :     3081.49  3082.34  3082.80  3083.49  3085.95  3086.73
eigval :     3087.69  3087.92  3088.19  3088.73  3089.35  3090.30
eigval :     3090.84  3092.21  3093.70  3094.23  3094.31  3095.95
eigval :     3097.22  3097.64  3098.26  3100.22  3100.60  3101.44
eigval :     3104.89  3111.48  3112.88

   temp. (K)  partition function   enthalpy   heat capacity  entropy
                                   cal/mol     cal/K/mol   cal/K/mol   J/K/mol
 298.15  VIB  0.163E+30            34349.402    212.674    217.647
         ROT  0.524E+09              888.752      2.981     42.880
         INT  0.856E+38            35238.154    215.655    260.527
         TR   0.273E+29             1481.254      4.968     46.331
         TOT                       36719.4084   220.6234   306.8582  1283.8949

       T/K    H(0)-H(T)+PV         H(T)/Eh          T*S/Eh         G(T)/Eh
   ------------------------------------------------------------------------
    298.15    0.585161E-01    0.934536E+00    0.145798E+00    0.788738E+00
   ------------------------------------------------------------------------

         :::::::::::::::::::::::::::::::::::::::::::::::::::::
         ::                  THERMODYNAMIC                  ::
         :::::::::::::::::::::::::::::::::::::::::::::::::::::
         :: total free energy        -178.708860278763 Eh   ::
         ::.................................................::
         :: total energy             -179.497597860109 Eh   ::
         :: zero point energy           0.876019734367 Eh   ::
         :: G(RRHO) w/o ZPVE           -0.087282153021 Eh   ::
         :: G(RRHO) contrib.            0.788737581346 Eh   ::
         :::::::::::::::::::::::::::::::::::::::::::::::::::::

           -------------------------------------------------
          | TOTAL ENERGY             -179.497597860109 Eh   |
          | TOTAL ENTHALPY           -178.563062023719 Eh   |
          | TOTAL FREE ENERGY        -178.708860278763 Eh   |
          | GRADIENT NORM               0.000047479836 Eh/α |
           -------------------------------------------------

 * finished run on 2025/07/17 at 12:59:48.525
