   * xtb version 6.7.1 (edcfbbe) compiled by 'albert@albert-system' on 2024-07-22

   ID    Z sym.   atoms
    1    6 C      1-12, 14, 15, 17-20, 22, 23, 25-36, 38
    2    7 N      13, 16, 21, 24, 37
    3    1 H      39-59

          program call               : xtb data2507/gas/CPzPyC/CPzPyC.xyz --gfn 2 --ohess vtight --parallel 40 --molden --ceasefiles --namespace data2507/gas/CPzPyC/CPzPyC_gas_S0_preOpt
          :  Hamiltonian                  GFN2-xTB          :
 * total energy  :   -96.0270683 Eh     change       -0.2397329E-08 Eh
 * total energy  :   -96.0439760 Eh     change       -0.1690767E-01 Eh
 * total energy  :   -96.0479814 Eh     change       -0.4005426E-02 Eh
 * total energy  :   -96.0486742 Eh     change       -0.6928313E-03 Eh
 * total energy  :   -96.0492350 Eh     change       -0.5607981E-03 Eh
 * total energy  :   -96.0494284 Eh     change       -0.1933319E-03 Eh
 * total energy  :   -96.0495572 Eh     change       -0.1288076E-03 Eh
 * total energy  :   -96.0496259 Eh     change       -0.6872771E-04 Eh
 * total energy  :   -96.0496727 Eh     change       -0.4685371E-04 Eh
 * total energy  :   -96.0496920 Eh     change       -0.1925703E-04 Eh
 * total energy  :   -96.0498061 Eh     change       -0.6115186E-06 Eh
 * total energy  :   -96.0498067 Eh     change       -0.6044382E-06 Eh
 * total energy  :   -96.0498074 Eh     change       -0.6831423E-06 Eh
 * total energy  :   -96.0498081 Eh     change       -0.7059306E-06 Eh
 * total energy  :   -96.0498087 Eh     change       -0.6036765E-06 Eh
 * total energy  :   -96.0498091 Eh     change       -0.4541088E-06 Eh
 * total energy  :   -96.0498094 Eh     change       -0.3071118E-06 Eh
 * total energy  :   -96.0498097 Eh     change       -0.2697699E-06 Eh
 * total energy  :   -96.0498097 Eh     change       -0.1743288E-08 Eh
   *** GEOMETRY OPTIMIZATION CONVERGED AFTER 44 ITERATIONS ***

 final structure:
================
59
 xtb: 6.7.1 (edcfbbe)
C           -7.70288120851845       -1.00295767225757       -1.94422013993254
C           -6.56612649357666       -1.56820409428912       -2.51715236278388
C           -5.31250590287503       -1.38802341006635       -1.96373993978543
C           -5.21992315619382       -0.62978814095576       -0.80605197822320
C           -6.36365489751715       -0.03070323639063       -0.23238820099624
C           -7.61267208815712       -0.22586480322806       -0.80678582243345
C           -5.90854389255969        0.71536097627057        0.90798571328599
C           -6.55810796521523        1.48269740985789        1.86560171628593
C           -5.80866893562274        2.05752679703419        2.87254702883462
C           -4.43189046355023        1.86008781364251        2.94137564840538
C           -3.76344126339997        1.10050539019484        1.99973620384872
C           -4.50731701904258        0.54362797975047        0.96987718363740
N           -4.10213358055718       -0.27187111714510       -0.07261113663945
C           -2.79187806863687       -0.67227967405798       -0.33400786633807
C           -2.48138902379844       -2.01301320417318       -0.57789810665790
N           -1.25621346183579       -2.43508819110785       -0.82161086436921
C           -0.27091012553601       -1.55985187361188       -0.82777936312009
C           -0.45553317297038       -0.19347504404995       -0.59451505260211
C            0.69371711605646        0.71329203116944       -0.61730456356341
C            0.59436774077489        2.08250676905367       -0.87046799646411
N            1.64884505500100        2.87744959663259       -0.76702953165299
C            2.81688183808681        2.33754827230111       -0.49121027576727
C            2.95854565362228        0.94408780589020       -0.36406421239077
N            4.17714485393932        0.33444346435596       -0.15313447765642
C            5.41757602043131        0.77590968044028       -0.60114572174383
C            5.73874161744549        1.79414409535915       -1.48622738959083
C            7.07366218986120        1.99509639307746       -1.78991741676693
C            8.07329233969781        1.19788934211052       -1.24203214660487
C            7.75728577049563        0.15282868122865       -0.39617937186374
C            6.42418101331096       -0.06768099065563       -0.08123782367854
C            5.75914849687300       -1.07465921853107        0.70128259518779
C            6.22038171879954       -2.15241441224653        1.44441574569296
C            5.29747712916030       -2.95176158534859        2.08983271293187
C            3.93509243625550       -2.68100868819769        2.00313062429841
C            3.45428474032642       -1.61183164485595        1.26894397340291
C            4.37630090947597       -0.81205186478555        0.61375172576413
N            1.88571434145252        0.16318889526727       -0.39155887405670
C           -1.75026155880855        0.25156052474213       -0.34680788682017
H           -8.66478874905551       -1.17003104383929       -2.40529203965638
H           -6.66497081023039       -2.15816585696929       -3.41618032497805
H           -4.43685757067055       -1.81679257981707       -2.42719483013976
H           -8.49066120227502        0.22670364504350       -0.37147759770960
H           -7.62798895014555        1.61895176120121        1.82216239434238
H           -6.29347144900631        2.66015890750835        3.62589067470461
H           -3.87322660528208        2.30649947976701        3.75061747473776
H           -2.69901974060012        0.93739521768368        2.07932592333541
H           -3.25137566079056       -2.77224166914038       -0.55455986951876
H            0.71768121481364       -1.94706973725365       -1.02798564910499
H           -0.33364916690526        2.56095681319600       -1.14608668159354
H            3.63849932292351        3.01977173199625       -0.33328044605531
H            4.98081809670120        2.40307941063385       -1.95359216431132
H            7.34222380287940        2.78576261359577       -2.47446034868206
H            9.10417211013444        1.38975881720226       -1.49885351897708
H            8.52603098755371       -0.48898230566412        0.00620408967844
H            7.27815855987480       -2.35594970607424        1.51347904152539
H            5.63348773493890       -3.79810075434146        2.67016165877080
H            3.23462674533545       -3.32155595829944        2.51791877230712
H            2.39761391511734       -1.41224645063537        1.20109715847199
H           -1.95588828800641        1.29487361178120       -0.15929306622147

          :  Hamiltonian                  GFN2-xTB          :
         :: gradient norm              0.000033610950 Eh/a0 ::
         :: HOMO-LUMO gap              1.942629390613 eV    ::
         :: SCC energy               -97.782502190409 Eh    ::
         :: -> dispersion             -0.080556712181 Eh    ::
         :: repulsion energy           1.732692485369 Eh    ::

    * Orbital Energies and Occupations

         #    Occupation            Energy/Eh            Energy/eV
      -------------------------------------------------------------
         1        2.0000           -0.6951714             -18.9166
       ...           ...                  ...                  ...
        77        2.0000           -0.4253980             -11.5757
        78        2.0000           -0.4238044             -11.5323
        79        2.0000           -0.4223416             -11.4925
        80        2.0000           -0.4215822             -11.4718
        81        2.0000           -0.4157468             -11.3130
        82        2.0000           -0.4115873             -11.1999
        83        2.0000           -0.4098406             -11.1523
        84        2.0000           -0.3867123             -10.5230
        85        2.0000           -0.3854764             -10.4893
        86        2.0000           -0.3831994             -10.4274
        87        2.0000           -0.3781624             -10.2903
        88        2.0000           -0.3685002             -10.0274
        89        2.0000           -0.3621407              -9.8543 (HOMO)
        90                         -0.2907504              -7.9117 (LUMO)
        91                         -0.2721982              -7.4069
        92                         -0.2599109              -7.0725
        93                         -0.2506169              -6.8196
        94                         -0.2480583              -6.7500
        95                         -0.2322297              -6.3193
        96                         -0.2280940              -6.2068
        97                         -0.2264080              -6.1609
        98                         -0.2003756              -5.4525
        99                         -0.1937809              -5.2730
       100                         -0.1922728              -5.2320
       ...                                ...                  ...
       173                          0.7411498              20.1677
      -------------------------------------------------------------
                  HL-Gap            0.0713903 Eh            1.9426 eV

     #   Z          covCN         q      C6AA      α(0)
     1   6 C        2.920    -0.039    28.977     8.827
     2   6 C        2.924    -0.032    28.795     8.800
     3   6 C        2.910    -0.051    29.261     8.870
     4   6 C        3.071     0.046    26.896     8.503
     5   6 C        3.067    -0.015    28.321     8.726
     6   6 C        2.913    -0.032    28.799     8.800
     7   6 C        3.067    -0.015    28.322     8.726
     8   6 C        2.913    -0.032    28.795     8.799
     9   6 C        2.920    -0.039    28.979     8.828
    10   6 C        2.924    -0.032    28.810     8.802
    11   6 C        2.910    -0.050    29.250     8.868
    12   6 C        3.070     0.047    26.880     8.501
    13   7 N        2.801    -0.047    22.137     6.988
    14   6 C        2.906     0.058    26.704     8.473
    15   6 C        2.913     0.046    26.978     8.517
    16   7 N        1.835    -0.208    26.361     7.609
    17   6 C        2.915     0.056    26.743     8.480
    18   6 C        2.974    -0.004    28.110     8.697
    19   6 C        2.948     0.086    26.081     8.376
    20   6 C        2.905     0.036    27.200     8.552
    21   7 N        1.840    -0.204    26.255     7.594
    22   6 C        2.904     0.033    27.272     8.563
    23   6 C        2.883     0.145    24.855     8.173
    24   7 N        2.803    -0.041    22.033     6.972
    25   6 C        3.058     0.046    26.922     8.509
    26   6 C        2.911    -0.050    29.240     8.867
    27   6 C        2.924    -0.032    28.791     8.799
    28   6 C        2.920    -0.037    28.928     8.820
    29   6 C        2.913    -0.031    28.784     8.798
    30   6 C        3.066    -0.011    28.226     8.712
    31   6 C        3.064    -0.013    28.271     8.719
    32   6 C        2.913    -0.032    28.800     8.800
    33   6 C        2.920    -0.037    28.920     8.819
    34   6 C        2.925    -0.031    28.770     8.796
    35   6 C        2.910    -0.045    29.123     8.849
    36   6 C        3.063     0.053    26.758     8.483
    37   7 N        1.859    -0.246    27.263     7.739
    38   6 C        2.932    -0.033    28.829     8.806
    39   1 H        0.926     0.031     2.573     2.508
    40   1 H        0.926     0.032     2.551     2.498
    41   1 H        0.926     0.029     2.602     2.523
    42   1 H        0.926     0.033     2.539     2.492
    43   1 H        0.926     0.033     2.538     2.491
    44   1 H        0.926     0.031     2.576     2.510
    45   1 H        0.926     0.031     2.569     2.506
    46   1 H        0.926     0.025     2.655     2.548
    47   1 H        0.925     0.052     2.296     2.370
    48   1 H        0.926     0.064     2.155     2.296
    49   1 H        0.926     0.043     2.415     2.430
    50   1 H        0.926     0.050     2.321     2.383
    51   1 H        0.926     0.032     2.563     2.503
    52   1 H        0.926     0.035     2.517     2.481
    53   1 H        0.926     0.034     2.534     2.489
    54   1 H        0.926     0.036     2.498     2.471
    55   1 H        0.926     0.035     2.521     2.483
    56   1 H        0.926     0.033     2.543     2.494
    57   1 H        0.926     0.036     2.506     2.475
    58   1 H        0.926     0.050     2.314     2.379
    59   1 H        0.926     0.046     2.370     2.408

molecular dipole:
                 x           y           z       tot (Debye)
 q only:        0.216      -0.025       0.107
   full:        0.159       0.414       0.106       1.159

 projected vibrational frequencies (cm⁻¹)
eigval :       -0.00    -0.00    -0.00     0.00     0.00     0.00
eigval :       10.07    15.38    22.61    35.59    41.92    56.04
eigval :       70.95    92.77    94.29   102.06   119.79   132.52
eigval :      139.93   151.12   181.66   204.10   215.16   224.70
eigval :      241.52   271.51   272.23   274.31   288.54   324.63
eigval :      337.15   349.89   377.47   393.36   396.32   398.03
eigval :      422.47   424.03   436.99   438.88   447.43   451.90
eigval :      507.66   516.76   518.57   531.85   540.19   541.00
eigval :      546.85   576.94   584.41   591.00   603.24   608.63
eigval :      616.31   633.33   653.88   672.75   674.74   682.88
eigval :      691.48   708.15   710.79   722.47   736.22   755.42
eigval :      758.45   769.96   772.03   781.42   782.28   822.32
eigval :      825.74   838.40   869.85   870.41   874.12   876.24
eigval :      889.71   896.23   896.47   901.07   902.73   905.69
eigval :      908.56   910.34   914.73   923.91   924.60   925.34
eigval :      926.17   943.92  1007.10  1011.50  1012.45  1019.97
eigval :     1024.48  1071.30  1071.57  1075.11  1077.94  1109.51
eigval :     1120.80  1136.66  1150.68  1152.99  1164.92  1169.55
eigval :     1177.79  1178.48  1181.06  1181.84  1190.16  1194.56
eigval :     1229.40  1234.24  1235.54  1238.29  1244.93  1254.67
eigval :     1270.62  1281.77  1290.01  1297.63  1299.95  1302.78
eigval :     1327.99  1353.89  1357.66  1358.79  1359.99  1370.34
eigval :     1387.02  1406.78  1416.54  1424.68  1427.21  1441.29
eigval :     1444.15  1461.83  1473.36  1476.20  1485.08  1487.43
eigval :     1512.31  1543.17  1552.28  1566.08  1575.80  1578.39
eigval :     1589.41  1589.64  1598.49  1599.46  1611.49  1614.11
eigval :     3068.82  3076.78  3077.61  3079.35  3080.27  3081.38
eigval :     3082.58  3082.63  3084.25  3085.33  3087.29  3088.76
eigval :     3089.04  3090.12  3091.74  3095.82  3097.28  3097.52
eigval :     3098.96  3101.67  3116.75

   temp. (K)  partition function   enthalpy   heat capacity  entropy
                                   cal/mol     cal/K/mol   cal/K/mol   J/K/mol
 298.15  VIB  0.894E+12            16097.668    105.778     98.390
         ROT  0.445E+08              888.752      2.981     37.980
         INT  0.398E+20            16986.421    108.759    136.370
         TR   0.104E+29             1481.254      4.968     44.420
         TOT                       18467.6744   113.7273   180.7905   756.4274

       T/K    H(0)-H(T)+PV         H(T)/Eh          T*S/Eh         G(T)/Eh
   ------------------------------------------------------------------------
    298.15    0.294301E-01    0.473442E+00    0.858994E-01    0.387542E+00
   ------------------------------------------------------------------------

         :::::::::::::::::::::::::::::::::::::::::::::::::::::
         ::                  THERMODYNAMIC                  ::
         :::::::::::::::::::::::::::::::::::::::::::::::::::::
         :: total free energy         -95.662267399028 Eh   ::
         ::.................................................::
         :: total energy              -96.049809705040 Eh   ::
         :: zero point energy           0.444011590901 Eh   ::
         :: G(RRHO) w/o ZPVE           -0.056469284889 Eh   ::
         :: G(RRHO) contrib.            0.387542306012 Eh   ::
         :::::::::::::::::::::::::::::::::::::::::::::::::::::

           -------------------------------------------------
          | TOTAL ENERGY              -96.049809705040 Eh   |
          | TOTAL ENTHALPY            -95.576368001616 Eh   |
          | TOTAL FREE ENERGY         -95.662267399028 Eh   |
          | GRADIENT NORM               0.000033609700 Eh/α |
          | HOMO-LUMO GAP               1.942629320346 eV   |
           -------------------------------------------------

 * finished run on 2025/08/30 at 20:40:09.323
