   * xtb version 6.7.1 (edcfbbe) compiled by 'albert@albert-system' on 2024-07-22

   ID    Z sym.   atoms
    1    6 C      1-12, 14, 15, 17-20, 22, 23, 25-36, 38
    2    7 N      13, 16, 21, 24, 37
    3    1 H      39-59

          program call               : xtb data2507/gas/CPzPyC/CPzPyC_gas_S0_finalOpt.xtbopt.xyz --gfn 2 --spinpol --tblite --uhf 2 --ohess vtight --parallel 40 --molden --ceasefiles --namespace data2507/gas/CPzPyC/CPzPyC_gas_T1_preOpt
 * total energy  :   -95.9778566 Eh     change       -0.1250366E-07 Eh
 * total energy  :   -95.9811399 Eh     change       -0.3283318E-02 Eh
 * total energy  :   -95.9820801 Eh     change       -0.9401588E-03 Eh
 * total energy  :   -95.9823187 Eh     change       -0.2386029E-03 Eh
 * total energy  :   -95.9824666 Eh     change       -0.1479566E-03 Eh
 * total energy  :   -95.9825137 Eh     change       -0.4707021E-04 Eh
 * total energy  :   -95.9825478 Eh     change       -0.3410221E-04 Eh
 * total energy  :   -95.9825750 Eh     change       -0.2717281E-04 Eh
 * total energy  :   -95.9825991 Eh     change       -0.2415666E-04 Eh
 * total energy  :   -95.9826170 Eh     change       -0.1790276E-04 Eh
 * total energy  :   -95.9828171 Eh     change       -0.5754216E-06 Eh
 * total energy  :   -95.9828177 Eh     change       -0.5593309E-06 Eh
 * total energy  :   -95.9828182 Eh     change       -0.5014591E-06 Eh
 * total energy  :   -95.9828187 Eh     change       -0.4671101E-06 Eh
 * total energy  :   -95.9828186 Eh     change        0.6617526E-08 Eh
 * total energy  :   -95.9828188 Eh     change       -0.1816731E-06 Eh
 * total energy  :   -95.9828193 Eh     change       -0.4274323E-06 Eh
 * total energy  :   -95.9828194 Eh     change       -0.1124618E-06 Eh
 * total energy  :   -95.9828194 Eh     change       -0.7401979E-08 Eh
   *** GEOMETRY OPTIMIZATION CONVERGED AFTER 48 ITERATIONS ***

 final structure:
================
59
 xtb: 6.7.1 (edcfbbe)
C           -3.33507728978688        3.12333582679569       -2.05478516272072
C           -2.41197314091818        2.15223620538583       -2.43552805850213
C           -2.33413553439653        0.93629626339525       -1.78318371670064
C           -3.20988032666737        0.70990309483985       -0.73076150068322
C           -4.17103177701279        1.67787256829723       -0.35646743606543
C           -4.22354802167599        2.89465412615742       -1.02107891766674
C           -4.93910251795462        1.09667439361006        0.71102897638357
C           -5.99858111798425        1.54946734151281        1.48395136089900
C           -6.50925458037465        0.71467959719401        2.45994064631316
C           -5.96936184283713       -0.55091317691306        2.67738450708806
C           -4.91328550505755       -1.02407423456152        1.92189000150846
C           -4.40970524788118       -0.19721327967547        0.92755256686826
N           -3.36233056292324       -0.41199526313577        0.05725008833995
C           -2.59803788940658       -1.58008393960191       -0.04602349942727
C           -3.21691618312972       -2.82940777048105       -0.19501953793466
N           -2.51048057103600       -3.94199211551298       -0.31389522346115
C           -1.20274517705488       -3.89788422052885       -0.32317742476562
C           -0.46005713079987       -2.70106964005711       -0.20583032255639
C            0.95970051379717       -2.62339245189671       -0.25896125787945
C            1.81548557957595       -3.72544767456868       -0.46369518209502
N            3.10201794196629       -3.59134141429492       -0.55709708285703
C            3.67097527425446       -2.37778056293088       -0.44073420907320
C            2.86708345829645       -1.27684043545616       -0.14121743844312
N            3.41642014481863       -0.01903385071165        0.01890966847052
C            4.64657229255060        0.29191669400996        0.57948367672090
C            5.55977318983046       -0.52091842042484        1.23485651319589
C            6.71164491992202        0.06540080848855        1.72876435546764
C            6.95132739802166        1.42882356644842        1.59008429657170
C            6.02631485896612        2.25128138138523        0.97498601604843
C            4.86391125208225        1.68487125091027        0.47362033587791
C            3.69885950033343        2.23861569912335       -0.16434947785133
C            3.32389020614610        3.52864633343527       -0.50982090282138
C            2.08904159289710        3.72217826712854       -1.10078497505081
C            1.23982816700998        2.64949149847944       -1.35643836891924
C            1.60071304390471        1.35408416294161       -1.03323719234192
C            2.82788526927322        1.15812164963806       -0.42160745775830
N            1.55588875155576       -1.40455484310799       -0.06202959012584
C           -1.21906163237165       -1.52097838385135       -0.03661970940938
H           -3.36214367426292        4.06282082744522       -2.58649809347912
H           -1.75035562659887        2.34940589301330       -3.26662221232436
H           -1.62812134079688        0.18171635739174       -2.09518336274558
H           -4.95024206541592        3.64147189682982       -0.73931471905840
H           -6.41060744855331        2.53452973711383        1.32512398216850
H           -7.33539926562828        1.04742707113773        3.07037237626456
H           -6.38337112278422       -1.17511949336697        3.45516764462544
H           -4.49108056229978       -2.00076124729091        2.10317331544419
H           -4.29149679413015       -2.92680587157130       -0.23693465561956
H           -0.71252901769111       -4.85636203125220       -0.41978791536769
H            1.41456273710769       -4.72472003799720       -0.52913315300335
H            4.72043848532091       -2.28582635775619       -0.65396393769705
H            5.37704505443175       -1.57392905795364        1.38045834579780
H            7.43708795278913       -0.55040279748930        2.23883054726897
H            7.86435422432291        1.84848098487401        1.98464098731448
H            6.19628098807167        3.31382150944602        0.89180315638119
H            3.98251798513581        4.36102881836394       -0.31394578393421
H            1.77567513666203        4.71940624635636       -1.37118569777541
H            0.27887328174609        2.83034832343614       -1.81355305335036
H            0.94939177135310        0.52149489151923       -1.24480538681242
H           -0.70932902566946       -0.58163642990498        0.11285965785844

 projected vibrational frequencies (cm⁻¹)
eigval :       -0.00    -0.00     0.00     0.00     0.00     0.00
eigval :       14.44    17.49    29.11    36.74    44.03    61.30
eigval :       76.77    86.35    97.48   107.62   114.08   141.14
eigval :      143.96   167.75   184.56   191.95   213.69   216.85
eigval :      232.69   259.78   272.18   273.58   291.45   296.81
eigval :      347.21   352.22   374.42   386.65   394.47   397.47
eigval :      421.92   424.18   434.31   435.72   449.24   465.28
eigval :      492.48   513.46   517.29   519.28   538.98   539.98
eigval :      541.82   549.94   566.64   579.40   585.24   592.29
eigval :      613.28   618.29   623.06   631.72   661.52   671.03
eigval :      673.90   677.26   693.88   708.86   710.31   726.61
eigval :      754.71   756.38   769.71   771.61   780.77   782.48
eigval :      791.24   800.83   811.86   836.31   861.24   870.36
eigval :      872.84   876.97   878.93   893.28   896.85   903.19
eigval :      904.00   904.81   906.34   912.52   921.88   922.45
eigval :      923.95   926.42   945.05   988.24  1007.26  1011.71
eigval :     1015.79  1065.53  1068.45  1071.56  1073.73  1080.10
eigval :     1090.90  1115.61  1126.63  1144.88  1148.12  1154.51
eigval :     1167.18  1173.23  1175.36  1180.01  1180.65  1185.73
eigval :     1188.37  1219.26  1229.53  1234.28  1237.22  1242.99
eigval :     1267.97  1273.21  1289.24  1294.30  1296.87  1297.03
eigval :     1301.09  1326.37  1349.77  1353.02  1354.68  1358.50
eigval :     1360.39  1369.97  1395.28  1409.73  1420.01  1420.42
eigval :     1432.27  1435.72  1440.73  1468.32  1469.29  1471.67
eigval :     1481.72  1483.13  1485.61  1527.78  1570.74  1574.12
eigval :     1586.28  1586.70  1589.65  1591.93  1606.51  1607.80
eigval :     3064.19  3074.68  3079.71  3080.65  3082.49  3083.02
eigval :     3083.09  3083.41  3085.37  3088.99  3089.85  3092.04
eigval :     3092.53  3095.58  3095.97  3097.13  3098.27  3098.88
eigval :     3102.34  3107.49  3122.98

   temp. (K)  partition function   enthalpy   heat capacity  entropy
                                   cal/mol     cal/K/mol   cal/K/mol   J/K/mol
 298.15  VIB  0.411E+12            16293.392    107.954     98.688
         ROT  0.380E+08              888.752      2.981     37.667
         INT  0.156E+20            17182.144    110.935    136.356
         TR   0.104E+29             1481.254      4.968     44.420
         TOT                       18663.3982   115.9028   180.7757   756.3654

       T/K    H(0)-H(T)+PV         H(T)/Eh          T*S/Eh         G(T)/Eh
   ------------------------------------------------------------------------
    298.15    0.297420E-01    0.469888E+00    0.858923E-01    0.383995E+00
   ------------------------------------------------------------------------

         :::::::::::::::::::::::::::::::::::::::::::::::::::::
         ::                  THERMODYNAMIC                  ::
         :::::::::::::::::::::::::::::::::::::::::::::::::::::
         :: total free energy         -95.598823895085 Eh   ::
         ::.................................................::
         :: total energy              -95.982819387456 Eh   ::
         :: zero point energy           0.440145822341 Eh   ::
         :: G(RRHO) w/o ZPVE           -0.056150329969 Eh   ::
         :: G(RRHO) contrib.            0.383995492371 Eh   ::
         :::::::::::::::::::::::::::::::::::::::::::::::::::::

           -------------------------------------------------
          | TOTAL ENERGY              -95.982819387456 Eh   |
          | TOTAL ENTHALPY            -95.512931546872 Eh   |
          | TOTAL FREE ENERGY         -95.598823895085 Eh   |
          | GRADIENT NORM               0.000104034003 Eh/α |
           -------------------------------------------------

 * finished run on 2025/08/30 at 20:43:02.961
