   * xtb version 6.7.1 (edcfbbe) compiled by 'albert@albert-system' on 2024-07-22

   ID    Z sym.   atoms
    1    6 C      1-12, 14, 15, 17-20, 22, 23, 25-36, 38
    2    7 N      13, 16, 21, 24, 37
    3    1 H      39-59

          program call               : xtb data2507/gas/CPzPyC/CPzPyC_gas_S0_crest.xyz --gfn 2 --ohess vtight --parallel 40 --molden --ceasefiles --namespace data2507/gas/CPzPyC/CPzPyC_gas_S0_finalOpt
          :  Hamiltonian                  GFN2-xTB          :
 * total energy  :   -96.0503064 Eh     change       -0.1690140E-08 Eh
 * total energy  :   -96.0503289 Eh     change       -0.2241623E-04 Eh
 * total energy  :   -96.0503640 Eh     change       -0.3517139E-04 Eh
 * total energy  :   -96.0504188 Eh     change       -0.5475699E-04 Eh
 * total energy  :   -96.0504843 Eh     change       -0.6547832E-04 Eh
 * total energy  :   -96.0505410 Eh     change       -0.5675617E-04 Eh
 * total energy  :   -96.0505821 Eh     change       -0.4107831E-04 Eh
 * total energy  :   -96.0506123 Eh     change       -0.3022312E-04 Eh
 * total energy  :   -96.0506390 Eh     change       -0.2670067E-04 Eh
 * total energy  :   -96.0506686 Eh     change       -0.2960767E-04 Eh
 * total energy  :   -96.0513965 Eh     change       -0.8157315E-06 Eh
 * total energy  :   -96.0513973 Eh     change       -0.7679415E-06 Eh
 * total energy  :   -96.0513980 Eh     change       -0.6907221E-06 Eh
 * total energy  :   -96.0513986 Eh     change       -0.6103690E-06 Eh
 * total energy  :   -96.0513992 Eh     change       -0.5995744E-06 Eh
 * total energy  :   -96.0513998 Eh     change       -0.5440787E-06 Eh
 * total energy  :   -96.0514003 Eh     change       -0.5575978E-06 Eh
 * total energy  :   -96.0514008 Eh     change       -0.5284756E-06 Eh
 * total energy  :   -96.0514008 Eh     change       -0.4646822E-08 Eh
   *** GEOMETRY OPTIMIZATION CONVERGED AFTER 122 ITERATIONS ***

 final structure:
================
59
 xtb: 6.7.1 (edcfbbe)
C           -3.24676120106677        3.03732131737528       -2.18537539024400
C           -2.37589425744873        2.01929962668864       -2.56660265553924
C           -2.32092578058604        0.82189836259276       -1.87835647038641
C           -3.15989859079382        0.66363144522499       -0.78529788121179
C           -4.07095858436929        1.67706301991701       -0.41250360295264
C           -4.10502704033238        2.87353079533548       -1.11635598602666
C           -4.82204063570302        1.16356429049014        0.69970313372733
C           -5.83004060105358        1.69251355502290        1.49469192639525
C           -6.33394018888267        0.92169744298547        2.52323246539630
C           -5.83505296526214       -0.35458532297966        2.77254266191243
C           -4.83232386262806       -0.90264102105042        1.99503337103120
C           -4.33961158873303       -0.14181179325801        0.94546536892410
N           -3.33218679141602       -0.43155061699249        0.04303745971529
C           -2.58205685555317       -1.60572331549637       -0.01224999649374
C           -3.18228283737649       -2.86748571473732        0.00404625693264
N           -2.49089779649807       -3.98851778137559       -0.06110833989857
C           -1.17696713465040       -3.93178286072903       -0.16952614587498
C           -0.46325561873529       -2.73130613117886       -0.20054777678063
C            0.99604609617507       -2.65698123886516       -0.32632335100317
C            1.81570220787381       -3.74744625139823       -0.62361089818238
N            3.12137166869565       -3.60313587276162       -0.79689649822545
C            3.64747714327494       -2.40656970409793       -0.63800251936212
C            2.84906915555265       -1.30723791922371       -0.28043725366046
N            3.36707126101320       -0.04353139233941       -0.07573637680651
C            4.59654515401698        0.26791558405190        0.49409292179944
C            5.55310153727589       -0.55830326309826        1.06442031880962
C            6.68591278370613        0.03032769459526        1.59788259270005
C            6.86641896641733        1.40960689721237        1.58192762717726
C            5.89819263353129        2.24145722313207        1.05491613296873
C            4.75329994437047        1.67172491025603        0.51648396771751
C            3.55674417056730        2.23292553719534       -0.05047148769629
C            3.14032865645232        3.53581052545402       -0.28729111377514
C            1.89745566621741        3.73941638272365       -0.85419221766626
C            1.08559016972127        2.66350107855545       -1.20132087267126
C            1.48723736103347        1.35854399021831       -0.98250745418349
C            2.71983945985684        1.14891206426582       -0.38694886501317
N            1.53529983374992       -1.44878386865461       -0.15987153917026
C           -1.19609276038249       -1.55073020463783       -0.09916801595022
H           -3.25675289676189        3.96045186379121       -2.74558426395726
H           -1.73541261425187        2.16407416590645       -3.42459616361113
H           -1.65774475650448        0.03227139274315       -2.19834370549180
H           -4.79581497876040        3.65362330586365       -0.83459095526857
H           -6.20485901448335        2.68803404133908        1.31112519834072
H           -7.11960658840998        1.31303789882921        3.15202737054842
H           -6.23784806278818       -0.92828929169049        3.59396348561137
H           -4.44134603908733       -1.88585019470232        2.20900734315292
H           -4.25705343345653       -2.97466217429234        0.05978037732296
H           -0.68254598750748       -4.89103787397772       -0.22294348131181
H            1.43439166823556       -4.74776960066226       -0.75972358929785
H            4.70413708099356       -2.31345163541806       -0.83910487398683
H            5.42202302638773       -1.62753758990868        1.12107118369435
H            7.44313479607341       -0.59788405324240        2.04263737567612
H            7.76658631590716        1.83076868149552        2.00355943285774
H            6.01930111916136        3.31384828665406        1.06749671081289
H            3.77797973446122        4.36815697936836       -0.03093048287478
H            1.54922644413820        4.74492032943447       -1.03731387361995
H            0.11922426654252        2.84850145806742       -1.64644692674943
H            0.86119279707522        0.53007597874921       -1.26854064272732
H           -0.68045169980121       -0.60381582618089       -0.07044838195750

          :  Hamiltonian                  GFN2-xTB          :
         :: gradient norm              0.000055612488 Eh/a0 ::
         :: HOMO-LUMO gap              1.963133785518 eV    ::
         :: SCC energy               -97.784080692569 Eh    ::
         :: -> dispersion             -0.083164255551 Eh    ::
         :: repulsion energy           1.732679844007 Eh    ::

    * Orbital Energies and Occupations

         #    Occupation            Energy/Eh            Energy/eV
      -------------------------------------------------------------
         1        2.0000           -0.6957066             -18.9311
       ...           ...                  ...                  ...
        77        2.0000           -0.4257464             -11.5852
        78        2.0000           -0.4236675             -11.5286
        79        2.0000           -0.4225211             -11.4974
        80        2.0000           -0.4217589             -11.4766
        81        2.0000           -0.4163214             -11.3287
        82        2.0000           -0.4125756             -11.2268
        83        2.0000           -0.4093156             -11.1380
        84        2.0000           -0.3863072             -10.5120
        85        2.0000           -0.3845478             -10.4641
        86        2.0000           -0.3826910             -10.4136
        87        2.0000           -0.3792171             -10.3190
        88        2.0000           -0.3671897              -9.9917
        89        2.0000           -0.3653886              -9.9427 (HOMO)
        90                         -0.2932447              -7.9796 (LUMO)
        91                         -0.2726608              -7.4195
        92                         -0.2600963              -7.0776
        93                         -0.2514002              -6.8409
        94                         -0.2479847              -6.7480
        95                         -0.2308794              -6.2825
        96                         -0.2288882              -6.2284
        97                         -0.2259245              -6.1477
        98                         -0.2008699              -5.4659
        99                         -0.1933575              -5.2615
       100                         -0.1929572              -5.2506
       ...                                ...                  ...
       173                          0.7418218              20.1860
      -------------------------------------------------------------
                  HL-Gap            0.0721438 Eh            1.9631 eV

     #   Z          covCN         q      C6AA      α(0)
     1   6 C        2.920    -0.040    28.990     8.829
     2   6 C        2.924    -0.032    28.805     8.802
     3   6 C        2.910    -0.049    29.211     8.862
     4   6 C        3.072     0.047    26.867     8.499
     5   6 C        3.067    -0.015    28.311     8.725
     6   6 C        2.913    -0.032    28.793     8.799
     7   6 C        3.068    -0.015    28.319     8.726
     8   6 C        2.913    -0.032    28.797     8.800
     9   6 C        2.920    -0.039    28.979     8.828
    10   6 C        2.924    -0.032    28.794     8.800
    11   6 C        2.910    -0.051    29.256     8.869
    12   6 C        3.070     0.046    26.886     8.502
    13   7 N        2.802    -0.045    22.105     6.983
    14   6 C        2.905     0.058    26.697     8.472
    15   6 C        2.909     0.046    26.962     8.514
    16   7 N        1.835    -0.212    26.439     7.620
    17   6 C        2.909     0.049    26.892     8.503
    18   6 C        2.973    -0.004    28.124     8.699
    19   6 C        2.946     0.086    26.078     8.376
    20   6 C        2.904     0.036    27.185     8.549
    21   7 N        1.839    -0.204    26.251     7.593
    22   6 C        2.904     0.034    27.251     8.560
    23   6 C        2.881     0.145    24.853     8.173
    24   7 N        2.803    -0.043    22.063     6.976
    25   6 C        3.059     0.046    26.909     8.507
    26   6 C        2.910    -0.050    29.244     8.867
    27   6 C        2.924    -0.032    28.787     8.799
    28   6 C        2.920    -0.037    28.930     8.820
    29   6 C        2.913    -0.031    28.783     8.797
    30   6 C        3.066    -0.011    28.231     8.712
    31   6 C        3.064    -0.013    28.277     8.720
    32   6 C        2.913    -0.032    28.795     8.799
    33   6 C        2.920    -0.037    28.921     8.819
    34   6 C        2.924    -0.032    28.806     8.802
    35   6 C        2.911    -0.045    29.109     8.847
    36   6 C        3.064     0.053    26.747     8.481
    37   7 N        1.859    -0.246    27.258     7.738
    38   6 C        2.939    -0.027    28.674     8.782
    39   1 H        0.926     0.030     2.589     2.516
    40   1 H        0.926     0.030     2.580     2.512
    41   1 H        0.926     0.026     2.650     2.546
    42   1 H        0.926     0.033     2.542     2.493
    43   1 H        0.926     0.033     2.542     2.493
    44   1 H        0.926     0.031     2.576     2.510
    45   1 H        0.926     0.032     2.555     2.500
    46   1 H        0.926     0.029     2.605     2.524
    47   1 H        0.925     0.052     2.298     2.371
    48   1 H        0.926     0.045     2.378     2.412
    49   1 H        0.926     0.045     2.385     2.415
    50   1 H        0.926     0.050     2.318     2.381
    51   1 H        0.926     0.031     2.567     2.506
    52   1 H        0.926     0.035     2.516     2.481
    53   1 H        0.926     0.034     2.534     2.490
    54   1 H        0.926     0.036     2.500     2.473
    55   1 H        0.926     0.035     2.519     2.482
    56   1 H        0.926     0.033     2.547     2.496
    57   1 H        0.926     0.037     2.492     2.468
    58   1 H        0.926     0.043     2.415     2.430
    59   1 H        0.926     0.070     2.085     2.258

molecular dipole:
                 x           y           z       tot (Debye)
 q only:        0.126       0.497       0.018
   full:        0.353       0.598       0.023       1.766

 projected vibrational frequencies (cm⁻¹)
eigval :       -0.00    -0.00     0.00     0.00     0.00     0.00
eigval :       16.50    16.97    25.98    38.48    42.60    55.57
eigval :       58.68    87.02   100.55   110.10   115.32   140.44
eigval :      146.63   161.49   187.55   197.06   212.42   215.18
eigval :      241.70   263.23   273.15   275.17   296.08   303.49
eigval :      342.33   346.21   389.87   394.70   397.67   405.22
eigval :      422.48   423.86   436.39   438.61   444.07   465.12
eigval :      492.70   517.10   518.57   532.90   540.37   540.81
eigval :      541.86   577.75   585.20   589.99   601.80   609.34
eigval :      620.01   632.79   654.61   672.88   674.78   682.88
eigval :      687.50   708.23   710.31   722.57   735.00   755.70
eigval :      758.01   770.77   772.00   781.83   783.92   821.19
eigval :      824.46   833.43   868.91   870.70   873.53   874.31
eigval :      888.92   893.34   896.12   899.41   902.22   905.70
eigval :      906.78   907.72   919.42   923.92   924.64   927.90
eigval :      932.07   944.34  1006.24  1011.55  1012.54  1019.38
eigval :     1022.79  1068.37  1070.91  1074.38  1077.57  1105.43
eigval :     1119.94  1137.82  1149.10  1152.69  1159.74  1174.22
eigval :     1176.32  1178.50  1181.50  1181.76  1191.14  1197.53
eigval :     1222.15  1231.89  1235.94  1244.45  1245.93  1256.60
eigval :     1274.73  1287.46  1292.92  1297.60  1300.86  1302.35
eigval :     1332.59  1350.64  1357.18  1358.70  1358.96  1362.27
eigval :     1392.88  1405.71  1417.36  1424.96  1426.94  1435.33
eigval :     1443.64  1458.67  1473.41  1476.04  1485.26  1487.36
eigval :     1511.59  1547.72  1556.59  1561.81  1575.66  1578.25
eigval :     1589.55  1590.15  1599.24  1599.46  1612.01  1614.06
eigval :     3069.15  3074.43  3076.20  3079.15  3080.84  3081.06
eigval :     3082.00  3082.31  3084.13  3087.51  3088.17  3088.67
eigval :     3089.25  3091.43  3095.94  3096.27  3097.51  3098.52
eigval :     3101.91  3110.02  3119.13

   temp. (K)  partition function   enthalpy   heat capacity  entropy
                                   cal/mol     cal/K/mol   cal/K/mol   J/K/mol
 298.15  VIB  0.434E+12            16079.350    105.771     97.667
         ROT  0.372E+08              888.752      2.981     37.624
         INT  0.161E+20            16968.103    108.752    135.290
         TR   0.104E+29             1481.254      4.968     44.420
         TOT                       18449.3566   113.7202   179.7103   751.9077

       T/K    H(0)-H(T)+PV         H(T)/Eh          T*S/Eh         G(T)/Eh
   ------------------------------------------------------------------------
    298.15    0.294009E-01    0.473459E+00    0.853861E-01    0.388073E+00
   ------------------------------------------------------------------------

         :::::::::::::::::::::::::::::::::::::::::::::::::::::
         ::                  THERMODYNAMIC                  ::
         :::::::::::::::::::::::::::::::::::::::::::::::::::::
         :: total free energy         -95.663327910186 Eh   ::
         ::.................................................::
         :: total energy              -96.051400848561 Eh   ::
         :: zero point energy           0.444058158345 Eh   ::
         :: G(RRHO) w/o ZPVE           -0.055985219969 Eh   ::
         :: G(RRHO) contrib.            0.388072938375 Eh   ::
         :::::::::::::::::::::::::::::::::::::::::::::::::::::

           -------------------------------------------------
          | TOTAL ENERGY              -96.051400848561 Eh   |
          | TOTAL ENTHALPY            -95.577941769098 Eh   |
          | TOTAL FREE ENERGY         -95.663327910186 Eh   |
          | GRADIENT NORM               0.000055612040 Eh/α |
          | HOMO-LUMO GAP               1.963133943049 eV   |
           -------------------------------------------------

 * finished run on 2025/08/30 at 20:42:56.231
