   * xtb version 6.7.1 (edcfbbe) compiled by 'albert@albert-system' on 2024-07-22

   ID    Z sym.   atoms
    1    6 C      1-12, 14, 15, 17-20, 22, 23, 25-36, 38
    2    7 N      13, 16, 21, 24, 37
    3    1 H      39-59

          program call               : xtb data2507/gas/CPzPyC/CPzPyC_gas_T1_crest.xyz --gfn 2 --spinpol --tblite --uhf 2 --ohess vtight --parallel 40 --molden --ceasefiles --namespace data2507/gas/CPzPyC/CPzPyC_gas_T1_finalOpt
 * total energy  :   -95.9826350 Eh     change       -0.8393627E-08 Eh
 * total energy  :   -95.9827313 Eh     change       -0.9622686E-04 Eh
 * total energy  :   -95.9827931 Eh     change       -0.6186135E-04 Eh
 * total energy  :   -95.9828014 Eh     change       -0.8240591E-05 Eh
 * total energy  :   -95.9828069 Eh     change       -0.5593269E-05 Eh
 * total energy  :   -95.9828084 Eh     change       -0.1436375E-05 Eh
 * total energy  :   -95.9828095 Eh     change       -0.1087995E-05 Eh
 * total energy  :   -95.9828103 Eh     change       -0.8503535E-06 Eh
 * total energy  :   -95.9828110 Eh     change       -0.6906253E-06 Eh
 * total energy  :   -95.9828115 Eh     change       -0.5132656E-06 Eh
 * total energy  :   -95.9828145 Eh     change       -0.6745768E-06 Eh
 * total energy  :   -95.9828152 Eh     change       -0.6702202E-06 Eh
 * total energy  :   -95.9828158 Eh     change       -0.6394704E-06 Eh
 * total energy  :   -95.9828166 Eh     change       -0.7544717E-06 Eh
 * total energy  :   -95.9828173 Eh     change       -0.7412107E-06 Eh
 * total energy  :   -95.9828179 Eh     change       -0.6015330E-06 Eh
 * total energy  :   -95.9828184 Eh     change       -0.4566479E-06 Eh
 * total energy  :   -95.9828184 Eh     change        0.1068848E-07 Eh
 * total energy  :   -95.9828185 Eh     change       -0.9523966E-07 Eh
   *** GEOMETRY OPTIMIZATION CONVERGED AFTER 23 ITERATIONS ***

 final structure:
================
59
 xtb: 6.7.1 (edcfbbe)
C           -3.20337755518047        3.42414077492913       -1.76358566647894
C           -2.31113745848526        2.46547854360996       -2.23794889206147
C           -2.28356635282876        1.18575240061422       -1.71673466133126
C           -3.17806277793223        0.88218597232080       -0.70011988945537
C           -4.10837202157627        1.83976118264018       -0.23279709271861
C           -4.11057615758587        3.12066483523594       -0.76602087642156
C           -4.90790602463457        1.17797733396097        0.76223618090498
C           -5.95866407539042        1.58542934313519        1.57142921344745
C           -6.50901163431433        0.67190615859836        2.45053121909059
C           -6.01697976253197       -0.62844720963334        2.53687315173838
C           -4.97044203730698       -1.05783579341445        1.74292576753054
C           -4.42707493271184       -0.14992160761801        0.84491401983889
N           -3.37863124117880       -0.30999285013597       -0.03578624739734
C           -2.65274413352113       -1.48660083812675       -0.25479982430210
C           -3.31058659907900       -2.69165926685047       -0.53946540536167
N           -2.63961513621885       -3.80859889904324       -0.77033588917521
C           -1.33110669664768       -3.80789920823812       -0.76532765917306
C           -0.55091859438958       -2.65609655141399       -0.51551972624936
C            0.87116751843486       -2.62095814256473       -0.54943325542335
C            1.69262732079112       -3.72301057756318       -0.86447081815060
N            2.98371468094256       -3.62263943982483       -0.93537237130835
C            3.59050426823674       -2.44775323049776       -0.68738500957452
C            2.82006173943132       -1.35900554310986       -0.27639527614674
N            3.40856673686043       -0.14472601460851        0.02134455133770
C            4.64313412209210        0.06274775550987        0.61887792918058
C            5.52325671068659       -0.84592188003572        1.18797309157565
C            6.68898915248779       -0.35496140758999        1.74882162594931
C            6.97436485256791        1.00666869715747        1.75925315773531
C            6.08238918124001        1.92097730111184        1.23118248346341
C            4.90674791354723        1.45095818847564        0.66523574597574
C            3.76603106574673        2.10884140267367        0.08477730401991
C            3.43609686849745        3.44043891045043       -0.12043476724823
C            2.21299872749014        3.73777724152891       -0.69241904140427
C            1.33149605422578        2.72790077622851       -1.06697251439485
C            1.64756010646081        1.39382696434017       -0.88487587636887
C            2.86254659624967        1.09207289703227       -0.29226152800669
N            1.50464508319296       -1.45069156480674       -0.21924833670263
C           -1.27276031464956       -1.47563661590278       -0.22810572749618
H           -3.19124906373904        4.41467460613537       -2.19345575917273
H           -1.63389218654908        2.72455033645475       -3.03892172465330
H           -1.60152386926204        0.44284590943836       -2.10159152953656
H           -4.81327402814809        3.85977110772806       -0.41225783407889
H           -6.33369563553813        2.59610063722045        1.51451600096296
H           -7.32909862645330        0.96866625754448        3.08713159934793
H           -6.46122578172100       -1.31542561984426        3.24163971125888
H           -4.58527043712469       -2.06295246770997        1.82302295799909
H           -4.38725128959626       -2.74786443468996       -0.59932943649702
H           -0.87153919311636       -4.76670762825224       -0.95982496282327
H            1.26016779357232       -4.69587667051650       -1.03789511373680
H            4.64424003372992       -2.36849084585924       -0.88401193236118
H            5.30493563708411       -1.90177933306446        1.21824565346706
H            7.38910294200660       -1.04596029820210        2.19381044620668
H            7.89692281463876        1.35068330803328        2.20190682579408
H            6.28774643894684        2.98001499667223        1.26383615537735
H            4.11971133254719        4.22435116679622        0.16797074577259
H            1.93435190555390        4.76829542707165       -0.85419158324888
H            0.38072671576569        2.98897467355394       -1.50631261362072
H            0.97140442512636        0.61118798185849       -1.18894307357048
H           -0.73437736894065       -0.57499115034479        0.02391922587580

 projected vibrational frequencies (cm⁻¹)
eigval :       -0.00    -0.00     0.00     0.00     0.00     0.00
eigval :       14.37    17.50    29.14    36.76    43.82    61.11
eigval :       76.59    86.19    97.29   107.63   113.87   141.03
eigval :      143.77   167.81   184.74   191.59   213.42   217.15
eigval :      232.19   259.79   272.09   273.59   291.41   296.74
eigval :      346.96   351.98   374.12   386.63   394.41   397.50
eigval :      421.81   424.05   434.24   435.71   449.07   465.36
eigval :      492.41   513.24   517.26   519.34   538.99   539.99
eigval :      541.84   549.57   568.45   579.57   585.31   592.31
eigval :      613.43   618.33   623.27   631.64   661.45   671.05
eigval :      673.90   677.18   694.45   708.89   710.29   726.03
eigval :      754.46   756.24   769.54   771.51   780.67   782.41
eigval :      791.03   800.71   811.90   836.45   861.05   870.23
eigval :      872.66   876.70   878.56   893.16   896.76   903.07
eigval :      903.87   904.67   906.04   912.20   921.72   922.43
eigval :      923.63   926.45   945.85   987.50  1007.12  1011.51
eigval :     1015.75  1065.32  1067.89  1070.90  1073.12  1079.68
eigval :     1091.25  1115.27  1126.26  1144.78  1147.79  1153.28
eigval :     1167.02  1172.97  1174.97  1179.66  1180.33  1185.30
eigval :     1189.12  1218.84  1229.36  1234.11  1236.87  1242.74
eigval :     1268.30  1272.29  1289.30  1294.62  1296.94  1297.41
eigval :     1301.05  1326.92  1349.34  1352.94  1355.12  1358.45
eigval :     1360.24  1370.27  1395.19  1410.25  1420.63  1421.07
eigval :     1432.16  1435.44  1440.67  1468.76  1469.52  1472.39
eigval :     1481.73  1483.57  1485.92  1528.16  1570.80  1574.18
eigval :     1586.40  1586.72  1589.75  1591.94  1606.55  1607.51
eigval :     3064.02  3074.88  3079.85  3080.63  3082.71  3082.96
eigval :     3083.17  3083.63  3085.45  3089.24  3090.07  3092.24
eigval :     3092.74  3095.79  3096.18  3097.46  3098.75  3099.10
eigval :     3102.59  3107.76  3122.89

   temp. (K)  partition function   enthalpy   heat capacity  entropy
                                   cal/mol     cal/K/mol   cal/K/mol   J/K/mol
 298.15  VIB  0.419E+12            16296.893    107.955     98.722
         ROT  0.380E+08              888.752      2.981     37.666
         INT  0.159E+20            17185.646    110.936    136.388
         TR   0.104E+29             1481.254      4.968     44.420
         TOT                       18666.8995   115.9045   180.8085   756.5027

       T/K    H(0)-H(T)+PV         H(T)/Eh          T*S/Eh         G(T)/Eh
   ------------------------------------------------------------------------
    298.15    0.297476E-01    0.469883E+00    0.859079E-01    0.383975E+00
   ------------------------------------------------------------------------

         :::::::::::::::::::::::::::::::::::::::::::::::::::::
         ::                  THERMODYNAMIC                  ::
         :::::::::::::::::::::::::::::::::::::::::::::::::::::
         :: total free energy         -95.598843882711 Eh   ::
         ::.................................................::
         :: total energy              -95.982818499026 Eh   ::
         :: zero point energy           0.440134962676 Eh   ::
         :: G(RRHO) w/o ZPVE           -0.056160346361 Eh   ::
         :: G(RRHO) contrib.            0.383974616315 Eh   ::
         :::::::::::::::::::::::::::::::::::::::::::::::::::::

           -------------------------------------------------
          | TOTAL ENERGY              -95.982818499026 Eh   |
          | TOTAL ENTHALPY            -95.512935938423 Eh   |
          | TOTAL FREE ENERGY         -95.598843882711 Eh   |
          | GRADIENT NORM               0.000107780679 Eh/α |
           -------------------------------------------------

 * finished run on 2025/08/30 at 20:46:53.113
