   * xtb version 6.7.1 (edcfbbe) compiled by 'albert@albert-system' on 2024-07-22

   ID    Z sym.   atoms
    1    6 C      1-5, 7-20, 22-25, 27-35, 37-52, 54-71
    2    7 N      6, 21, 26, 36, 53
    3    1 H      72-114

          program call               : xtb data2507/toluene/TPA-DPPI/TPA-DPPI_toluene_S0_crest.xyz --gfn 2 --gbsa toluene --ohess vtight --parallel 40 --molden --ceasefiles --namespace data2507/toluene/TPA-DPPI/TPA-DPPI_toluene_S0_finalOpt
      * Solvation model:               GBSA
        Solvent                        toluene
        Solvent mass                       9.2140E+01 g/mol
          :  Hamiltonian                  GFN2-xTB          :
 * total energy  :  -178.0582359 Eh     change       -0.9929693E-08 Eh
 * total energy  :  -178.0583200 Eh     change       -0.8406465E-04 Eh
 * total energy  :  -178.0584107 Eh     change       -0.9071651E-04 Eh
 * total energy  :  -178.0584465 Eh     change       -0.3578428E-04 Eh
 * total energy  :  -178.0584907 Eh     change       -0.4422446E-04 Eh
 * total energy  :  -178.0585193 Eh     change       -0.2866369E-04 Eh
 * total energy  :  -178.0585536 Eh     change       -0.3427047E-04 Eh
 * total energy  :  -178.0585830 Eh     change       -0.2941546E-04 Eh
 * total energy  :  -178.0586100 Eh     change       -0.2692912E-04 Eh
 * total energy  :  -178.0586440 Eh     change       -0.3409155E-04 Eh
 * total energy  :  -178.0588925 Eh     change       -0.7334997E-06 Eh
 * total energy  :  -178.0588933 Eh     change       -0.8273632E-06 Eh
 * total energy  :  -178.0588942 Eh     change       -0.9109292E-06 Eh
 * total energy  :  -178.0588952 Eh     change       -0.9877000E-06 Eh
 * total energy  :  -178.0588963 Eh     change       -0.1055198E-05 Eh
 * total energy  :  -178.0588974 Eh     change       -0.1127529E-05 Eh
 * total energy  :  -178.0588986 Eh     change       -0.1220268E-05 Eh
 * total energy  :  -178.0589000 Eh     change       -0.1358350E-05 Eh
 * total energy  :  -178.0589000 Eh     change       -0.3725972E-08 Eh
   *** GEOMETRY OPTIMIZATION CONVERGED AFTER 94 ITERATIONS ***

 final structure:
================
114
 xtb: 6.7.1 (edcfbbe)
C            2.72814775933663       -1.68272816939127       -1.92381330829722
C            1.99220088874584       -1.08067734451781       -0.91710928888463
C            0.83142198555514       -1.66927356222398       -0.44909328681185
C            0.38938599296108       -2.87274543101440       -0.99484245929790
C           -0.81297332397655       -3.55970925541647       -0.54446586123751
N           -0.88014985589534       -4.86330683503493       -0.44919728146256
C           -2.12984072423006       -5.14585795623256        0.00658269890696
C           -2.66983048545138       -6.42490200021757        0.31836539801416
C           -1.90752977552135       -7.58972904714737        0.17579231764551
C           -2.43337363492212       -8.80944699128095        0.52224332510464
C           -3.73231341409566       -8.87665861613494        1.02355419132260
C           -4.49322454659440       -7.73894307417727        1.16047866589815
C           -3.99579308135768       -6.47502853715278        0.80550882013184
C           -4.78652237982753       -5.25941193511047        0.89536577240747
C           -6.13277266967803       -5.29047361873082        1.28796787592507
C           -6.90891142122526       -4.15655517359130        1.32838953639556
C           -6.37124010879831       -2.93144005577942        0.94703535383853
C           -5.05584742599641       -2.85706480364234        0.56015598501334
C           -4.23338718924206       -3.99349737674780        0.55361596433577
C           -2.85848920387091       -3.97149646795219        0.17921398155514
N           -1.99332701595469       -2.95136630145684       -0.16648050567238
C           -2.21488231323206       -1.56308672115643       -0.12013297186695
C           -2.03676912465944       -0.79270807402166       -1.26446251071626
C           -2.23254953385951        0.57432020932735       -1.21302028246183
C           -2.62933370836941        1.17710482708563       -0.02479325634157
N           -2.82377895695466        2.57575299697013        0.01225961761714
C           -1.81147238962319        3.50975020596605        0.01547371741692
C           -0.39995368261857        3.16562971516846        0.10252102185813
C            0.06994023396717        2.20639722999181        0.99697618368835
C            1.41409334581424        1.90086624785652        1.04922114314399
C            2.32521063841180        2.52664953475474        0.19917406236808
C            3.73867816054001        2.12652903997167        0.20510416710825
C            4.41523378873238        1.87708617253264        1.39829702101495
C            5.72514254865936        1.44600318987460        1.39590574722842
C            6.39970781398676        1.23935777365489        0.19171856878654
N            7.71671382855402        0.77137123564462        0.17872276331302
C            8.11172389519020       -0.15310989841061       -0.79786597989722
C            7.23935361476920       -1.16257805226009       -1.20542559370944
C            7.62745439379711       -2.07009510510598       -2.17220914987733
C            8.88914785606020       -1.99361011012243       -2.74009947090947
C            9.76159681412645       -0.99632512815483       -2.33458986407317
C            9.37893782720284       -0.07817301459010       -1.37529594831288
C            8.63075648126224        1.20957449928239        1.14368630495310
C            8.59768878341754        2.52740387681103        1.60076757499948
C            9.50051290454003        2.95718025516837        2.55413173049935
C           10.45419324803170        2.08873745501282        3.06045072720572
C           10.49419240726473        0.77994551583207        2.60701217723565
C            9.58938396957398        0.33799230349112        1.66099844012061
C            5.73066432134613        1.50059247019843       -1.00524577573852
C            4.42447286185982        1.94093436362448       -0.99509586610725
C            1.85393310733556        3.50626160747152       -0.67429994690375
C            0.51408638659299        3.83179391651196       -0.71291679831309
N           -2.26722784198979        4.73369523339272       -0.06858419636228
C           -3.62274758931365        4.62438729103141       -0.12832570621266
C           -4.58241902772975        5.67210768193541       -0.21085925727664
C           -4.19180607667900        7.01589727853074       -0.22325776418348
C           -5.13336572645465        8.01240128883155       -0.29167317193006
C           -6.48447319733803        7.67408516224088       -0.34620412751951
C           -6.87997324605144        6.35678018325223       -0.33790907230554
C           -5.94792761968833        5.30879254502577       -0.27392501154520
C           -6.33558488234333        3.90831066887751       -0.28246717563401
C           -7.67794828635643        3.51499612475741       -0.38777567657981
C           -8.05042313987726        2.19191273175062       -0.42361959585705
C           -7.08496179305424        1.19181445027686       -0.35890354948635
C           -5.76012651347723        1.53373730716799       -0.24557409634560
C           -5.35990091561581        2.87690037125510       -0.19847308336433
C           -4.00100832009358        3.28421961124827       -0.09396067395077
C           -2.80495567045189        0.40763530964254        1.12263562271856
C           -2.58773177119809       -0.95504881136238        1.07784252103949
C            1.15040512717550       -3.48586733284341       -1.99171394026960
C            2.30894165323499       -2.89268602376510       -2.45395071935074
H            3.62948801262814       -1.21240659960468       -2.28678996507204
H            2.32536836435555       -0.14763768708492       -0.49082372831936
H            0.28305616817114       -1.19806668857249        0.35277155065642
H           -0.90205212943070       -7.49174195003444       -0.20438360901485
H           -1.84735255067591       -9.71041726845810        0.41528630412343
H           -4.14727877107958       -9.83310932905983        1.30728794064022
H           -5.49139356862125       -7.84062566418313        1.55556861465702
H           -6.58880841158003       -6.22811316376303        1.56059193232555
H           -7.94115424676103       -4.22046804063877        1.63981662866117
H           -6.98500589724365       -2.04316474268734        0.95429107268771
H           -4.65303549778463       -1.91017997297872        0.23950420869905
H           -1.74370806014300       -1.26658065575963       -2.18863582778819
H           -2.09248473987162        1.17828446652959       -2.09660655486619
H           -0.61413549754287        1.70953789906337        1.66804307382950
H            1.76123653037217        1.14886271007168        1.74296813339431
H            3.91012776657392        2.03210180351457        2.34045963810897
H            6.23387365627910        1.25469173723091        2.32947020136034
H            6.26013784456230       -1.23223046359085       -0.75425830803399
H            6.94352812011048       -2.84956355394614       -2.47542596745031
H            9.19103860826420       -2.70678393593096       -3.49242773225864
H           10.74576803096905       -0.92642269511583       -2.77484660751884
H           10.05775807825941        0.70392466226059       -1.06737645928112
H            7.86225033987046        3.21021885849229        1.20059749125723
H            9.46449787191125        3.98116738088481        2.89706497556148
H           11.16066787671348        2.42907076314248        3.80261284440399
H           11.23042733183495        0.09371305249471        3.00000731414964
H            9.61721400297611       -0.68608253623410        1.31781969460825
H            6.24519522407949        1.35185506179025       -1.94344218529880
H            3.91761359066750        2.12298534410458       -1.93144920099617
H            2.54942062372737        4.02585965118331       -1.31668721779857
H            0.15138644319126        4.59779645847907       -1.38161747707017
H           -3.13590082936743        7.23496791068866       -0.17465492606054
H           -4.83465928832152        9.05040168635863       -0.30046416036777
H           -7.22998789454904        8.45473922844565       -0.39571431518992
H           -7.93625122524758        6.14377267761850       -0.37960031520733
H           -8.45203161812890        4.26236948005963       -0.45079435258730
H           -9.09454821512423        1.92859327473571       -0.50877766463123
H           -7.37509298756220        0.15277994002413       -0.40581015937264
H           -5.01131207568028        0.75907207408343       -0.20159904039062
H           -3.11534004160184        0.88029368102048        2.04305193097285
H           -2.71427408565736       -1.55686902722117        1.96553149068642
H            0.81183548187710       -4.42938781731908       -2.39171929755268
H            2.88507891377776       -3.37404706156048       -3.23038737703462

          :  Hamiltonian                  GFN2-xTB          :
         :: gradient norm              0.000049328808 Eh/a0 ::
         :: HOMO-LUMO gap              2.157367718262 eV    ::
         :: SCC energy              -181.402676605218 Eh    ::
         :: -> dispersion             -0.175568647492 Eh    ::
         :: -> Gsolv                  -0.070991204815 Eh    ::
         :: repulsion energy           3.343776628157 Eh    ::

    * Orbital Energies and Occupations

         #    Occupation            Energy/Eh            Energy/eV
      -------------------------------------------------------------
         1        2.0000           -0.6941116             -18.8877
       ...           ...                  ...                  ...
       154        2.0000           -0.4073645             -11.0850
       155        2.0000           -0.4049286             -11.0187
       156        2.0000           -0.4046789             -11.0119
       157        2.0000           -0.4039764             -10.9928
       158        2.0000           -0.4020542             -10.9405
       159        2.0000           -0.3953950             -10.7592
       160        2.0000           -0.3870896             -10.5332
       161        2.0000           -0.3856159             -10.4931
       162        2.0000           -0.3845241             -10.4634
       163        2.0000           -0.3823510             -10.4043
       164        2.0000           -0.3694594             -10.0535
       165        2.0000           -0.3683986             -10.0246
       166        2.0000           -0.3494595              -9.5093 (HOMO)
       167                         -0.2701777              -7.3519 (LUMO)
       168                         -0.2644433              -7.1959
       169                         -0.2576080              -7.0099
       170                         -0.2564284              -6.9778
       171                         -0.2527188              -6.8768
       172                         -0.2500986              -6.8055
       173                         -0.2487981              -6.7701
       174                         -0.2447010              -6.6587
       175                         -0.2303552              -6.2683
       176                         -0.2300691              -6.2605
       177                         -0.2296482              -6.2490
       ...                                ...                  ...
       327                          0.7240155              19.7015
      -------------------------------------------------------------
                  HL-Gap            0.0792818 Eh            2.1574 eV

     #   Z          covCN         q      C6AA      α(0)
     1   6 C        2.920    -0.027    28.681     8.782
     2   6 C        2.919    -0.030    28.758     8.794
     3   6 C        2.921    -0.035    28.864     8.810
     4   6 C        2.974    -0.002    28.062     8.689
     5   6 C        3.184     0.134    24.663     8.105
     6   7 N        1.895    -0.310    28.894     7.969
     7   6 C        3.202     0.060    26.096     8.323
     8   6 C        2.985    -0.002    28.075     8.692
     9   6 C        2.921    -0.033    28.819     8.803
    10   6 C        2.917    -0.031    28.774     8.796
    11   6 C        2.917    -0.033    28.831     8.805
    12   6 C        2.921    -0.036    28.897     8.815
    13   6 C        2.979    -0.004    28.116     8.698
    14   6 C        2.979    -0.000    28.032     8.685
    15   6 C        2.922    -0.034    28.858     8.809
    16   6 C        2.916    -0.033    28.834     8.805
    17   6 C        2.917    -0.032    28.788     8.798
    18   6 C        2.919    -0.041    29.020     8.834
    19   6 C        2.977    -0.005    28.137     8.701
    20   6 C        3.068     0.020    27.504     8.599
    21   7 N        2.839    -0.051    22.219     7.001
    22   6 C        2.911     0.069    26.455     8.434
    23   6 C        2.921    -0.035    28.876     8.812
    24   6 C        2.922    -0.034    28.857     8.809
    25   6 C        2.911     0.068    26.472     8.437
    26   7 N        2.840    -0.056    22.314     7.016
    27   6 C        3.192     0.136    24.582     8.086
    28   6 C        2.974    -0.006    28.156     8.704
    29   6 C        2.921    -0.037    28.925     8.820
    30   6 C        2.924    -0.035    28.863     8.810
    31   6 C        2.976     0.014    27.705     8.634
    32   6 C        2.976     0.001    28.009     8.681
    33   6 C        2.923    -0.034    28.847     8.808
    34   6 C        2.920    -0.048    29.189     8.860
    35   6 C        2.924     0.065    26.538     8.448
    36   7 N        2.752    -0.078    22.756     7.085
    37   6 C        2.924     0.065    26.541     8.449
    38   6 C        2.922    -0.048    29.189     8.860
    39   6 C        2.919    -0.030    28.750     8.793
    40   6 C        2.919    -0.039    28.966     8.826
    41   6 C        2.919    -0.030    28.751     8.793
    42   6 C        2.922    -0.048    29.180     8.858
    43   6 C        2.923     0.065    26.539     8.448
    44   6 C        2.922    -0.049    29.206     8.862
    45   6 C        2.919    -0.030    28.756     8.794
    46   6 C        2.919    -0.040    28.983     8.828
    47   6 C        2.919    -0.030    28.755     8.794
    48   6 C        2.922    -0.048    29.201     8.862
    49   6 C        2.921    -0.048    29.191     8.860
    50   6 C        2.924    -0.034    28.843     8.807
    51   6 C        2.923    -0.033    28.828     8.805
    52   6 C        2.924    -0.029    28.718     8.788
    53   7 N        1.893    -0.314    28.989     7.982
    54   6 C        3.207     0.059    26.082     8.317
    55   6 C        2.985    -0.002    28.080     8.692
    56   6 C        2.921    -0.033    28.827     8.805
    57   6 C        2.917    -0.031    28.781     8.797
    58   6 C        2.917    -0.034    28.842     8.807
    59   6 C        2.921    -0.036    28.901     8.816
    60   6 C        2.978    -0.005    28.130     8.700
    61   6 C        2.979    -0.001    28.038     8.686
    62   6 C        2.922    -0.035    28.860     8.810
    63   6 C        2.916    -0.034    28.842     8.807
    64   6 C        2.917    -0.032    28.792     8.799
    65   6 C        2.919    -0.041    29.008     8.832
    66   6 C        2.978    -0.005    28.151     8.703
    67   6 C        3.074     0.021    27.466     8.593
    68   6 C        2.920    -0.034    28.844     8.807
    69   6 C        2.921    -0.035    28.872     8.812
    70   6 C        2.929    -0.028    28.711     8.787
    71   6 C        2.918    -0.027    28.672     8.781
    72   1 H        0.926     0.042     2.422     2.434
    73   1 H        0.926     0.041     2.437     2.441
    74   1 H        0.926     0.026     2.650     2.546
    75   1 H        0.926     0.045     2.383     2.414
    76   1 H        0.926     0.034     2.530     2.487
    77   1 H        0.926     0.033     2.538     2.491
    78   1 H        0.926     0.036     2.502     2.474
    79   1 H        0.926     0.039     2.463     2.454
    80   1 H        0.926     0.034     2.530     2.487
    81   1 H        0.926     0.032     2.558     2.501
    82   1 H        0.926     0.026     2.642     2.542
    83   1 H        0.926     0.053     2.283     2.363
    84   1 H        0.926     0.052     2.292     2.367
    85   1 H        0.926     0.028     2.617     2.530
    86   1 H        0.926     0.040     2.453     2.449
    87   1 H        0.926     0.036     2.500     2.472
    88   1 H        0.926     0.034     2.535     2.490
    89   1 H        0.926     0.032     2.553     2.499
    90   1 H        0.926     0.034     2.524     2.484
    91   1 H        0.926     0.032     2.557     2.500
    92   1 H        0.926     0.033     2.541     2.493
    93   1 H        0.926     0.032     2.563     2.503
    94   1 H        0.926     0.032     2.563     2.503
    95   1 H        0.926     0.033     2.546     2.495
    96   1 H        0.926     0.031     2.570     2.507
    97   1 H        0.926     0.033     2.549     2.497
    98   1 H        0.926     0.031     2.568     2.506
    99   1 H        0.926     0.034     2.527     2.486
   100   1 H        0.926     0.038     2.474     2.460
   101   1 H        0.926     0.043     2.408     2.427
   102   1 H        0.926     0.043     2.414     2.430
   103   1 H        0.926     0.044     2.394     2.420
   104   1 H        0.926     0.033     2.539     2.492
   105   1 H        0.926     0.033     2.547     2.496
   106   1 H        0.926     0.035     2.510     2.478
   107   1 H        0.926     0.038     2.471     2.458
   108   1 H        0.926     0.034     2.535     2.490
   109   1 H        0.926     0.031     2.569     2.506
   110   1 H        0.926     0.024     2.677     2.558
   111   1 H        0.926     0.056     2.251     2.346
   112   1 H        0.926     0.057     2.231     2.336
   113   1 H        0.926     0.046     2.366     2.406
   114   1 H        0.926     0.043     2.410     2.428

molecular dipole:
                 x           y           z       tot (Debye)
 q only:        0.674      -0.210      -0.149
   full:        0.218      -0.251      -0.043       0.852

 projected vibrational frequencies (cm⁻¹)
eigval :       -0.00    -0.00    -0.00    -0.00     0.00     0.00
eigval :       -5.72     6.52     9.86    14.01    19.12    20.25
eigval :       27.85    31.64    32.45    34.99    40.65    46.52
eigval :       49.23    54.70    60.16    63.34    70.35    71.79
eigval :       76.03    78.93    84.02    89.60    91.85    98.12
eigval :      105.75   121.39   127.04   132.15   135.59   147.51
eigval :      165.72   176.22   179.94   200.01   211.15   211.83
eigval :      224.25   226.90   236.27   245.15   248.42   262.80
eigval :      269.26   281.67   284.40   294.38   312.06   316.43
eigval :      329.50   337.84   346.27   352.18   370.41   372.80
eigval :      374.65   377.97   379.33   385.89   386.55   392.48
eigval :      396.72   398.29   405.09   405.26   415.01   424.94
eigval :      434.54   437.74   440.21   446.80   461.48   465.48
eigval :      473.36   482.87   490.83   492.44   506.80   515.45
eigval :      519.80   524.09   533.14   534.74   536.38   537.72
eigval :      556.30   583.38   584.47   585.63   585.95   587.81
eigval :      592.40   599.61   606.68   611.75   618.54   633.95
eigval :      639.31   644.93   650.96   654.35   656.60   659.29
eigval :      663.38   668.26   671.04   674.51   678.93   681.02
eigval :      682.50   685.82   688.24   698.83   706.42   711.27
eigval :      728.57   735.36   736.45   750.61   754.28   755.78
eigval :      763.65   764.29   765.26   768.75   782.90   783.87
eigval :      787.97   797.48   805.83   829.26   831.46   859.43
eigval :      864.00   868.25   871.16   872.38   874.23   875.12
eigval :      875.29   877.32   877.62   889.67   891.26   905.21
eigval :      905.72   909.24   910.28   911.78   913.66   914.36
eigval :      915.33   915.75   921.90   923.06   925.50   926.05
eigval :      927.10   927.30   928.29   928.44   928.65   929.18
eigval :      929.27   931.18   931.67   934.98   937.21   939.28
eigval :      944.46   962.65   979.56   988.71  1003.88  1006.40
eigval :     1010.91  1017.83  1023.29  1032.06  1066.93  1068.38
eigval :     1080.08  1081.91  1082.96  1083.24  1084.57  1084.97
eigval :     1106.11  1107.77  1117.50  1120.09  1122.51  1125.18
eigval :     1130.08  1134.81  1137.43  1143.97  1148.40  1151.22
eigval :     1169.45  1172.39  1175.88  1177.96  1178.96  1179.09
eigval :     1179.76  1181.12  1181.84  1184.68  1186.35  1193.52
eigval :     1194.24  1196.56  1200.97  1202.53  1209.82  1213.95
eigval :     1249.37  1253.23  1253.71  1257.31  1258.36  1268.15
eigval :     1270.62  1277.06  1277.12  1277.78  1280.87  1281.28
eigval :     1285.74  1297.45  1302.48  1307.57  1308.67  1315.56
eigval :     1317.61  1320.09  1323.26  1324.41  1325.36  1327.40
eigval :     1333.09  1335.42  1338.38  1344.15  1347.01  1360.27
eigval :     1385.84  1395.62  1405.50  1405.94  1406.86  1412.71
eigval :     1413.86  1422.19  1424.30  1428.70  1432.56  1433.90
eigval :     1434.27  1437.60  1440.78  1456.45  1462.01  1469.76
eigval :     1472.89  1485.65  1495.72  1509.01  1513.00  1513.70
eigval :     1517.15  1541.92  1545.55  1552.57  1558.74  1559.95
eigval :     1561.65  1564.76  1566.05  1569.68  1575.62  1579.39
eigval :     1580.87  1587.39  1589.79  1591.27  1592.78  1593.64
eigval :     1595.66  1597.19  1602.89  1603.33  1604.25  3069.82
eigval :     3071.08  3071.35  3071.57  3072.14  3072.33  3074.45
eigval :     3075.24  3075.59  3077.15  3078.05  3078.32  3080.30
eigval :     3081.49  3081.53  3082.17  3082.32  3083.85  3084.70
eigval :     3084.80  3086.08  3086.32  3086.68  3087.27  3089.63
eigval :     3090.16  3093.29  3093.71  3093.84  3094.01  3096.17
eigval :     3096.27  3097.03  3097.77  3098.57  3099.33  3100.09
eigval :     3104.34  3109.86  3110.56  3112.80  3113.26  3117.46

   temp. (K)  partition function   enthalpy   heat capacity  entropy
                                   cal/mol     cal/K/mol   cal/K/mol   J/K/mol
 298.15  VIB  0.184E+28            33087.231    207.177    208.899
         ROT  0.316E+09              888.752      2.981     41.876
         INT  0.583E+36            33975.984    210.158    250.776
         TR   0.264E+29             1481.254      4.968     46.267
         TOT                       35457.2374   215.1258   297.0423  1242.8248

       T/K    H(0)-H(T)+PV         H(T)/Eh          T*S/Eh         G(T)/Eh
   ------------------------------------------------------------------------
    298.15    0.565047E-01    0.931750E+00    0.141134E+00    0.790616E+00
   ------------------------------------------------------------------------

         :::::::::::::::::::::::::::::::::::::::::::::::::::::
         ::                  THERMODYNAMIC                  ::
         :::::::::::::::::::::::::::::::::::::::::::::::::::::
         :: total free energy        -177.268284034484 Eh   ::
         ::.................................................::
         :: total energy             -178.058899978986 Eh   ::
         :: zero point energy           0.875245602095 Eh   ::
         :: G(RRHO) w/o ZPVE           -0.084629657593 Eh   ::
         :: G(RRHO) contrib.            0.790615944502 Eh   ::
         :::::::::::::::::::::::::::::::::::::::::::::::::::::

           -------------------------------------------------
          | TOTAL ENERGY             -178.058899978986 Eh   |
          | TOTAL ENTHALPY           -177.127149672345 Eh   |
          | TOTAL FREE ENERGY        -177.268284034484 Eh   |
          | GRADIENT NORM               0.000049328825 Eh/α |
          | HOMO-LUMO GAP               2.157367992695 eV   |
           -------------------------------------------------

 * finished run on 2025/08/22 at 10:49:38.255
