   * xtb version 6.7.1 (edcfbbe) compiled by 'albert@albert-system' on 2024-07-22

   ID    Z sym.   atoms
    1    6 C      1-5, 7-20, 22-25, 27-35, 37-52, 54-71
    2    7 N      6, 21, 26, 36, 53
    3    1 H      72-114

          program call               : xtb data2507/toluene/TPA-DPPI/TPA-DPPI_toluene_T1_crest.xyz --gfn 2 --uhf 2 --gbsa toluene --ohess vtight --parallel 40 --molden --ceasefiles --namespace data2507/toluene/TPA-DPPI/TPA-DPPI_toluene_T1_finalOpt
      * Solvation model:               GBSA
        Solvent                        toluene
        Solvent mass                       9.2140E+01 g/mol
          :  Hamiltonian                  GFN2-xTB          :
 * total energy  :  -177.9780949 Eh     change       -0.1185830E-07 Eh
 * total energy  :  -177.9781784 Eh     change       -0.8349745E-04 Eh
 * total energy  :  -177.9782426 Eh     change       -0.6419919E-04 Eh
 * total energy  :  -177.9782750 Eh     change       -0.3235436E-04 Eh
 * total energy  :  -177.9782977 Eh     change       -0.2270014E-04 Eh
 * total energy  :  -177.9783224 Eh     change       -0.2473632E-04 Eh
 * total energy  :  -177.9783344 Eh     change       -0.1196158E-04 Eh
 * total energy  :  -177.9783467 Eh     change       -0.1229368E-04 Eh
 * total energy  :  -177.9783615 Eh     change       -0.1482813E-04 Eh
 * total energy  :  -177.9783723 Eh     change       -0.1076463E-04 Eh
 * total energy  :  -177.9784427 Eh     change       -0.1240892E-05 Eh
 * total energy  :  -177.9784437 Eh     change       -0.9572683E-06 Eh
 * total energy  :  -177.9784445 Eh     change       -0.8636166E-06 Eh
 * total energy  :  -177.9784453 Eh     change       -0.8180851E-06 Eh
 * total energy  :  -177.9784462 Eh     change       -0.8787305E-06 Eh
 * total energy  :  -177.9784470 Eh     change       -0.7468453E-06 Eh
 * total energy  :  -177.9784476 Eh     change       -0.6304421E-06 Eh
 * total energy  :  -177.9784482 Eh     change       -0.6143999E-06 Eh
 * total energy  :  -177.9784482 Eh     change       -0.2990436E-07 Eh
   *** GEOMETRY OPTIMIZATION CONVERGED AFTER 44 ITERATIONS ***

 final structure:
================
114
 xtb: 6.7.1 (edcfbbe)
C            2.09028020518890       -2.38207793828541        2.19707162321248
C            0.97972365994534       -1.63383540387082        2.55224461750137
C           -0.28112179296430       -2.00522181009583        2.12169946713820
C           -0.44577581708963       -3.14121392814994        1.33192764959781
C           -1.75282050515817       -3.60711801347373        0.89018269357802
N           -2.07937727802626       -4.87641665849073        0.84708026353154
C           -3.36372465934195       -4.91723368172883        0.40238093482548
C           -4.18769849583828       -6.06151547381246        0.20888542468507
C           -3.72506107925668       -7.34881924099425        0.50399126054190
C           -4.54219170307691       -8.43798077114015        0.32978491996544
C           -5.84047970947922       -8.25048553663088       -0.14135662591623
C           -6.30481223960687       -6.99022799585992       -0.43847223597353
C           -5.49818855248014       -5.85219396234716       -0.28019542965791
C           -5.95445180731607       -4.51135705041893       -0.60619628379423
C           -7.22404767581843       -4.27779970463043       -1.15471316877051
C           -7.65186397651600       -3.01576484047829       -1.49402833206131
C           -6.81618900069020       -1.91955883027774       -1.30326114142308
C           -5.56856439512922       -2.10360404100849       -0.76035849072784
C           -5.11695350089785       -3.38083509147457       -0.39785232548880
C           -3.82685626901850       -3.62769009098049        0.14903558109375
N           -2.78372175990473       -2.79270297269942        0.48200311511624
C           -2.71519995040899       -1.38697368892267        0.35801255028636
C           -2.02090422185424       -0.82229312655288       -0.70837146964786
C           -1.93072156274437        0.54820659495913       -0.82594539395177
C           -2.51682761681409        1.37665411010693        0.13643595448288
N           -2.37810459336629        2.76242626609343        0.03902984821316
C           -1.15188718872007        3.45030244192193       -0.08373733203277
C            0.14324061025619        2.91371054533162       -0.01069705010636
C            0.48980009219981        1.63114178488072        0.50264426467448
C            1.77190670699028        1.17796716361045        0.46483895646938
C            2.84309711141319        1.95419692602310       -0.05462481483342
C            4.17423164260475        1.44133453908570       -0.12736159254401
C            5.30310876546008        2.28750700614221       -0.26434465382340
C            6.57636799357893        1.79208257827099       -0.33054250062424
C            6.81580006817561        0.40701384966820       -0.28556408347739
N            8.10458860099806       -0.09731908861971       -0.37057425352688
C            9.18027499316786        0.61645299086031        0.17147801006404
C            9.03701203227304        1.29930449127270        1.38108405468282
C           10.10310700957682        1.99845257347906        1.91229163663338
C           11.32279135265630        2.02631580606453        1.25338103748825
C           11.46990801627065        1.34873895807964        0.05254414020886
C           10.40953691656850        0.64947753073816       -0.48988875611468
C            8.34387079202976       -1.32152065600673       -1.00616109435751
C            9.30185177399462       -2.20305049826478       -0.50111786241819
C            9.53892863798431       -3.40679891364650       -1.13545228749163
C            8.82703189666555       -3.75249193986165       -2.27411219137288
C            7.87356851276483       -2.88093727143662       -2.77815988989429
C            7.63109347466225       -1.67267785660980       -2.15457945577269
C            5.70901880017728       -0.45092679613491       -0.15622514769507
C            4.43874146542976        0.04926214019405       -0.07254259485672
C            2.50703447532013        3.27368321421903       -0.47434829971229
C            1.22852661567152        3.73066307489248       -0.45153099072315
N           -1.36645882964893        4.76884556334122       -0.22697034875246
C           -2.68218125000794        4.95389224356290       -0.15685687932559
C           -3.38202321693557        6.19679134201657       -0.18156783005363
C           -2.68923224092415        7.40837603740443       -0.24837939324058
C           -3.37037203745048        8.60389194480625       -0.22196693808268
C           -4.75769287664487        8.59288549944991       -0.11813030566181
C           -5.45134856635756        7.40283555650340       -0.05958394525737
C           -4.79311323004773        6.16526628894902       -0.10125626171088
C           -5.49549101154726        4.89314962394246       -0.09039237579890
C           -6.89139484511649        4.83190215101316       -0.13522393762353
C           -7.57639129521363        3.63684786889737       -0.17278035381194
C           -6.87203282499126        2.43417672487569       -0.19564420680841
C           -5.50289063355041        2.44558089835791       -0.14969071247291
C           -4.77685614530712        3.65335659706241       -0.06885602244391
C           -3.36888275265227        3.72072839117497       -0.01639105167844
C           -3.21013015023472        0.80459217285179        1.20865729394214
C           -3.31415285648267       -0.56536994236424        1.31435549007085
C            0.67540320541458       -3.89986969266027        0.99425069204645
C            1.93363481604544       -3.51731556824539        1.41741557626859
H            3.07274500165403       -2.08378716255872        2.53288226074675
H            1.09231858859893       -0.75776088023151        3.17456060586000
H           -1.13867539285329       -1.42348147069649        2.42329959904565
H           -2.71591568331915       -7.44987714970359        0.87368869628934
H           -4.18740168518200       -9.43231113314304        0.55833566077184
H           -6.49010869058398       -9.10367561412719       -0.27472893576280
H           -7.31723524946819       -6.89351135897804       -0.79699036678966
H           -7.89273034220047       -5.10493175906896       -1.32967601659128
H           -8.63563655629320       -2.87636793459488       -1.91782677417628
H           -7.14310659573059       -0.93034231430259       -1.58780356533536
H           -4.91639583978651       -1.25590243568138       -0.62267621241350
H           -1.56378583676849       -1.46466693729461       -1.44599469638087
H           -1.40052011253813        0.99202549835110       -1.65453933523912
H           -0.26110078238956        1.02143908489109        0.97876483064115
H            1.97935226033383        0.21085683519504        0.89556194556582
H            5.16537355091816        3.35634935120989       -0.29919321785488
H            7.41214812937129        2.46763185369167       -0.44078327035010
H            8.09161828215783        1.26457177144760        1.90195205289561
H            9.98348514332134        2.51792115700586        2.85147422974530
H           12.15347523390719        2.57272121324238        1.67339193548921
H           12.41496641643628        1.37183100247742       -0.46946134541046
H           10.52060365122657        0.13329238677967       -1.43203233081536
H            9.84733433938758       -1.94067749578936        0.39327859604350
H           10.27904989932331       -4.08302180974381       -0.73409240477537
H            9.01459848579808       -4.69478733806155       -2.76608120310885
H            7.32067076239160       -3.13976226682668       -3.66901085518308
H            6.90036529856765       -0.98646952782510       -2.55668328840904
H            5.87211745227791       -1.51774777707352       -0.10715559215538
H            3.61736513349387       -0.64379053020934        0.01698391846748
H            3.27762308888494        3.91811996894612       -0.86811067192045
H            0.98649400192091        4.72223917248351       -0.80111022875484
H           -1.61239326169486        7.37073525731582       -0.31221421063816
H           -2.83620474252421        9.54103603759750       -0.27289643471239
H           -5.30048428444752        9.52667020771159       -0.08316882525721
H           -6.52545646737668        7.44589984072960        0.02607214034243
H           -7.46596480736100        5.74395665520652       -0.15327667523801
H           -8.65583886196743        3.63323780564166       -0.20265631506065
H           -7.40378845298848        1.49579432971271       -0.25168210026084
H           -4.96617520012006        1.51278127895310       -0.19871243102773
H           -3.65371542308293        1.44503886988886        1.95654874872352
H           -3.85075839156909       -1.01068857143788        2.13966210139130
H            0.53702526091927       -4.78929409961329        0.39870797239425
H            2.79479954838059       -4.10868829609279        1.14286915031916

          :  Hamiltonian                  GFN2-xTB          :
         :: gradient norm              0.000065984589 Eh/a0 ::
         :: HOMO-LUMO gap              0.448638001073 eV    ::
         :: SCC energy              -181.303672966384 Eh    ::
         :: -> dispersion             -0.174266079971 Eh    ::
         :: -> Gsolv                  -0.074352031214 Eh    ::
         :: repulsion energy           3.325224715986 Eh    ::

    * Orbital Energies and Occupations

         #    Occupation            Energy/Eh            Energy/eV
      -------------------------------------------------------------
         1        2.0000           -0.6892981             -18.7568
       ...           ...                  ...                  ...
       155        2.0000           -0.4057607             -11.0413
       156        2.0000           -0.4025815             -10.9548
       157        2.0000           -0.4008767             -10.9084
       158        2.0000           -0.3968685             -10.7993
       159        2.0000           -0.3901204             -10.6157
       160        2.0000           -0.3845469             -10.4641
       161        2.0000           -0.3832945             -10.4300
       162        2.0000           -0.3801280             -10.3438
       163        2.0000           -0.3759366             -10.2298
       164        1.9999           -0.3664858              -9.9726
       165        1.9996           -0.3648902              -9.9292
       166        1.0005           -0.3504002              -9.5349
       167        0.9998           -0.2773091              -7.5460 (HOMO)
       168        0.0002           -0.2608221              -7.0973 (LUMO)
       169        0.0000           -0.2557407              -6.9591
       170                         -0.2510013              -6.8301
       171                         -0.2494433              -6.7877
       172                         -0.2460337              -6.6949
       173                         -0.2438693              -6.6360
       174                         -0.2427322              -6.6051
       175                         -0.2408946              -6.5551
       176                         -0.2353079              -6.4031
       177                         -0.2312232              -6.2919
       178                         -0.2305285              -6.2730
       ...                                ...                  ...
       327                          0.7275635              19.7980
      -------------------------------------------------------------
                  HL-Gap            0.0164870 Eh            0.4486 eV

     #   Z          covCN         q      C6AA      α(0)
     1   6 C        2.919    -0.029    28.713     8.787
     2   6 C        2.919    -0.028    28.696     8.785
     3   6 C        2.922    -0.035    28.879     8.813
     4   6 C        2.974    -0.001    28.051     8.688
     5   6 C        3.191     0.136    24.586     8.087
     6   7 N        1.895    -0.318    29.088     7.996
     7   6 C        3.204     0.059    26.100     8.322
     8   6 C        2.985    -0.003    28.093     8.694
     9   6 C        2.921    -0.033    28.834     8.806
    10   6 C        2.917    -0.032    28.791     8.799
    11   6 C        2.917    -0.034    28.853     8.808
    12   6 C        2.921    -0.036    28.906     8.817
    13   6 C        2.978    -0.005    28.140     8.702
    14   6 C        2.979    -0.001    28.056     8.689
    15   6 C        2.922    -0.035    28.872     8.812
    16   6 C        2.916    -0.034    28.852     8.808
    17   6 C        2.917    -0.032    28.798     8.800
    18   6 C        2.919    -0.040    29.001     8.831
    19   6 C        2.978    -0.006    28.156     8.704
    20   6 C        3.076     0.022    27.432     8.587
    21   7 N        2.840    -0.055    22.303     7.014
    22   6 C        2.911     0.058    26.695     8.472
    23   6 C        2.919    -0.038    28.936     8.821
    24   6 C        2.921    -0.039    28.966     8.826
    25   6 C        2.908     0.064    26.562     8.451
    26   7 N        2.818    -0.068    22.546     7.052
    27   6 C        3.137     0.125    25.054     8.192
    28   6 C        2.968    -0.014    28.353     8.734
    29   6 C        2.911    -0.046    29.130     8.850
    30   6 C        2.917    -0.038    28.949     8.823
    31   6 C        2.969    -0.002    28.071     8.691
    32   6 C        2.968     0.009    27.821     8.652
    33   6 C        2.920    -0.037    28.912     8.817
    34   6 C        2.914    -0.044    29.092     8.845
    35   6 C        2.924     0.055    26.773     8.485
    36   7 N        2.752    -0.034    21.900     6.950
    37   6 C        2.926     0.063    26.596     8.457
    38   6 C        2.921    -0.041    29.027     8.835
    39   6 C        2.919    -0.027    28.666     8.780
    40   6 C        2.919    -0.032    28.792     8.799
    41   6 C        2.919    -0.027    28.666     8.780
    42   6 C        2.921    -0.042    29.044     8.838
    43   6 C        2.926     0.063    26.596     8.457
    44   6 C        2.921    -0.042    29.046     8.838
    45   6 C        2.919    -0.027    28.666     8.780
    46   6 C        2.919    -0.032    28.792     8.799
    47   6 C        2.919    -0.027    28.665     8.780
    48   6 C        2.921    -0.041    29.030     8.836
    49   6 C        2.914    -0.044    29.091     8.844
    50   6 C        2.920    -0.037    28.922     8.819
    51   6 C        2.914    -0.038    28.942     8.822
    52   6 C        2.921    -0.037    28.915     8.818
    53   7 N        1.883    -0.323    29.216     8.013
    54   6 C        3.170     0.078    25.917     8.317
    55   6 C        2.984    -0.007    28.180     8.708
    56   6 C        2.922    -0.030    28.757     8.794
    57   6 C        2.916    -0.033    28.825     8.804
    58   6 C        2.917    -0.031    28.779     8.797
    59   6 C        2.922    -0.037    28.916     8.818
    60   6 C        2.978    -0.003    28.088     8.693
    61   6 C        2.978    -0.005    28.141     8.702
    62   6 C        2.921    -0.035    28.862     8.810
    63   6 C        2.916    -0.037    28.916     8.818
    64   6 C        2.915    -0.033    28.824     8.804
    65   6 C        2.918    -0.041    29.030     8.835
    66   6 C        2.974    -0.012    28.318     8.729
    67   6 C        3.035     0.030    27.299     8.570
    68   6 C        2.920    -0.040    29.005     8.832
    69   6 C        2.918    -0.038    28.948     8.823
    70   6 C        2.928    -0.028    28.709     8.787
    71   6 C        2.918    -0.028    28.691     8.784
    72   1 H        0.926     0.042     2.421     2.433
    73   1 H        0.926     0.038     2.471     2.458
    74   1 H        0.926     0.026     2.650     2.546
    75   1 H        0.926     0.044     2.400     2.423
    76   1 H        0.926     0.033     2.541     2.493
    77   1 H        0.926     0.033     2.550     2.497
    78   1 H        0.926     0.035     2.519     2.482
    79   1 H        0.926     0.038     2.476     2.461
    80   1 H        0.926     0.033     2.544     2.494
    81   1 H        0.926     0.030     2.589     2.516
    82   1 H        0.926     0.024     2.678     2.559
    83   1 H        0.926     0.043     2.405     2.425
    84   1 H        0.926     0.045     2.389     2.417
    85   1 H        0.926     0.017     2.785     2.610
    86   1 H        0.926     0.033     2.538     2.492
    87   1 H        0.926     0.040     2.451     2.448
    88   1 H        0.926     0.038     2.478     2.462
    89   1 H        0.926     0.042     2.420     2.433
    90   1 H        0.926     0.042     2.422     2.434
    91   1 H        0.926     0.041     2.440     2.443
    92   1 H        0.926     0.042     2.419     2.432
    93   1 H        0.926     0.041     2.434     2.440
    94   1 H        0.926     0.041     2.430     2.438
    95   1 H        0.926     0.042     2.418     2.432
    96   1 H        0.926     0.041     2.441     2.443
    97   1 H        0.926     0.042     2.427     2.436
    98   1 H        0.926     0.042     2.426     2.436
    99   1 H        0.926     0.038     2.475     2.460
   100   1 H        0.926     0.039     2.460     2.453
   101   1 H        0.926     0.035     2.522     2.483
   102   1 H        0.926     0.042     2.421     2.433
   103   1 H        0.926     0.045     2.382     2.413
   104   1 H        0.926     0.035     2.522     2.483
   105   1 H        0.926     0.035     2.522     2.483
   106   1 H        0.926     0.036     2.507     2.476
   107   1 H        0.926     0.036     2.504     2.474
   108   1 H        0.926     0.031     2.576     2.510
   109   1 H        0.926     0.028     2.611     2.527
   110   1 H        0.926     0.025     2.661     2.551
   111   1 H        0.926     0.047     2.358     2.401
   112   1 H        0.926     0.045     2.384     2.414
   113   1 H        0.926     0.044     2.391     2.418
   114   1 H        0.926     0.043     2.414     2.430

molecular dipole:
                 x           y           z       tot (Debye)
 q only:        4.627      -0.462      -0.177
   full:        4.034      -0.417      -0.220      10.323

 projected vibrational frequencies (cm⁻¹)
eigval :       -0.00    -0.00     0.00     0.00     0.00     0.00
eigval :        3.53     8.81    12.21    14.31    15.43    21.51
eigval :       26.14    30.54    36.08    40.72    44.95    48.31
eigval :       52.51    60.18    61.46    62.18    70.58    72.06
eigval :       75.13    79.76    88.88    91.51    98.04   104.95
eigval :      110.38   121.74   126.77   136.98   140.94   148.78
eigval :      170.59   178.33   181.67   197.69   208.86   211.57
eigval :      221.09   229.93   238.91   243.61   253.25   260.44
eigval :      268.65   281.82   285.38   288.56   307.39   316.62
eigval :      320.14   334.29   343.51   352.10   355.69   373.91
eigval :      375.98   379.08   382.62   387.57   388.17   390.92
eigval :      393.21   398.07   400.25   401.23   409.67   419.93
eigval :      428.45   431.62   437.33   440.40   448.21   456.62
eigval :      464.99   472.60   484.81   488.80   495.84   502.54
eigval :      511.90   518.06   522.73   529.28   531.85   535.15
eigval :      550.13   579.31   582.43   584.48   584.77   586.89
eigval :      589.79   594.05   596.96   609.93   611.02   613.77
eigval :      631.46   639.35   646.03   651.48   652.46   657.45
eigval :      659.04   660.81   662.44   667.04   670.18   671.92
eigval :      678.00   678.16   679.16   684.72   690.86   707.27
eigval :      724.57   727.25   733.69   741.42   750.74   754.90
eigval :      756.07   759.37   763.79   764.88   774.59   780.17
eigval :      784.26   790.53   797.37   811.30   815.37   820.66
eigval :      836.65   850.86   858.91   864.12   867.39   869.78
eigval :      870.97   872.12   877.58   893.89   894.96   896.78
eigval :      902.79   903.33   904.54   905.88   906.57   907.21
eigval :      911.12   911.49   911.89   913.45   915.99   918.38
eigval :      921.84   924.38   924.96   925.98   926.69   927.32
eigval :      928.30   928.83   929.76   931.18   932.03   935.10
eigval :      939.57   950.55   960.31   977.76   989.02   999.86
eigval :     1001.19  1005.15  1011.38  1024.82  1034.57  1055.10
eigval :     1067.25  1078.67  1080.19  1082.20  1083.12  1085.20
eigval :     1094.94  1103.94  1106.54  1118.81  1119.40  1121.82
eigval :     1126.51  1131.39  1135.03  1137.31  1150.47  1157.14
eigval :     1158.07  1168.79  1172.07  1174.31  1177.68  1178.46
eigval :     1178.64  1179.69  1180.65  1181.00  1185.61  1190.07
eigval :     1192.07  1199.14  1200.71  1205.98  1209.86  1219.96
eigval :     1244.52  1249.79  1252.54  1253.63  1255.67  1257.92
eigval :     1262.24  1272.38  1275.99  1277.75  1279.08  1281.50
eigval :     1282.65  1287.72  1293.20  1298.61  1307.39  1310.09
eigval :     1316.03  1317.21  1319.32  1323.78  1329.26  1331.26
eigval :     1333.51  1335.85  1338.43  1340.98  1346.35  1355.37
eigval :     1380.67  1393.39  1401.10  1405.90  1406.82  1409.17
eigval :     1414.44  1416.63  1424.99  1425.12  1428.83  1431.89
eigval :     1435.33  1436.93  1439.70  1443.56  1453.89  1456.94
eigval :     1457.17  1457.82  1462.70  1470.52  1478.40  1486.44
eigval :     1490.01  1508.21  1511.18  1513.40  1516.59  1540.60
eigval :     1541.96  1542.86  1557.93  1559.40  1565.11  1566.46
eigval :     1568.15  1569.44  1578.20  1579.77  1579.81  1583.22
eigval :     1585.03  1592.81  1593.88  1596.02  1603.19  3069.17
eigval :     3070.94  3072.57  3072.93  3073.48  3077.88  3078.56
eigval :     3078.86  3079.18  3079.22  3079.96  3080.17  3081.09
eigval :     3081.27  3081.72  3082.75  3084.03  3086.81  3087.66
eigval :     3087.78  3088.03  3088.62  3090.75  3091.56  3092.67
eigval :     3093.49  3095.89  3096.16  3097.66  3098.26  3098.48
eigval :     3098.75  3099.20  3100.30  3100.65  3102.11  3103.85
eigval :     3105.83  3107.63  3109.41  3110.07  3113.07  3123.43

   temp. (K)  partition function   enthalpy   heat capacity  entropy
                                   cal/mol     cal/K/mol   cal/K/mol   J/K/mol
 298.15  VIB  0.125E+28            33249.398    209.386    209.480
         ROT  0.338E+09              888.752      2.981     42.006
         INT  0.422E+36            34138.150    212.367    251.486
         TR   0.264E+29             1481.254      4.968     46.267
         TOT                       35619.4042   217.3351   297.7524  1245.7960

       T/K    H(0)-H(T)+PV         H(T)/Eh          T*S/Eh         G(T)/Eh
   ------------------------------------------------------------------------
    298.15    0.567631E-01    0.928500E+00    0.141472E+00    0.787028E+00
   ------------------------------------------------------------------------

         :::::::::::::::::::::::::::::::::::::::::::::::::::::
         ::                  THERMODYNAMIC                  ::
         :::::::::::::::::::::::::::::::::::::::::::::::::::::
         :: total free energy        -177.191420341510 Eh   ::
         ::.................................................::
         :: total energy             -177.978448245720 Eh   ::
         :: zero point energy           0.871736543140 Eh   ::
         :: G(RRHO) w/o ZPVE           -0.084708638930 Eh   ::
         :: G(RRHO) contrib.            0.787027904210 Eh   ::
         :::::::::::::::::::::::::::::::::::::::::::::::::::::

           -------------------------------------------------
          | TOTAL ENERGY             -177.978448245720 Eh   |
          | TOTAL ENTHALPY           -177.049948568884 Eh   |
          | TOTAL FREE ENERGY        -177.191420341510 Eh   |
          | GRADIENT NORM               0.000065701565 Eh/α |
          | HOMO-LUMO GAP               0.448634441165 eV   |
           -------------------------------------------------

 * finished run on 2025/08/22 at 11:09:09.121
