   * xtb version 6.7.1 (edcfbbe) compiled by 'albert@albert-system' on 2024-07-22

   ID    Z sym.   atoms
    1    6 C      1-5, 7-20, 22-25, 27-35, 37-52, 54-71
    2    7 N      6, 21, 26, 36, 53
    3    1 H      72-114

          program call               : xtb data2507/toluene/TPA-DPPI/TPA-DPPI_toluene_S0_finalOpt.xtbopt.xyz --gfn 2 --uhf 2 --gbsa toluene --ohess vtight --parallel 40 --molden --ceasefiles --namespace data2507/toluene/TPA-DPPI/TPA-DPPI_toluene_T1_preOpt
      * Solvation model:               GBSA
        Solvent                        toluene
        Solvent mass                       9.2140E+01 g/mol
          :  Hamiltonian                  GFN2-xTB          :
 * total energy  :  -177.9645883 Eh     change       -0.2043663E-08 Eh
 * total energy  :  -177.9673864 Eh     change       -0.2798112E-02 Eh
 * total energy  :  -177.9687984 Eh     change       -0.1411923E-02 Eh
 * total energy  :  -177.9694024 Eh     change       -0.6040648E-03 Eh
 * total energy  :  -177.9700896 Eh     change       -0.6871495E-03 Eh
 * total energy  :  -177.9704618 Eh     change       -0.3722712E-03 Eh
 * total energy  :  -177.9709538 Eh     change       -0.4919482E-03 Eh
 * total energy  :  -177.9711971 Eh     change       -0.2432621E-03 Eh
 * total energy  :  -177.9714704 Eh     change       -0.2733191E-03 Eh
 * total energy  :  -177.9717238 Eh     change       -0.2534077E-03 Eh
 * total energy  :  -177.9755422 Eh     change       -0.2302065E-05 Eh
 * total energy  :  -177.9755444 Eh     change       -0.2202623E-05 Eh
 * total energy  :  -177.9755465 Eh     change       -0.2108113E-05 Eh
 * total energy  :  -177.9755486 Eh     change       -0.2016315E-05 Eh
 * total energy  :  -177.9755505 Eh     change       -0.1973864E-05 Eh
 * total energy  :  -177.9755526 Eh     change       -0.2021388E-05 Eh
 * total energy  :  -177.9755547 Eh     change       -0.2112127E-05 Eh
 * total energy  :  -177.9755569 Eh     change       -0.2278276E-05 Eh
 * total energy  :  -177.9755570 Eh     change       -0.7821598E-08 Eh
   *** GEOMETRY OPTIMIZATION CONVERGED AFTER 152 ITERATIONS ***

 final structure:
================
114
 xtb: 6.7.1 (edcfbbe)
C            2.49099013483884       -2.09089972783185       -2.11673168578527
C            1.78926892902430       -1.39331847196166       -1.14822197078498
C            0.63507401738284       -1.92208865662767       -0.59878032807556
C            0.15612419516116       -3.15696178893206       -1.03227144589759
C           -1.05258852869216       -3.78621513095807       -0.51938186469745
N           -1.14416768862215       -5.08525642666947       -0.36955332708691
C           -2.39624010460766       -5.32605288807366        0.10033350458784
C           -2.96017356908394       -6.57919865688089        0.46985099489381
C           -2.21630732352388       -7.76204126263267        0.39518988579013
C           -2.76453197765843       -8.95352120441256        0.80081360084463
C           -4.06733752358048       -8.97362961963008        1.29573341616221
C           -4.81110605640351       -7.81835732462950        1.36476413112949
C           -4.29167045564157       -6.58370284500407        0.94495338574239
C           -5.06774776284546       -5.35520279422742        0.95145274552279
C           -6.42718823794652       -5.35080535899620        1.29574801162699
C           -7.19163650213563       -4.20944812829301        1.23836634790177
C           -6.62565792559951       -3.01419804511883        0.80635401220750
C           -5.29438096839697       -2.97191716981920        0.47342121126053
C           -4.48642789448436       -4.11564323234571        0.56252675685205
C           -3.10392741707687       -4.13198386346147        0.22046211155969
N           -2.22096733208709       -3.14156050463683       -0.16309637254152
C           -2.41202202797198       -1.74930321987316       -0.11478043214654
C           -2.18439997460198       -0.96890194048873       -1.24568274932327
C           -2.32438655756824        0.40173513407698       -1.17508595903110
C           -2.72275667157166        1.01065338179629        0.01392134033291
N           -2.82350628718457        2.41356974009771        0.06031425541954
C           -1.72820881809209        3.26125307979859       -0.20599005417653
C           -0.37190191670137        2.91948316552073       -0.09057858203938
C            0.12003496663376        1.79034628044246        0.62187457199828
C            1.45417686562667        1.55629232724006        0.74255498000558
C            2.42868548662398        2.37112899233522        0.10174702510536
C            3.82037280849166        2.05242249391283        0.14396642797125
C            4.37136218095205        1.22000632037737        1.15106990908958
C            5.70344029051847        0.91277013325974        1.18604480723823
C            6.57783601082076        1.38514307244059        0.19156482479873
N            7.92582967291523        1.05356089251035        0.21246876188770
C            8.60662792825259        0.81548944395336       -0.98567912098824
C            7.96475893210363        0.16239201507062       -2.04050742454096
C            8.63978337140242       -0.07574984539880       -3.22131178861635
C            9.95793568754521        0.32830612231768       -3.37000104025985
C           10.59912626649055        0.97708312468392       -2.32549403022034
C            9.93313726756090        1.22334142104688       -1.14093139368849
C            8.60057388372689        0.94504707362944        1.43259965501824
C            8.30883636049956        1.82567129230456        2.47690580886718
C            8.97382408725850        1.71596858605092        3.68216366385808
C            9.93652753737768        0.73489565666436        3.86569908185208
C           10.23069468019564       -0.14044739530458        2.83109237890985
C            9.57018900326064       -0.04199158381110        1.62221269926147
C            6.04994962582682        2.20132083572609       -0.82469978918754
C            4.72421562950706        2.53717543636099       -0.83530720517306
C            1.93264567481848        3.51482370929894       -0.58694403079984
C            0.60531705163631        3.79635177935299       -0.64935606987163
N           -2.14619682679565        4.50266299561857       -0.49690944862488
C           -3.47477616324023        4.48868582605252       -0.39357345394618
C           -4.36825453793455        5.58534429229906       -0.57589831341224
C           -3.88329677174692        6.86186792468394       -0.87290102183407
C           -4.75067485703446        7.91635176044432       -1.04364094263642
C           -6.11874178750465        7.69761696331507       -0.91439605244183
C           -6.60795864304844        6.44260121253332       -0.62198475168690
C           -5.75563953296935        5.34234118351315       -0.44520137577919
C           -6.24060030353030        4.00604222852281       -0.14842733728243
C           -7.60739053381892        3.72904108649014       -0.04383096080740
C           -8.08427629925667        2.46610472088879        0.23028856343014
C           -7.19261638675031        1.40816258794076        0.40612214151659
C           -5.84470876825464        1.63081686926214        0.31233593480535
C           -5.32912481919686        2.91632631523826        0.04183688777267
C           -3.95272023691050        3.19480072418959       -0.06471328509658
C           -2.96393758764827        0.22622011746732        1.14367302832895
C           -2.79598026410898       -1.14162463406820        1.08175192893071
C            0.88327385410956       -3.86377616477074       -1.99325830406717
C            2.04022317359665       -3.33481417166478       -2.52998611474289
H            3.38872774039414       -1.66755214415988       -2.54209154986663
H            2.14022816830607       -0.42805739401373       -0.81732747109047
H            0.11854259352089       -1.37478455923155        0.17498985342419
H           -1.20622559747999       -7.70002998722360        0.01962440441416
H           -2.19228356615963       -9.86798969270617        0.74610626243716
H           -4.49915378449383       -9.90686455714200        1.62775570320856
H           -5.81286796656798       -7.88189735824834        1.75904423133671
H           -6.90460966444735       -6.26752004898370        1.60148444032114
H           -8.23651024577486       -4.24563801666321        1.50972837152796
H           -7.23242424646830       -2.12506483389705        0.72418038833662
H           -4.86822335939353       -2.04933640908173        0.11294808240706
H           -1.89401980816806       -1.44056714205090       -2.17198058502354
H           -2.13463648057909        1.01353094990298       -2.04439466806542
H           -0.57538595490216        1.13210071429359        1.11799849503870
H            1.77324493098952        0.69646872801692        1.31211957719196
H            3.73414915850879        0.83651403687810        1.93219023933281
H            6.09167636415043        0.28011190756319        1.97108157948068
H            6.94347320425537       -0.16652934370401       -1.91689799939763
H            8.13669254124019       -0.58834860674853       -4.02776701649758
H           10.48259196442127        0.13806563876506       -4.29389439437444
H           11.62361981136010        1.29977960240925       -2.43713532982658
H           10.42866490211743        1.74079480436681       -0.33284425810455
H            7.56956203901535        2.59891855069164        2.32796535311771
H            8.74499167576778        2.40582193108613        4.48098412845094
H           10.45448721864753        0.65332775324546        4.80915491828503
H           10.97437803683111       -0.91110883703662        2.96995900447887
H            9.78885236610310       -0.73354559335528        0.82196144003079
H            6.71056273718242        2.58017821293259       -1.59110910091704
H            4.35426546175397        3.16306818900442       -1.63202656431130
H            2.63283924495916        4.20703072384038       -1.02937370903406
H            0.24636971200650        4.68662600342732       -1.14231681952382
H           -2.81478566294115        6.98754678631997       -0.95993593238588
H           -4.37662633520628        8.90294364818199       -1.27352308573838
H           -6.80808807228447        8.51970668631684       -1.04372155298697
H           -7.67581734188585        6.32456288128080       -0.53001531744074
H           -8.32594180012685        4.52097524950817       -0.18100166271056
H           -9.14785707299045        2.29484634906714        0.30499808273192
H           -7.56581292199889        0.41715152946100        0.61688740574052
H           -5.15989171568411        0.80904035418913        0.44126763772840
H           -3.25810535125298        0.69843052048927        2.06982107598972
H           -2.96125588485214       -1.75031691937387        1.95860159295783
H            0.51692970566212       -4.82933835990577       -2.30684205183631
H            2.58859318262017       -3.89131172271927       -3.27581072940341

          :  Hamiltonian                  GFN2-xTB          :
         :: gradient norm              0.000072253353 Eh/a0 ::
         :: HOMO-LUMO gap              0.278823200331 eV    ::
         :: SCC energy              -181.300563364165 Eh    ::
         :: -> dispersion             -0.174128047804 Eh    ::
         :: -> Gsolv                  -0.074291027752 Eh    ::
         :: repulsion energy           3.325006406360 Eh    ::

    * Orbital Energies and Occupations

         #    Occupation            Energy/Eh            Energy/eV
      -------------------------------------------------------------
         1        2.0000           -0.6897987             -18.7704
       ...           ...                  ...                  ...
       155        2.0000           -0.4048602             -11.0168
       156        2.0000           -0.4037218             -10.9858
       157        2.0000           -0.4013980             -10.9226
       158        2.0000           -0.3977886             -10.8244
       159        2.0000           -0.3901322             -10.6160
       160        2.0000           -0.3847956             -10.4708
       161        2.0000           -0.3830350             -10.4229
       162        2.0000           -0.3812025             -10.3730
       163        2.0000           -0.3765183             -10.2456
       164        1.9999           -0.3664074              -9.9705
       165        1.9992           -0.3647427              -9.9252
       166        1.0009           -0.3512903              -9.5591
       167        0.9955           -0.2760036              -7.5104 (HOMO)
       168        0.0045           -0.2657574              -7.2316 (LUMO)
       169                         -0.2542770              -6.9192
       170                         -0.2516594              -6.8480
       171                         -0.2495699              -6.7911
       172                         -0.2485373              -6.7630
       173                         -0.2441877              -6.6447
       174                         -0.2422252              -6.5913
       175                         -0.2408616              -6.5542
       176                         -0.2352070              -6.4003
       177                         -0.2316475              -6.3035
       178                         -0.2306604              -6.2766
       ...                                ...                  ...
       327                          0.7274311              19.7944
      -------------------------------------------------------------
                  HL-Gap            0.0102461 Eh            0.2788 eV

     #   Z          covCN         q      C6AA      α(0)
     1   6 C        2.920    -0.028    28.713     8.787
     2   6 C        2.919    -0.030    28.755     8.794
     3   6 C        2.921    -0.034    28.857     8.809
     4   6 C        2.974    -0.002    28.062     8.689
     5   6 C        3.182     0.135    24.669     8.107
     6   7 N        1.896    -0.315    29.014     7.986
     7   6 C        3.198     0.060    26.127     8.331
     8   6 C        2.985    -0.003    28.091     8.694
     9   6 C        2.921    -0.033    28.831     8.805
    10   6 C        2.917    -0.032    28.789     8.799
    11   6 C        2.917    -0.034    28.848     8.808
    12   6 C        2.921    -0.036    28.907     8.817
    13   6 C        2.979    -0.005    28.132     8.700
    14   6 C        2.979    -0.002    28.062     8.689
    15   6 C        2.922    -0.035    28.872     8.812
    16   6 C        2.916    -0.035    28.860     8.809
    17   6 C        2.917    -0.032    28.788     8.798
    18   6 C        2.919    -0.041    29.016     8.833
    19   6 C        2.978    -0.005    28.151     8.703
    20   6 C        3.070     0.020    27.487     8.597
    21   7 N        2.837    -0.053    22.258     7.007
    22   6 C        2.910     0.063    26.589     8.455
    23   6 C        2.919    -0.037    28.928     8.820
    24   6 C        2.922    -0.037    28.918     8.819
    25   6 C        2.910     0.069    26.462     8.435
    26   7 N        2.816    -0.079    22.774     7.088
    27   6 C        3.148     0.128    24.947     8.170
    28   6 C        2.968    -0.016    28.407     8.742
    29   6 C        2.912    -0.045    29.116     8.848
    30   6 C        2.916    -0.037    28.924     8.819
    31   6 C        2.969    -0.004    28.112     8.697
    32   6 C        2.969     0.008    27.839     8.655
    33   6 C        2.920    -0.037    28.926     8.820
    34   6 C        2.914    -0.043    29.072     8.842
    35   6 C        2.926     0.053    26.806     8.491
    36   7 N        2.752    -0.034    21.897     6.950
    37   6 C        2.926     0.063    26.592     8.457
    38   6 C        2.921    -0.041    29.028     8.835
    39   6 C        2.919    -0.026    28.663     8.779
    40   6 C        2.919    -0.032    28.793     8.799
    41   6 C        2.919    -0.027    28.666     8.780
    42   6 C        2.921    -0.042    29.049     8.838
    43   6 C        2.926     0.063    26.591     8.457
    44   6 C        2.921    -0.041    29.030     8.836
    45   6 C        2.918    -0.027    28.666     8.780
    46   6 C        2.919    -0.032    28.794     8.799
    47   6 C        2.919    -0.027    28.666     8.780
    48   6 C        2.921    -0.042    29.050     8.839
    49   6 C        2.914    -0.043    29.072     8.842
    50   6 C        2.920    -0.037    28.929     8.820
    51   6 C        2.915    -0.038    28.938     8.821
    52   6 C        2.919    -0.037    28.912     8.818
    53   7 N        1.880    -0.324    29.255     8.018
    54   6 C        3.175     0.078    25.893     8.310
    55   6 C        2.984    -0.007    28.189     8.709
    56   6 C        2.922    -0.030    28.755     8.794
    57   6 C        2.916    -0.033    28.832     8.805
    58   6 C        2.917    -0.031    28.777     8.797
    59   6 C        2.922    -0.037    28.915     8.818
    60   6 C        2.977    -0.003    28.096     8.695
    61   6 C        2.977    -0.005    28.138     8.701
    62   6 C        2.920    -0.034    28.855     8.809
    63   6 C        2.916    -0.037    28.909     8.817
    64   6 C        2.915    -0.033    28.818     8.803
    65   6 C        2.918    -0.041    29.022     8.834
    66   6 C        2.974    -0.013    28.343     8.733
    67   6 C        3.039     0.033    27.216     8.557
    68   6 C        2.919    -0.039    28.958     8.824
    69   6 C        2.920    -0.038    28.943     8.822
    70   6 C        2.930    -0.029    28.733     8.791
    71   6 C        2.918    -0.028    28.699     8.785
    72   1 H        0.926     0.040     2.449     2.447
    73   1 H        0.926     0.041     2.435     2.440
    74   1 H        0.926     0.025     2.659     2.550
    75   1 H        0.926     0.044     2.395     2.420
    76   1 H        0.926     0.033     2.539     2.492
    77   1 H        0.926     0.033     2.548     2.496
    78   1 H        0.926     0.035     2.517     2.481
    79   1 H        0.926     0.038     2.476     2.461
    80   1 H        0.926     0.033     2.547     2.496
    81   1 H        0.926     0.029     2.601     2.522
    82   1 H        0.926     0.025     2.665     2.553
    83   1 H        0.926     0.046     2.369     2.407
    84   1 H        0.926     0.043     2.408     2.427
    85   1 H        0.926     0.015     2.816     2.624
    86   1 H        0.926     0.031     2.571     2.508
    87   1 H        0.926     0.037     2.492     2.469
    88   1 H        0.926     0.036     2.498     2.471
    89   1 H        0.926     0.042     2.428     2.437
    90   1 H        0.926     0.042     2.420     2.433
    91   1 H        0.926     0.041     2.439     2.442
    92   1 H        0.926     0.042     2.419     2.432
    93   1 H        0.926     0.041     2.431     2.438
    94   1 H        0.926     0.041     2.429     2.437
    95   1 H        0.926     0.042     2.426     2.436
    96   1 H        0.926     0.041     2.441     2.443
    97   1 H        0.926     0.042     2.418     2.432
    98   1 H        0.926     0.042     2.428     2.437
    99   1 H        0.926     0.037     2.484     2.465
   100   1 H        0.926     0.039     2.456     2.451
   101   1 H        0.926     0.033     2.538     2.491
   102   1 H        0.926     0.039     2.458     2.452
   103   1 H        0.926     0.045     2.385     2.415
   104   1 H        0.926     0.034     2.524     2.484
   105   1 H        0.926     0.035     2.522     2.483
   106   1 H        0.926     0.036     2.507     2.476
   107   1 H        0.926     0.036     2.502     2.474
   108   1 H        0.926     0.031     2.571     2.508
   109   1 H        0.926     0.027     2.624     2.533
   110   1 H        0.926     0.026     2.648     2.544
   111   1 H        0.926     0.051     2.313     2.378
   112   1 H        0.926     0.050     2.326     2.385
   113   1 H        0.926     0.045     2.377     2.411
   114   1 H        0.926     0.042     2.425     2.435

molecular dipole:
                 x           y           z       tot (Debye)
 q only:        4.365       0.002       0.059
   full:        3.788       0.002       0.209       9.642

 projected vibrational frequencies (cm⁻¹)
eigval :       -0.00    -0.00    -0.00     0.00     0.00     0.00
eigval :        4.50     8.93    10.48    12.15    16.48    20.88
eigval :       25.44    28.76    31.64    38.49    45.47    48.34
eigval :       52.74    55.86    60.37    64.97    69.66    70.46
eigval :       77.88    80.84    86.25    95.65    97.31   103.50
eigval :      113.77   123.03   127.81   129.34   137.65   152.31
eigval :      164.02   180.72   182.54   201.27   210.27   213.23
eigval :      220.42   226.61   237.30   242.96   249.82   259.29
eigval :      268.81   281.80   284.33   289.99   303.25   316.31
eigval :      321.02   335.64   339.27   346.06   365.55   371.75
eigval :      375.86   377.11   378.39   383.88   385.97   388.25
eigval :      393.38   395.68   398.55   404.98   410.21   419.21
eigval :      427.95   432.56   434.50   441.73   447.08   454.87
eigval :      470.30   475.25   482.21   488.90   494.98   501.28
eigval :      511.07   518.63   524.34   525.96   533.50   535.42
eigval :      550.23   578.98   582.42   584.57   585.05   587.79
eigval :      590.12   592.75   598.83   609.22   611.28   619.02
eigval :      634.81   640.78   645.59   648.70   651.77   656.57
eigval :      658.00   659.98   662.45   668.94   670.39   670.69
eigval :      676.71   677.79   679.34   684.76   693.31   707.56
eigval :      725.32   728.78   734.73   741.99   751.58   753.52
eigval :      755.60   760.23   760.68   761.95   774.72   778.94
eigval :      785.98   790.39   792.87   807.38   815.59   824.63
eigval :      834.12   850.28   861.30   864.76   869.47   870.06
eigval :      871.27   875.25   875.81   892.78   893.34   896.35
eigval :      902.13   902.57   903.56   904.13   906.79   907.42
eigval :      908.94   910.25   911.41   912.22   913.08   914.43
eigval :      917.40   922.31   924.87   925.15   926.37   926.87
eigval :      927.27   927.57   930.16   931.47   933.38   934.69
eigval :      938.43   950.51   959.08   977.39   989.50   999.31
eigval :     1001.05  1004.41  1010.71  1024.21  1032.07  1056.64
eigval :     1066.32  1078.87  1080.26  1082.65  1083.78  1084.75
eigval :     1095.61  1103.78  1107.31  1117.37  1119.59  1122.02
eigval :     1125.17  1131.92  1134.71  1137.30  1148.14  1154.18
eigval :     1157.08  1168.07  1169.00  1175.96  1177.50  1177.92
eigval :     1177.95  1178.94  1181.01  1182.80  1185.03  1189.45
eigval :     1190.70  1197.38  1199.53  1205.89  1210.12  1219.32
eigval :     1243.30  1249.36  1251.47  1253.32  1256.61  1259.62
eigval :     1262.01  1271.72  1274.52  1277.92  1278.05  1281.81
eigval :     1282.58  1285.73  1294.45  1298.12  1306.08  1309.49
eigval :     1312.80  1317.65  1320.42  1324.36  1324.66  1329.69
eigval :     1333.71  1335.93  1339.49  1340.38  1345.26  1352.65
eigval :     1378.66  1391.72  1400.20  1402.86  1406.04  1407.52
eigval :     1412.82  1415.24  1423.69  1424.96  1429.65  1431.30
eigval :     1433.94  1436.72  1438.26  1440.87  1451.84  1455.35
eigval :     1456.82  1456.95  1459.70  1468.16  1478.93  1483.50
eigval :     1491.00  1501.21  1510.49  1514.05  1525.49  1538.58
eigval :     1539.44  1540.79  1555.69  1558.29  1564.38  1564.42
eigval :     1567.34  1568.68  1577.67  1578.88  1579.30  1581.87
eigval :     1584.97  1589.94  1591.51  1594.02  1602.43  3068.96
eigval :     3071.14  3074.44  3074.72  3075.73  3077.03  3078.47
eigval :     3078.54  3079.19  3079.51  3079.65  3080.14  3080.83
eigval :     3081.90  3083.10  3083.46  3084.30  3085.45  3086.00
eigval :     3087.61  3088.29  3088.37  3090.56  3090.59  3091.54
eigval :     3094.00  3096.09  3097.15  3098.44  3098.72  3098.78
eigval :     3098.95  3099.07  3099.32  3100.16  3100.32  3102.32
eigval :     3105.87  3106.56  3108.56  3109.39  3111.97  3123.81

   temp. (K)  partition function   enthalpy   heat capacity  entropy
                                   cal/mol     cal/K/mol   cal/K/mol   J/K/mol
 298.15  VIB  0.176E+28            33292.901    209.323    209.747
         ROT  0.334E+09              888.752      2.981     41.982
         INT  0.588E+36            34181.653    212.304    251.728
         TR   0.264E+29             1481.254      4.968     46.267
         TOT                       35662.9074   217.2723   297.9947  1246.8099

       T/K    H(0)-H(T)+PV         H(T)/Eh          T*S/Eh         G(T)/Eh
   ------------------------------------------------------------------------
    298.15    0.568325E-01    0.928201E+00    0.141587E+00    0.786615E+00
   ------------------------------------------------------------------------

         :::::::::::::::::::::::::::::::::::::::::::::::::::::
         ::                  THERMODYNAMIC                  ::
         :::::::::::::::::::::::::::::::::::::::::::::::::::::
         :: total free energy        -177.188942414407 Eh   ::
         ::.................................................::
         :: total energy             -177.975556955101 Eh   ::
         :: zero point energy           0.871368992145 Eh   ::
         :: G(RRHO) w/o ZPVE           -0.084754451452 Eh   ::
         :: G(RRHO) contrib.            0.786614540693 Eh   ::
         :::::::::::::::::::::::::::::::::::::::::::::::::::::

           -------------------------------------------------
          | TOTAL ENERGY             -177.975556955101 Eh   |
          | TOTAL ENTHALPY           -177.047355502520 Eh   |
          | TOTAL FREE ENERGY        -177.188942414407 Eh   |
          | GRADIENT NORM               0.000072224609 Eh/α |
          | HOMO-LUMO GAP               0.278811504869 eV   |
           -------------------------------------------------

 * finished run on 2025/08/22 at 10:50:10.571
