   * xtb version 6.7.1 (edcfbbe) compiled by 'albert@albert-system' on 2024-07-22

   ID    Z sym.   atoms
    1    6 C      1-5, 7-20, 22-25, 27-35, 37-52, 54-71
    2    7 N      6, 21, 26, 36, 53
    3    1 H      72-114

          program call               : xtb data2507/toluene/TPA-DPPI/TPA-DPPI.xyz --gfn 2 --gbsa toluene --ohess vtight --parallel 40 --molden --ceasefiles --namespace data2507/toluene/TPA-DPPI/TPA-DPPI_toluene_S0_preOpt
      * Solvation model:               GBSA
        Solvent                        toluene
        Solvent mass                       9.2140E+01 g/mol
          :  Hamiltonian                  GFN2-xTB          :
 * total energy  :  -178.0235433 Eh     change       -0.4302336E-08 Eh
 * total energy  :  -178.0421886 Eh     change       -0.1864532E-01 Eh
 * total energy  :  -178.0485601 Eh     change       -0.6371435E-02 Eh
 * total energy  :  -178.0506024 Eh     change       -0.2042358E-02 Eh
 * total energy  :  -178.0516811 Eh     change       -0.1078647E-02 Eh
 * total energy  :  -178.0522014 Eh     change       -0.5202799E-03 Eh
 * total energy  :  -178.0525771 Eh     change       -0.3757661E-03 Eh
 * total energy  :  -178.0529116 Eh     change       -0.3345085E-03 Eh
 * total energy  :  -178.0532538 Eh     change       -0.3421944E-03 Eh
 * total energy  :  -178.0536023 Eh     change       -0.3484684E-03 Eh
 * total energy  :  -178.0581905 Eh     change       -0.6794917E-06 Eh
 * total energy  :  -178.0581910 Eh     change       -0.5686567E-06 Eh
 * total energy  :  -178.0581915 Eh     change       -0.4757780E-06 Eh
 * total energy  :  -178.0581920 Eh     change       -0.5228320E-06 Eh
 * total energy  :  -178.0581927 Eh     change       -0.6083487E-06 Eh
 * total energy  :  -178.0581934 Eh     change       -0.7313102E-06 Eh
 * total energy  :  -178.0581941 Eh     change       -0.7070853E-06 Eh
 * total energy  :  -178.0581947 Eh     change       -0.5810027E-06 Eh
 * total energy  :  -178.0581947 Eh     change       -0.4412044E-08 Eh
   *** GEOMETRY OPTIMIZATION CONVERGED AFTER 221 ITERATIONS ***

 final structure:
================
114
 xtb: 6.7.1 (edcfbbe)
C            2.78802506692333       -1.91095717327979        1.92139775367313
C            2.02319301639287       -1.40426731628699        0.88422631395434
C            0.75906185997154       -1.90809084588873        0.63439337963574
C            0.24869605877041       -2.94111631059209        1.41808724271208
C           -1.03590922658985       -3.57589300847761        1.16576632405018
N           -1.23570989614909       -4.85247099935363        1.38831688081686
C           -2.51842225264099       -5.10559823252262        1.02064099165835
C           -3.20882188837405       -6.34951015060676        1.06416991106785
C           -2.57865677367968       -7.51396637488844        1.51708007087047
C           -3.26099887492162       -8.70454798518609        1.55017191818306
C           -4.58850020385864       -8.74356680059409        1.12715091689017
C           -5.21786881546244       -7.60501821149068        0.68037951108038
C           -4.55483233148018       -6.36840084639334        0.63220276056139
C           -5.19265584651008       -5.14810000601906        0.16711302980858
C           -6.52756001306986       -5.13614729151633       -0.26356060119238
C           -7.14224249036272       -3.98977060522050       -0.70920122897039
C           -6.44004495045127       -2.78917722267156       -0.74067877716793
C           -5.13258866948850       -2.75673450995571       -0.32231818269500
C           -4.48371352704363       -3.91486379651524        0.13044966949638
C           -3.12820816145272       -3.93887558713829        0.56542225393297
N           -2.15892648585405       -2.96076467751143        0.65675253800807
C           -2.33387297441772       -1.57553165169885        0.43870826378863
C           -2.22182316842644       -1.04374293079145       -0.84276385294734
C           -2.43568128682800        0.30535267241123       -1.04874876927093
C           -2.77525931758879        1.12769912637986        0.02094448091861
N           -2.99823130253711        2.50130847433422       -0.21564966490933
C           -2.01041564647299        3.39575763386244       -0.56552441333709
C           -0.59369100469268        3.06133469995488       -0.54170935993582
C           -0.03522594988618        2.37554698289676        0.53499691760346
C            1.31257466354385        2.08453613197822        0.55430520106072
C            2.13815111706245        2.44615148553550       -0.50925069333941
C            3.56124678897123        2.08343141596620       -0.50102926552930
C            4.32211860343592        2.18786375930653        0.66298959278897
C            5.65126354574381        1.82159352041128        0.67899055497727
C            6.26416900009438        1.32866441219624       -0.47435962743140
N            7.60676005184752        0.94184426619865       -0.45936322772795
C            8.01988163871806       -0.17584517208469       -1.19675967123319
C            7.20538833775512       -1.30506758316459       -1.28426216845914
C            7.61754385802695       -2.40647242679569       -2.00957525808437
C            8.84580394363496       -2.40524675364684       -2.65096678334286
C            9.65944870472971       -1.28677760588894       -2.56580811539627
C            9.25212754728277       -0.17714120275056       -1.85019240811965
C            8.53825144292707        1.66714362860093        0.29423401127489
C            8.44386744691298        3.05596334417046        0.38752518615736
C            9.36366562957327        3.76812324022374        1.13297758372806
C           10.39463078759774        3.11364436198835        1.78785525115555
C           10.49528561966854        1.73469821407539        1.69541819184815
C            9.57466438399080        1.01277744683802        0.96027983951757
C            5.50806360665184        1.22674292065138       -1.64333194148579
C            4.18135995634500        1.60203347160033       -1.65358995945807
C            1.57723784701380        3.14640346784604       -1.57741462551244
C            0.23437267107541        3.46353685477354       -1.58805863469783
N           -2.49219671868019        4.57199124449904       -0.87281009337679
C           -3.84236277671824        4.47152504168589       -0.72469690969670
C           -4.81895930666624        5.48844422997003       -0.91724153029212
C           -4.45271277773028        6.78373745629376       -1.30033762637773
C           -5.40819757477658        7.75495276693681       -1.46696253937093
C           -6.74842790324155        7.44046382200434       -1.24812818508550
C           -7.12024541528115        6.17032869222064       -0.87362996718060
C           -6.17390340341979        5.14842014341178       -0.69654017381491
C           -6.53766635655128        3.79503901312563       -0.31246458995795
C           -7.87445272511828        3.42002395719664       -0.11206272489095
C           -8.22889384634251        2.13978652505067        0.24295755576248
C           -7.25057958358183        1.16384606893752        0.40696963358896
C           -5.93010595112410        1.48898295047390        0.21766649756567
C           -5.54556935179633        2.79209593641198       -0.12996615164375
C           -4.19152726498750        3.18365138130828       -0.32459193321436
C           -2.86637358571310        0.59985009215030        1.30523670172316
C           -2.64073480105612       -0.74751665747964        1.51361109841825
C            1.03324242240189       -3.45614783557337        2.45261123761633
C            2.28837404456613       -2.93947118117250        2.70551120363398
H            3.77293806334792       -1.51195446927440        2.11347970889916
H            2.41401752146021       -0.61642759442987        0.25779894064369
H            0.18649988248235       -1.51090843760706       -0.18900010961320
H           -1.54915626074024       -7.44063370806557        1.83316793220754
H           -2.77761966498727       -9.60525519260886        1.89899473126329
H           -5.13014216223328       -9.67826879892908        1.15007155359033
H           -6.24553217129984       -7.68512172036075        0.36384921839067
H           -7.10213651073615       -6.04791242536033       -0.25139057586487
H           -8.17171068580761       -4.02197756179404       -1.03461268399662
H           -6.91744614376227       -1.88670290395373       -1.09273569644809
H           -4.59478582136312       -1.82320250261316       -0.34537518219278
H           -1.98667557785080       -1.69319420947014       -1.67328854800980
H           -2.35566619736150        0.72601702917501       -2.03981385682882
H           -0.65207953118123        2.08665332193814        1.37250667109022
H            1.72554551756107        1.55024555663525        1.39660550223566
H            3.86784588966474        2.57237991540023        1.56429202609426
H            6.22575436553931        1.90904971930793        1.58968539209098
H            6.25099743427360       -1.31411049246166       -0.77807088226788
H            6.97799483192300       -3.27547974014535       -2.06592925818715
H            9.16650620949095       -3.26942320755098       -3.21327047254745
H           10.61609291930018       -1.27417965739378       -3.06776180136969
H            9.88494291270439        0.69666233836921       -1.79256858424026
H            7.64748245243131        3.57062613524318       -0.13039847943337
H            9.27987137908153        4.84353108807383        1.19482753785851
H           11.11398222685747        3.67398868418555        2.36604940874684
H           11.29242294513147        1.21496333261453        2.20710696479748
H            9.65097453822652       -0.06312468779930        0.89789961265908
H            5.97101803794300        0.85084172095347       -2.54405372885560
H            3.61017487090218        1.50383047558896       -2.56519619580969
H            2.20670577055440        3.46196995610824       -2.39640085152399
H           -0.19386834155934        4.02028233209104       -2.40800740047978
H           -3.40377022366001        6.98683268027524       -1.45434529758001
H           -5.12834495655079        8.75567088117902       -1.76174900410655
H           -7.50425838668979        8.20228170046522       -1.37456347237733
H           -8.16871070302546        5.97476187312730       -0.71486264312227
H           -8.65963862536335        4.14740230358409       -0.23901913380894
H           -9.26940574826111        1.89065048840160        0.39117446436518
H           -7.52608364842443        0.15642656778219        0.68190200169543
H           -5.17513108492034        0.72866486261243        0.33674921181356
H           -3.12869878519606        1.24388885673610        2.13170475211663
H           -2.71659297292347       -1.16685958726637        2.50556854442894
H            0.63741341489352       -4.26802197598386        3.04305888964917
H            2.88257275959294       -3.34335584718101        3.51196298034805

          :  Hamiltonian                  GFN2-xTB          :
         :: gradient norm              0.000048126468 Eh/a0 ::
         :: HOMO-LUMO gap              2.254782162663 eV    ::
         :: SCC energy              -181.401490669768 Eh    ::
         :: -> dispersion             -0.173720136886 Eh    ::
         :: -> Gsolv                  -0.072126718979 Eh    ::
         :: repulsion energy           3.343295991284 Eh    ::

    * Orbital Energies and Occupations

         #    Occupation            Energy/Eh            Energy/eV
      -------------------------------------------------------------
         1        2.0000           -0.6934600             -18.8700
       ...           ...                  ...                  ...
       154        2.0000           -0.4075702             -11.0906
       155        2.0000           -0.4049382             -11.0189
       156        2.0000           -0.4048470             -11.0164
       157        2.0000           -0.4040467             -10.9947
       158        2.0000           -0.4021864             -10.9440
       159        2.0000           -0.3952551             -10.7554
       160        2.0000           -0.3862531             -10.5105
       161        2.0000           -0.3857914             -10.4979
       162        2.0000           -0.3846311             -10.4663
       163        2.0000           -0.3820569             -10.3963
       164        2.0000           -0.3688126             -10.0359
       165        2.0000           -0.3686033             -10.0302
       166        2.0000           -0.3495589              -9.5120 (HOMO)
       167                         -0.2666972              -7.2572 (LUMO)
       168                         -0.2635478              -7.1715
       169                         -0.2610526              -7.1036
       170                         -0.2585418              -7.0353
       171                         -0.2527625              -6.8780
       172                         -0.2521209              -6.8606
       173                         -0.2493937              -6.7863
       174                         -0.2445601              -6.6548
       175                         -0.2305086              -6.2725
       176                         -0.2300969              -6.2613
       177                         -0.2291261              -6.2348
       ...                                ...                  ...
       327                          0.7236815              19.6924
      -------------------------------------------------------------
                  HL-Gap            0.0828617 Eh            2.2548 eV

     #   Z          covCN         q      C6AA      α(0)
     1   6 C        2.919    -0.028    28.689     8.784
     2   6 C        2.919    -0.029    28.718     8.788
     3   6 C        2.922    -0.037    28.918     8.819
     4   6 C        2.974    -0.002    28.071     8.691
     5   6 C        3.182     0.134    24.683     8.109
     6   7 N        1.897    -0.312    28.934     7.975
     7   6 C        3.200     0.060    26.117     8.328
     8   6 C        2.985    -0.002    28.078     8.692
     9   6 C        2.921    -0.033    28.823     8.804
    10   6 C        2.917    -0.031    28.778     8.797
    11   6 C        2.917    -0.034    28.838     8.806
    12   6 C        2.921    -0.036    28.899     8.816
    13   6 C        2.979    -0.004    28.123     8.699
    14   6 C        2.979    -0.000    28.032     8.685
    15   6 C        2.922    -0.035    28.860     8.810
    16   6 C        2.916    -0.034    28.835     8.806
    17   6 C        2.917    -0.032    28.798     8.800
    18   6 C        2.919    -0.041    29.027     8.835
    19   6 C        2.977    -0.005    28.150     8.703
    20   6 C        3.072     0.021    27.470     8.594
    21   7 N        2.839    -0.055    22.305     7.014
    22   6 C        2.911     0.070    26.427     8.430
    23   6 C        2.920    -0.032    28.806     8.801
    24   6 C        2.922    -0.035    28.883     8.813
    25   6 C        2.912     0.070    26.435     8.431
    26   7 N        2.841    -0.056    22.316     7.016
    27   6 C        3.194     0.136    24.565     8.082
    28   6 C        2.974    -0.006    28.164     8.705
    29   6 C        2.922    -0.037    28.916     8.818
    30   6 C        2.924    -0.035    28.875     8.812
    31   6 C        2.976     0.014    27.704     8.634
    32   6 C        2.976     0.000    28.013     8.682
    33   6 C        2.923    -0.034    28.843     8.807
    34   6 C        2.920    -0.048    29.198     8.861
    35   6 C        2.923     0.065    26.541     8.448
    36   7 N        2.752    -0.078    22.750     7.084
    37   6 C        2.923     0.065    26.539     8.448
    38   6 C        2.922    -0.048    29.189     8.860
    39   6 C        2.919    -0.030    28.752     8.793
    40   6 C        2.919    -0.039    28.968     8.826
    41   6 C        2.919    -0.030    28.752     8.793
    42   6 C        2.922    -0.048    29.185     8.859
    43   6 C        2.923     0.065    26.540     8.448
    44   6 C        2.922    -0.048    29.196     8.861
    45   6 C        2.919    -0.030    28.753     8.793
    46   6 C        2.919    -0.039    28.975     8.827
    47   6 C        2.919    -0.030    28.753     8.793
    48   6 C        2.922    -0.048    29.192     8.860
    49   6 C        2.920    -0.048    29.200     8.861
    50   6 C        2.924    -0.034    28.856     8.809
    51   6 C        2.923    -0.034    28.835     8.806
    52   6 C        2.923    -0.029    28.731     8.790
    53   7 N        1.892    -0.313    28.970     7.979
    54   6 C        3.209     0.060    26.063     8.312
    55   6 C        2.985    -0.002    28.078     8.692
    56   6 C        2.921    -0.033    28.827     8.805
    57   6 C        2.917    -0.031    28.780     8.797
    58   6 C        2.917    -0.034    28.841     8.807
    59   6 C        2.921    -0.036    28.900     8.816
    60   6 C        2.978    -0.004    28.128     8.700
    61   6 C        2.979    -0.001    28.037     8.686
    62   6 C        2.922    -0.035    28.860     8.810
    63   6 C        2.916    -0.034    28.838     8.806
    64   6 C        2.917    -0.032    28.799     8.800
    65   6 C        2.919    -0.041    29.022     8.834
    66   6 C        2.978    -0.005    28.150     8.703
    67   6 C        3.072     0.020    27.477     8.595
    68   6 C        2.920    -0.032    28.797     8.800
    69   6 C        2.921    -0.035    28.863     8.810
    70   6 C        2.929    -0.028    28.708     8.787
    71   6 C        2.918    -0.027    28.678     8.782
    72   1 H        0.926     0.040     2.449     2.447
    73   1 H        0.926     0.040     2.455     2.450
    74   1 H        0.926     0.028     2.609     2.526
    75   1 H        0.926     0.045     2.388     2.417
    76   1 H        0.926     0.034     2.534     2.490
    77   1 H        0.926     0.033     2.543     2.494
    78   1 H        0.926     0.036     2.508     2.476
    79   1 H        0.926     0.039     2.466     2.456
    80   1 H        0.926     0.034     2.533     2.489
    81   1 H        0.926     0.032     2.552     2.498
    82   1 H        0.926     0.024     2.676     2.558
    83   1 H        0.926     0.057     2.235     2.338
    84   1 H        0.926     0.053     2.278     2.360
    85   1 H        0.926     0.028     2.620     2.531
    86   1 H        0.926     0.042     2.418     2.432
    87   1 H        0.926     0.037     2.487     2.466
    88   1 H        0.926     0.034     2.530     2.487
    89   1 H        0.926     0.032     2.553     2.499
    90   1 H        0.926     0.033     2.538     2.491
    91   1 H        0.926     0.032     2.562     2.503
    92   1 H        0.926     0.033     2.542     2.493
    93   1 H        0.926     0.032     2.562     2.503
    94   1 H        0.926     0.032     2.560     2.502
    95   1 H        0.926     0.033     2.542     2.493
    96   1 H        0.926     0.032     2.565     2.504
    97   1 H        0.926     0.033     2.543     2.494
    98   1 H        0.926     0.032     2.562     2.503
    99   1 H        0.926     0.034     2.535     2.490
   100   1 H        0.926     0.036     2.497     2.471
   101   1 H        0.926     0.043     2.414     2.430
   102   1 H        0.926     0.042     2.427     2.436
   103   1 H        0.926     0.044     2.392     2.419
   104   1 H        0.926     0.033     2.538     2.491
   105   1 H        0.926     0.033     2.546     2.495
   106   1 H        0.926     0.036     2.509     2.477
   107   1 H        0.926     0.038     2.471     2.458
   108   1 H        0.926     0.034     2.535     2.490
   109   1 H        0.926     0.032     2.552     2.498
   110   1 H        0.926     0.025     2.662     2.551
   111   1 H        0.926     0.058     2.228     2.334
   112   1 H        0.926     0.055     2.261     2.352
   113   1 H        0.926     0.048     2.350     2.397
   114   1 H        0.926     0.042     2.422     2.434

molecular dipole:
                 x           y           z       tot (Debye)
 q only:        0.755      -0.083       0.081
   full:        0.332      -0.109       0.031       0.891

 projected vibrational frequencies (cm⁻¹)
eigval :       -0.00    -0.00    -0.00     0.00     0.00     0.00
eigval :        2.10     4.57     7.82    14.08    15.74    19.57
eigval :       20.93    27.68    30.59    34.81    39.42    48.10
eigval :       49.39    53.74    58.73    66.61    69.86    70.66
eigval :       74.88    79.81    82.31    85.73    90.58    95.57
eigval :      109.97   118.82   123.97   128.96   135.90   144.58
eigval :      163.70   172.84   178.81   198.66   210.99   211.75
eigval :      223.79   226.18   235.76   238.61   249.54   259.28
eigval :      269.57   281.42   284.00   293.12   313.47   316.50
eigval :      331.49   337.40   341.49   364.90   371.13   375.20
eigval :      376.09   377.19   379.85   381.06   385.92   391.85
eigval :      396.02   399.42   401.34   401.59   414.95   424.22
eigval :      433.84   437.15   439.63   447.20   455.55   471.48
eigval :      472.68   481.58   486.89   492.11   507.55   514.35
eigval :      516.83   522.42   533.58   534.11   535.57   536.56
eigval :      556.80   583.42   584.37   585.39   586.10   587.40
eigval :      592.70   600.18   608.92   612.33   618.09   626.65
eigval :      643.34   646.00   649.89   653.55   657.61   659.28
eigval :      663.69   665.41   670.32   674.08   677.75   680.37
eigval :      681.52   684.58   687.83   699.00   707.06   710.55
eigval :      729.30   733.19   733.68   751.01   755.15   757.22
eigval :      764.31   765.46   766.59   768.50   782.28   784.66
eigval :      785.77   798.46   805.62   831.08   832.26   861.14
eigval :      864.46   867.97   868.66   873.87   874.62   874.99
eigval :      877.28   878.55   880.67   890.26   892.55   905.16
eigval :      906.43   909.21   910.10   913.01   914.13   915.24
eigval :      916.44   917.88   919.48   923.46   926.32   926.57
eigval :      927.27   927.79   928.52   929.07   929.50   929.94
eigval :      930.55   931.73   933.49   937.37   939.39   940.72
eigval :      944.58   962.80   979.82   988.79  1003.86  1006.58
eigval :     1011.35  1017.66  1023.38  1032.31  1067.42  1068.29
eigval :     1080.12  1081.98  1082.75  1082.86  1084.59  1085.26
eigval :     1105.60  1107.33  1120.29  1121.06  1122.84  1126.03
eigval :     1129.41  1134.60  1137.82  1145.57  1149.66  1150.85
eigval :     1170.47  1172.00  1178.04  1178.69  1179.27  1179.84
eigval :     1180.28  1181.56  1182.40  1184.95  1185.59  1193.78
eigval :     1194.60  1197.21  1201.86  1203.32  1210.65  1214.85
eigval :     1249.34  1253.59  1254.13  1257.18  1258.82  1268.15
eigval :     1271.88  1277.08  1277.42  1279.16  1280.58  1282.82
eigval :     1285.39  1297.54  1300.19  1305.42  1308.13  1314.96
eigval :     1316.74  1321.03  1323.28  1324.04  1325.05  1329.72
eigval :     1333.04  1335.55  1338.12  1344.69  1347.40  1361.06
eigval :     1386.46  1395.23  1403.60  1405.92  1406.43  1412.86
eigval :     1414.06  1421.48  1424.87  1428.89  1432.35  1433.93
eigval :     1434.36  1437.78  1440.65  1455.56  1462.36  1469.91
eigval :     1472.78  1486.06  1496.35  1508.94  1512.36  1512.93
eigval :     1516.82  1539.35  1547.41  1552.11  1559.21  1559.51
eigval :     1561.03  1564.45  1566.00  1569.84  1575.63  1579.43
eigval :     1580.40  1587.34  1589.83  1591.36  1592.89  1593.42
eigval :     1595.15  1597.22  1602.97  1603.38  1604.42  3070.65
eigval :     3070.88  3071.52  3071.97  3072.72  3073.42  3074.58
eigval :     3075.18  3076.03  3077.11  3078.23  3081.05  3081.44
eigval :     3081.60  3081.70  3082.34  3082.99  3084.22  3084.64
eigval :     3084.69  3085.48  3086.24  3087.71  3087.83  3089.50
eigval :     3090.60  3092.41  3093.12  3093.89  3093.95  3096.60
eigval :     3096.73  3097.23  3098.83  3098.96  3099.52  3100.57
eigval :     3101.81  3105.96  3110.28  3111.30  3116.28  3124.15

   temp. (K)  partition function   enthalpy   heat capacity  entropy
                                   cal/mol     cal/K/mol   cal/K/mol   J/K/mol
 298.15  VIB  0.208E+29            33162.972    207.016    211.382
         ROT  0.320E+09              888.752      2.981     41.901
         INT  0.667E+37            34051.725    209.997    253.282
         TR   0.264E+29             1481.254      4.968     46.267
         TOT                       35532.9786   214.9653   299.5488  1253.3120

       T/K    H(0)-H(T)+PV         H(T)/Eh          T*S/Eh         G(T)/Eh
   ------------------------------------------------------------------------
    298.15    0.566254E-01    0.931815E+00    0.142325E+00    0.789489E+00
   ------------------------------------------------------------------------

         :::::::::::::::::::::::::::::::::::::::::::::::::::::
         ::                  THERMODYNAMIC                  ::
         :::::::::::::::::::::::::::::::::::::::::::::::::::::
         :: total free energy        -177.268705437334 Eh   ::
         ::.................................................::
         :: total energy             -178.058194680666 Eh   ::
         :: zero point energy           0.875189122584 Eh   ::
         :: G(RRHO) w/o ZPVE           -0.085699879252 Eh   ::
         :: G(RRHO) contrib.            0.789489243332 Eh   ::
         :::::::::::::::::::::::::::::::::::::::::::::::::::::

           -------------------------------------------------
          | TOTAL ENERGY             -178.058194680666 Eh   |
          | TOTAL ENTHALPY           -177.126380152343 Eh   |
          | TOTAL FREE ENERGY        -177.268705437334 Eh   |
          | GRADIENT NORM               0.000048127777 Eh/α |
          | HOMO-LUMO GAP               2.254781929319 eV   |
           -------------------------------------------------

 * finished run on 2025/08/22 at 10:38:01.258
