   * xtb version 6.7.1 (edcfbbe) compiled by 'albert@albert-system' on 2024-07-22

   ID    Z sym.   atoms
    1    6 C      1-6, 8-47
    2    7 N      7
    3    1 H      48-80

          program call               : xtb data2507/toluene/9CzTPE/9CzTPE.xyz --gfn 2 --gbsa toluene --ohess vtight --parallel 40 --molden --ceasefiles --namespace data2507/toluene/9CzTPE/9CzTPE_toluene_S0_preOpt
      * Solvation model:               GBSA
        Solvent                        toluene
        Solvent mass                       9.2140E+01 g/mol
          :  Hamiltonian                  GFN2-xTB          :
 * total energy  :  -118.2552180 Eh     change       -0.1437101E-08 Eh
 * total energy  :  -118.2665721 Eh     change       -0.1135405E-01 Eh
 * total energy  :  -118.2691846 Eh     change       -0.2612582E-02 Eh
 * total energy  :  -118.2702662 Eh     change       -0.1081558E-02 Eh
 * total energy  :  -118.2716742 Eh     change       -0.1408035E-02 Eh
 * total energy  :  -118.2727111 Eh     change       -0.1036902E-02 Eh
 * total energy  :  -118.2736485 Eh     change       -0.9373079E-03 Eh
 * total energy  :  -118.2745425 Eh     change       -0.8940988E-03 Eh
 * total energy  :  -118.2753190 Eh     change       -0.7764845E-03 Eh
 * total energy  :  -118.2759628 Eh     change       -0.6437431E-03 Eh
 * total energy  :  -118.2787713 Eh     change       -0.3118324E-06 Eh
 * total energy  :  -118.2787716 Eh     change       -0.2701202E-06 Eh
 * total energy  :  -118.2787718 Eh     change       -0.1925840E-06 Eh
 * total energy  :  -118.2787719 Eh     change       -0.1485344E-06 Eh
 * total energy  :  -118.2787721 Eh     change       -0.1528649E-06 Eh
 * total energy  :  -118.2787722 Eh     change       -0.1715215E-06 Eh
 * total energy  :  -118.2787724 Eh     change       -0.1950391E-06 Eh
 * total energy  :  -118.2787726 Eh     change       -0.1987631E-06 Eh
 * total energy  :  -118.2787726 Eh     change       -0.1345285E-08 Eh
   *** GEOMETRY OPTIMIZATION CONVERGED AFTER 94 ITERATIONS ***

 final structure:
================
80
 xtb: 6.7.1 (edcfbbe)
C            0.80098016956087       -0.46157238290718        0.58588010539553
C            1.69363299556975       -0.14151980286816       -0.36432777840881
C            3.13713070132449       -0.16686298069445       -0.23697765155099
C            3.91639517503846        0.13068437921016       -1.36112572525800
C            5.29373176452308        0.12895627077874       -1.30455372293776
C            5.94209173128009       -0.17739148304740       -0.11074473756160
N            7.34316476181305       -0.18158015634169       -0.04450746369182
C            8.19023330820209       -0.85659607409531       -0.90039531677483
C            7.88712113441174       -1.70288554105776       -1.95811862296441
C            8.93816003939540       -2.27846024000554       -2.64622736497108
C           10.26299075843666       -2.02966591244970       -2.29199585651409
C           10.57038398534921       -1.20770401168771       -1.22589780844532
C            9.53091317436972       -0.61764916161212       -0.51782169965289
C            9.47974618511167        0.25129239944421        0.62483716527844
C           10.45196109913779        0.84061914852569        1.42327951272690
C           10.05075544116418        1.66439121737153        2.45628243208807
C            8.69970094802995        1.91524974239397        2.68932832212043
C            7.71420325207385        1.34072823260597        1.90944068214096
C            8.11030660214841        0.49273336845901        0.88429595694908
C            5.18215327062483       -0.47779263276234        1.01773264530570
C            3.80509728228549       -0.46909911040498        0.95430823335418
C           -0.64198902804201       -0.43157236099449        0.45788097028025
C           -1.30975565250947       -0.01406492188972       -0.69867132740820
C           -2.68552824195208        0.00893303807475       -0.75715260351058
C           -3.45828167003745       -0.38791348278817        0.33519490031481
C           -4.92726361548618       -0.38526743061481        0.27165917947486
C           -5.63026456713051        0.65634841414989       -0.22838600571429
C           -5.00327710415839        1.94715085700647       -0.56153142036544
C           -5.32551123419742        2.59553400940317       -1.75284947390954
C           -4.75596915517018        3.81569661628523       -2.06617757264945
C           -3.86704585107833        4.41531485798240       -1.18893005422182
C           -3.55467558933311        3.78837105653622        0.00667772599886
C           -4.11761975978694        2.56555461587107        0.31959136286229
C           -7.08074299241106        0.58312165583309       -0.47565527560350
C           -7.64182181677687       -0.50701563046505       -1.13862470552298
C           -9.00060488153740       -0.55446974917330       -1.38643309706291
C           -9.82156320881805        0.48419767417849       -0.97744813433506
C           -9.27238680797044        1.57817485071104       -0.32867443586191
C           -7.91232739027452        1.63200800381443       -0.08662506368950
C           -5.57977934592704       -1.60015343058062        0.79181722597713
C           -6.66316094600329       -1.51731990189136        1.66457269177528
C           -7.25432648981904       -2.66415489051651        2.16020445342999
C           -6.77429530139275       -3.91146097120189        1.79420348123389
C           -5.68944047416072       -4.00473090698286        0.93772545944922
C           -5.09162219850833       -2.85915882953945        0.44616175154817
C           -2.80021657767954       -0.83128039043095        1.48258390089327
C           -1.42376374870343       -0.84188432158575        1.54411893478611
H            1.15252379679215       -0.78229586232636        1.55783408108112
H            1.34106060789171        0.16558099997918       -1.34000656275833
H            3.42669618985648        0.37412541479903       -2.29354865643869
H            5.87703370984253        0.37890337740646       -2.17858334758858
H            6.86375058917025       -1.91413120574995       -2.22982684847623
H            8.72819974493282       -2.93911706285542       -3.47495604664756
H           11.05703338512020       -2.49620506398412       -2.85671568596986
H           11.59685410140877       -1.02796537907557       -0.94241356705353
H           11.49953344765148        0.65922791324026        1.23354457419993
H           10.79135988433076        2.13063721568190        3.08967769012326
H            8.41677587533539        2.57677680687313        3.49540505595614
H            6.67090206499385        1.55423043881589        2.08719566743709
H            5.68238793532960       -0.73078563155070        1.94113642758745
H            3.24296636725789       -0.70512163748376        1.84423910284100
H           -0.74727471005167        0.29825149360890       -1.56498203660521
H           -3.17767655481727        0.32682914900603       -1.66490297241362
H           -6.01796656632362        2.12903484687017       -2.43980895989854
H           -5.00818024621889        4.30218845888351       -2.99773290885432
H           -3.42414469827343        5.36999873333932       -1.43299222392539
H           -2.87079193132391        4.25648060276365        0.70025399741350
H           -3.88092604577084        2.08660671282588        1.25850209579624
H           -7.00350451670578       -1.31344435743037       -1.46921585174053
H           -9.42127630512125       -1.40493503573430       -1.90373651463324
H          -10.88413201970711        0.44349771734903       -1.16838110041597
H           -9.90663185266891        2.39408898096994       -0.01225655263744
H           -7.48601142996940        2.48638761384265        0.42066944182883
H           -7.03340346825920       -0.54693058627126        1.96171606186798
H           -8.09227238740265       -2.58466233543628        2.83797792683415
H           -7.24013995849269       -4.80685896883096        2.17948907243629
H           -5.30683213999477       -4.97442605805270        0.65248309167772
H           -4.24624911887292       -2.93428919875376       -0.22382471143333
H           -3.38148769970218       -1.15186832306447        2.33611326769488
H           -0.93580018124688       -1.17564446970271        2.44971981788630

          :  Hamiltonian                  GFN2-xTB          :
         :: gradient norm              0.000033352709 Eh/a0 ::
         :: HOMO-LUMO gap              2.198528044256 eV    ::
         :: SCC energy              -120.585018551505 Eh    ::
         :: -> dispersion             -0.108817518130 Eh    ::
         :: -> Gsolv                  -0.049059159580 Eh    ::
         :: repulsion energy           2.306245909021 Eh    ::

    * Orbital Energies and Occupations

         #    Occupation            Energy/Eh            Energy/eV
      -------------------------------------------------------------
         1        2.0000           -0.6751068             -18.3706
       ...           ...                  ...                  ...
        99        2.0000           -0.4112597             -11.1909
       100        2.0000           -0.4075895             -11.0911
       101        2.0000           -0.4067990             -11.0696
       102        2.0000           -0.4062140             -11.0536
       103        2.0000           -0.4043932             -11.0041
       104        2.0000           -0.4032174             -10.9721
       105        2.0000           -0.4015168             -10.9258
       106        2.0000           -0.4003928             -10.8952
       107        2.0000           -0.3978271             -10.8254
       108        2.0000           -0.3800579             -10.3419
       109        2.0000           -0.3778250             -10.2811
       110        2.0000           -0.3640033              -9.9050
       111        2.0000           -0.3562780              -9.6948 (HOMO)
       112                         -0.2754836              -7.4963 (LUMO)
       113                         -0.2561873              -6.9712
       114                         -0.2440177              -6.6401
       115                         -0.2284257              -6.2158
       116                         -0.2265078              -6.1636
       117                         -0.2253103              -6.1310
       118                         -0.2220665              -6.0427
       119                         -0.2212240              -6.0198
       120                         -0.2202144              -5.9923
       121                         -0.2193513              -5.9689
       122                         -0.2173755              -5.9151
       ...                                ...                  ...
       221                          0.7451700              20.2771
      -------------------------------------------------------------
                  HL-Gap            0.0807944 Eh            2.1985 eV

     #   Z          covCN         q      C6AA      α(0)
     1   6 C        2.901    -0.039    28.960     8.824
     2   6 C        2.901    -0.041    29.006     8.831
     3   6 C        2.969     0.012    27.744     8.640
     4   6 C        2.929    -0.035    28.862     8.810
     5   6 C        2.918    -0.043    29.076     8.843
     6   6 C        2.913     0.061    26.624     8.461
     7   7 N        2.801    -0.046    22.130     6.987
     8   6 C        3.076     0.048    26.853     8.496
     9   6 C        2.909    -0.052    29.287     8.874
    10   6 C        2.924    -0.035    28.878     8.813
    11   6 C        2.919    -0.043    29.067     8.841
    12   6 C        2.912    -0.035    28.874     8.811
    13   6 C        3.067    -0.019    28.412     8.740
    14   6 C        3.067    -0.019    28.412     8.740
    15   6 C        2.912    -0.035    28.874     8.811
    16   6 C        2.919    -0.043    29.067     8.841
    17   6 C        2.924    -0.035    28.878     8.813
    18   6 C        2.909    -0.052    29.287     8.874
    19   6 C        3.076     0.048    26.854     8.496
    20   6 C        2.919    -0.043    29.072     8.842
    21   6 C        2.923    -0.034    28.842     8.807
    22   6 C        2.969     0.012    27.755     8.642
    23   6 C        2.922    -0.035    28.868     8.811
    24   6 C        2.921    -0.033    28.823     8.804
    25   6 C        2.978     0.014    27.695     8.632
    26   6 C        2.966    -0.006    28.162     8.705
    27   6 C        2.967    -0.006    28.163     8.705
    28   6 C        2.978     0.015    27.669     8.628
    29   6 C        2.925    -0.033    28.816     8.803
    30   6 C        2.918    -0.031    28.766     8.795
    31   6 C        2.920    -0.032    28.798     8.800
    32   6 C        2.918    -0.030    28.756     8.794
    33   6 C        2.924    -0.032    28.806     8.802
    34   6 C        2.978     0.015    27.671     8.629
    35   6 C        2.924    -0.032    28.809     8.802
    36   6 C        2.918    -0.030    28.759     8.794
    37   6 C        2.920    -0.032    28.800     8.800
    38   6 C        2.918    -0.031    28.767     8.795
    39   6 C        2.925    -0.033    28.816     8.803
    40   6 C        2.978     0.015    27.671     8.629
    41   6 C        2.924    -0.032    28.809     8.802
    42   6 C        2.918    -0.030    28.759     8.794
    43   6 C        2.920    -0.032    28.800     8.800
    44   6 C        2.918    -0.031    28.767     8.795
    45   6 C        2.925    -0.033    28.816     8.803
    46   6 C        2.921    -0.034    28.838     8.806
    47   6 C        2.927    -0.036    28.892     8.815
    48   1 H        0.925     0.038     2.481     2.463
    49   1 H        0.925     0.038     2.473     2.459
    50   1 H        0.926     0.039     2.460     2.453
    51   1 H        0.926     0.040     2.450     2.448
    52   1 H        0.926     0.030     2.591     2.517
    53   1 H        0.926     0.030     2.593     2.518
    54   1 H        0.926     0.027     2.625     2.534
    55   1 H        0.926     0.030     2.592     2.518
    56   1 H        0.926     0.030     2.592     2.518
    57   1 H        0.926     0.027     2.625     2.534
    58   1 H        0.926     0.030     2.592     2.518
    59   1 H        0.926     0.030     2.589     2.516
    60   1 H        0.926     0.040     2.445     2.445
    61   1 H        0.926     0.042     2.425     2.435
    62   1 H        0.926     0.034     2.528     2.486
    63   1 H        0.926     0.029     2.605     2.524
    64   1 H        0.925     0.028     2.619     2.531
    65   1 H        0.926     0.030     2.580     2.512
    66   1 H        0.926     0.031     2.576     2.510
    67   1 H        0.926     0.030     2.582     2.513
    68   1 H        0.926     0.028     2.612     2.527
    69   1 H        0.926     0.028     2.612     2.527
    70   1 H        0.926     0.030     2.584     2.514
    71   1 H        0.926     0.031     2.577     2.510
    72   1 H        0.926     0.030     2.580     2.512
    73   1 H        0.925     0.028     2.620     2.531
    74   1 H        0.926     0.028     2.614     2.528
    75   1 H        0.926     0.030     2.585     2.514
    76   1 H        0.926     0.031     2.578     2.511
    77   1 H        0.926     0.030     2.579     2.511
    78   1 H        0.925     0.028     2.617     2.530
    79   1 H        0.925     0.028     2.618     2.530
    80   1 H        0.925     0.032     2.564     2.504

molecular dipole:
                 x           y           z       tot (Debye)
 q only:       -0.776       0.007      -0.023
   full:       -0.827       0.008      -0.025       2.104

 projected vibrational frequencies (cm⁻¹)
eigval :       -0.00    -0.00     0.00     0.00     0.00     0.00
eigval :        7.88    10.57    17.59    20.75    27.84    35.86
eigval :       44.37    51.40    55.75    60.42    64.84    68.31
eigval :       69.88    70.80    77.79    82.58    91.98   105.69
eigval :      140.16   146.74   152.28   167.02   186.57   201.79
eigval :      206.86   224.83   240.56   245.95   258.40   272.56
eigval :      279.77   284.53   312.10   322.61   362.64   369.50
eigval :      372.33   373.60   375.60   376.03   380.34   387.46
eigval :      401.20   422.41   425.28   435.91   448.99   458.20
eigval :      465.70   495.01   517.15   522.27   534.57   539.36
eigval :      541.70   556.38   579.92   581.28   584.51   588.64
eigval :      592.92   594.96   599.59   612.61   617.40   624.45
eigval :      640.17   668.69   672.66   673.41   675.89   681.04
eigval :      682.77   698.20   704.26   711.60   747.21   755.99
eigval :      756.78   760.43   769.33   777.95   781.40   812.78
eigval :      822.61   828.10   850.13   859.06   863.48   864.10
eigval :      872.51   872.73   874.44   874.67   876.03   894.08
eigval :      897.06   898.31   900.13   900.40   902.23   903.11
eigval :      914.51   916.95   920.89   925.07   925.22   925.78
eigval :      926.71   928.97   929.32   930.42   930.51   932.47
eigval :      941.53   943.88   980.19   992.22   994.44  1009.61
eigval :     1011.05  1018.27  1032.26  1068.26  1072.70  1082.40
eigval :     1084.04  1084.17  1116.83  1120.11  1120.34  1122.40
eigval :     1136.63  1144.13  1150.56  1163.33  1175.60  1179.20
eigval :     1180.31  1180.51  1181.10  1182.75  1191.80  1197.73
eigval :     1197.81  1199.57  1202.84  1216.37  1230.79  1235.21
eigval :     1244.49  1250.42  1267.98  1275.18  1279.62  1281.83
eigval :     1282.58  1290.05  1297.44  1300.33  1301.17  1309.12
eigval :     1313.26  1315.43  1316.82  1319.37  1333.69  1342.01
eigval :     1355.80  1360.46  1366.60  1406.68  1411.60  1427.15
eigval :     1427.55  1428.80  1429.23  1429.72  1465.19  1472.61
eigval :     1474.09  1474.50  1482.58  1486.98  1494.53  1548.57
eigval :     1554.91  1570.62  1572.79  1576.19  1577.09  1578.21
eigval :     1586.46  1587.44  1592.71  1593.38  1596.60  1597.94
eigval :     1611.43  1612.60  1639.42  3054.32  3059.95  3064.66
eigval :     3064.68  3064.98  3065.34  3067.64  3067.78  3068.20
eigval :     3069.85  3070.49  3070.90  3073.37  3073.97  3074.45
eigval :     3074.74  3075.74  3076.78  3077.73  3080.07  3080.81
eigval :     3081.34  3082.21  3083.96  3084.86  3088.06  3088.23
eigval :     3088.57  3089.00  3090.55  3092.90  3093.26  3098.97

   temp. (K)  partition function   enthalpy   heat capacity  entropy
                                   cal/mol     cal/K/mol   cal/K/mol   J/K/mol
 298.15  VIB  0.179E+19            22455.600    140.691    142.197
         ROT  0.119E+09              888.752      2.981     39.933
         INT  0.213E+27            23344.353    143.672    182.130
         TR   0.142E+29             1481.254      4.968     45.037
         TOT                       24825.6068   148.6404   227.1674   950.4685

       T/K    H(0)-H(T)+PV         H(T)/Eh          T*S/Eh         G(T)/Eh
   ------------------------------------------------------------------------
    298.15    0.395621E-01    0.665981E+00    0.107935E+00    0.558046E+00
   ------------------------------------------------------------------------

         :::::::::::::::::::::::::::::::::::::::::::::::::::::
         ::                  THERMODYNAMIC                  ::
         :::::::::::::::::::::::::::::::::::::::::::::::::::::
         :: total free energy        -117.720726332816 Eh   ::
         ::.................................................::
         :: total energy             -118.278772644892 Eh   ::
         :: zero point energy           0.626418758906 Eh   ::
         :: G(RRHO) w/o ZPVE           -0.068372446830 Eh   ::
         :: G(RRHO) contrib.            0.558046312076 Eh   ::
         :::::::::::::::::::::::::::::::::::::::::::::::::::::

           -------------------------------------------------
          | TOTAL ENERGY             -118.278772644892 Eh   |
          | TOTAL ENTHALPY           -117.612791763384 Eh   |
          | TOTAL FREE ENERGY        -117.720726332816 Eh   |
          | GRADIENT NORM               0.000033352564 Eh/α |
          | HOMO-LUMO GAP               2.198528075809 eV   |
           -------------------------------------------------

 * finished run on 2025/08/24 at 18:01:33.779
