   * xtb version 6.7.1 (edcfbbe) compiled by 'albert@albert-system' on 2024-07-22

   ID    Z sym.   atoms
    1    6 C      1-6, 8-47
    2    7 N      7
    3    1 H      48-80

          program call               : xtb data2507/toluene/9CzTPE/9CzTPE_toluene_S0_crest.xyz --gfn 2 --gbsa toluene --ohess vtight --parallel 40 --molden --ceasefiles --namespace data2507/toluene/9CzTPE/9CzTPE_toluene_S0_finalOpt
      * Solvation model:               GBSA
        Solvent                        toluene
        Solvent mass                       9.2140E+01 g/mol
          :  Hamiltonian                  GFN2-xTB          :
 * total energy  :  -118.2786788 Eh     change       -0.2489003E-08 Eh
 * total energy  :  -118.2787129 Eh     change       -0.3412365E-04 Eh
 * total energy  :  -118.2787381 Eh     change       -0.2520887E-04 Eh
 * total energy  :  -118.2787508 Eh     change       -0.1266607E-04 Eh
 * total energy  :  -118.2787650 Eh     change       -0.1428930E-04 Eh
 * total energy  :  -118.2787696 Eh     change       -0.4569773E-05 Eh
 * total energy  :  -118.2787724 Eh     change       -0.2794196E-05 Eh
 * total energy  :  -118.2787742 Eh     change       -0.1757140E-05 Eh
 * total energy  :  -118.2787750 Eh     change       -0.8353866E-06 Eh
 * total energy  :  -118.2787756 Eh     change       -0.5623604E-06 Eh
 * total energy  :  -118.2787778 Eh     change       -0.5136641E-06 Eh
 * total energy  :  -118.2787781 Eh     change       -0.3713842E-06 Eh
 * total energy  :  -118.2787784 Eh     change       -0.2787747E-06 Eh
 * total energy  :  -118.2787786 Eh     change       -0.1897042E-06 Eh
 * total energy  :  -118.2787787 Eh     change       -0.1410099E-06 Eh
 * total energy  :  -118.2787789 Eh     change       -0.1440625E-06 Eh
 * total energy  :  -118.2787790 Eh     change       -0.1453683E-06 Eh
 * total energy  :  -118.2787792 Eh     change       -0.1343397E-06 Eh
 * total energy  :  -118.2787792 Eh     change       -0.2005024E-08 Eh
   *** GEOMETRY OPTIMIZATION CONVERGED AFTER 22 ITERATIONS ***

 final structure:
================
80
 xtb: 6.7.1 (edcfbbe)
C            0.60065283979656       -0.75964671499847       -0.17990982132006
C            1.48096173326773        0.07962949200496        0.38808406882937
C            2.92538702723560        0.00975141241999        0.28973053676833
C            3.60921261604819       -1.04167035669184       -0.32961784952607
C            4.98599018330481       -1.05581230883169       -0.39677591923023
C            5.72978637518414       -0.01103422719570        0.14810324739647
N            7.13013120078036       -0.02193183384155        0.07173286092799
C            7.99938532601567        0.16426080362124        1.12822253791784
C            7.72592026820148        0.34896824726810        2.47655985438695
C            8.79605131230552        0.48726830055854        3.33986312536854
C           10.11155719872369        0.43588422181765        2.88249753919947
C           10.39047124971164        0.22789082294061        1.54625834312283
C            9.33133458626008        0.08642865871194        0.65845932928380
C            9.25146949558144       -0.15410393953919       -0.75533544263206
C           10.20408526872597       -0.30592645111001       -1.75507054899189
C            9.77627470099060       -0.50732510079824       -3.05236279485000
C            8.41769247513840       -0.54216576624656       -3.36129349283780
C            7.45144845408517       -0.39396697044736       -2.38459696156434
C            7.87490819002932       -0.21610936197925       -1.07465413466728
C            5.06530704284719        1.04310125357818        0.77007710138847
C            3.68866850592089        1.04457346559876        0.84266062259714
C           -0.84358418099925       -0.67797927332366       -0.09451851250658
C           -1.52086200444746        0.23098861302121        0.72568289100236
C           -2.89706195415486        0.27937193954641        0.74917507291171
C           -3.66018606149445       -0.57960481025761       -0.04312730003374
C           -5.12979041236598       -0.54122019644642       -0.01569525372697
C           -5.82580096203747        0.61698890576653       -0.07192639373158
C           -5.18284603753917        1.91149449086518       -0.35804965547234
C           -4.27600810133832        2.04811953748884       -1.40780593604587
C           -3.69355456348452        3.27205218881848       -1.67769370595351
C           -4.00808591642145        4.37990642288918       -0.90703235966860
C           -4.91913439030916        4.25850216992210        0.12951555152692
C           -5.50805527898687        3.03675011923538        0.39772689034340
C           -7.28176090546482        0.67675347766469        0.14460526726231
C           -8.08598657316858        1.43022184656290       -0.70911900632826
C           -9.45115222169420        1.50627463756338       -0.50490956067110
C          -10.03329411304609        0.84484675800059        0.56418371327696
C           -9.24017527882473        0.10900257776565        1.42991719958736
C           -7.87614385616848        0.02464330813367        1.22350993632598
C           -5.78991305825824       -1.85608922944353        0.07213267496863
C           -5.32427596816158       -2.81357891355163        0.97172864071758
C           -5.92581436617161       -4.05585233659726        1.05061573485983
C           -6.99204386185085       -4.36699577879559        0.22267027262594
C           -7.44984028179124       -3.42900237210228       -0.68872581792631
C           -6.85480427413146       -2.18382477043383       -0.76493704575611
C           -2.99260169754336       -1.51261100834340       -0.83691020986773
C           -1.61563550565089       -1.55442611395691       -0.86578690102214
H            0.96361604193912       -1.57910219900784       -0.78641693474175
H            1.11559267017122        0.91518952164789        0.97027423917887
H            3.05981319480274       -1.86800749570462       -0.75274181831099
H            5.49923626215824       -1.88563782454464       -0.86019213214453
H            6.71082418174819        0.37315393013629        2.84341270720630
H            8.60872483362062        0.63542467140273        4.39360660391544
H           10.92109155390841        0.55139405936605        3.58843029564454
H           11.41007434006553        0.17207206823549        1.19471465599954
H           11.25694306805178       -0.26289624425138       -1.51858211301154
H           10.50103432830166       -0.62992379451818       -3.84404431112418
H            8.11315026428863       -0.68471751575262       -4.38809424755492
H            6.40178691690843       -0.40525451283403       -2.63673716585830
H            5.63501896782447        1.86295427251690        1.18208012560017
H            3.18624319140119        1.87077049310795        1.32575406863704
H           -0.96499141069591        0.90389371830666        1.36035815368698
H           -3.39727886872666        0.98302699910440        1.39867809022679
H           -4.03760350094030        1.18988864885547       -2.01902149195361
H           -2.99267519173132        3.36321273544398       -2.49518255002330
H           -3.54920590220284        5.33515601752136       -1.11710673609303
H           -5.17336164895367        5.12021925110623        0.73023379303719
H           -6.21735728964977        2.94358057180126        1.20844108354224
H           -7.63390107104841        1.94672141550256       -1.54454882700581
H          -10.06357846392958        2.08609701313265       -1.18083060722667
H          -11.09983049470604        0.90656053727698        0.72488049673879
H           -9.68689240834401       -0.39958425084574        2.27232005126529
H           -7.26038563430840       -0.54077275354394        1.90765969346866
H           -4.49310346201224       -2.57218160794277        1.61979835923795
H           -5.56042354438282       -4.78513403430183        1.75962164122422
H           -7.46062787470785       -5.33856401575945        0.28320595707487
H           -8.27312338741944       -3.67028746597379       -1.34584178636228
H           -7.20720645814304       -1.45949653185805       -1.48477727439882
H           -3.56643465768825       -2.19647200505933       -1.44700613198575
H           -1.11973475634912       -2.27595962560396       -1.50062172165485

          :  Hamiltonian                  GFN2-xTB          :
         :: gradient norm              0.000037412860 Eh/a0 ::
         :: HOMO-LUMO gap              2.203151980894 eV    ::
         :: SCC energy              -120.585080944322 Eh    ::
         :: -> dispersion             -0.108850005990 Eh    ::
         :: -> Gsolv                  -0.049023873254 Eh    ::
         :: repulsion energy           2.306301786123 Eh    ::

    * Orbital Energies and Occupations

         #    Occupation            Energy/Eh            Energy/eV
      -------------------------------------------------------------
         1        2.0000           -0.6751203             -18.3710
       ...           ...                  ...                  ...
        99        2.0000           -0.4111031             -11.1867
       100        2.0000           -0.4075414             -11.0898
       101        2.0000           -0.4068070             -11.0698
       102        2.0000           -0.4061454             -11.0518
       103        2.0000           -0.4044301             -11.0051
       104        2.0000           -0.4031667             -10.9707
       105        2.0000           -0.4014671             -10.9245
       106        2.0000           -0.4003831             -10.8950
       107        2.0000           -0.3978159             -10.8251
       108        2.0000           -0.3802373             -10.3468
       109        2.0000           -0.3778621             -10.2822
       110        2.0000           -0.3640476              -9.9062
       111        2.0000           -0.3562487              -9.6940 (HOMO)
       112                         -0.2752843              -7.4909 (LUMO)
       113                         -0.2560346              -6.9671
       114                         -0.2440406              -6.6407
       115                         -0.2283353              -6.2133
       116                         -0.2265218              -6.1640
       117                         -0.2253238              -6.1314
       118                         -0.2221026              -6.0437
       119                         -0.2212664              -6.0210
       120                         -0.2201831              -5.9915
       121                         -0.2193760              -5.9695
       122                         -0.2173433              -5.9142
       ...                                ...                  ...
       221                          0.7451397              20.2763
      -------------------------------------------------------------
                  HL-Gap            0.0809643 Eh            2.2032 eV

     #   Z          covCN         q      C6AA      α(0)
     1   6 C        2.901    -0.039    28.962     8.824
     2   6 C        2.901    -0.041    29.006     8.831
     3   6 C        2.969     0.012    27.747     8.640
     4   6 C        2.923    -0.034    28.843     8.807
     5   6 C        2.919    -0.043    29.075     8.842
     6   6 C        2.913     0.061    26.625     8.461
     7   7 N        2.801    -0.046    22.127     6.986
     8   6 C        3.076     0.048    26.855     8.496
     9   6 C        2.909    -0.052    29.287     8.874
    10   6 C        2.924    -0.035    28.878     8.813
    11   6 C        2.919    -0.043    29.066     8.841
    12   6 C        2.912    -0.035    28.874     8.811
    13   6 C        3.067    -0.019    28.411     8.740
    14   6 C        3.067    -0.019    28.410     8.740
    15   6 C        2.912    -0.035    28.874     8.811
    16   6 C        2.919    -0.043    29.065     8.841
    17   6 C        2.924    -0.035    28.878     8.813
    18   6 C        2.909    -0.052    29.287     8.874
    19   6 C        3.076     0.048    26.854     8.496
    20   6 C        2.918    -0.044    29.081     8.843
    21   6 C        2.929    -0.035    28.863     8.811
    22   6 C        2.969     0.012    27.755     8.642
    23   6 C        2.922    -0.035    28.870     8.811
    24   6 C        2.921    -0.033    28.823     8.804
    25   6 C        2.978     0.014    27.698     8.633
    26   6 C        2.966    -0.006    28.163     8.705
    27   6 C        2.967    -0.006    28.163     8.705
    28   6 C        2.978     0.015    27.668     8.628
    29   6 C        2.924    -0.032    28.804     8.801
    30   6 C        2.918    -0.030    28.756     8.794
    31   6 C        2.920    -0.032    28.799     8.800
    32   6 C        2.918    -0.031    28.766     8.795
    33   6 C        2.925    -0.033    28.817     8.803
    34   6 C        2.978     0.015    27.670     8.628
    35   6 C        2.925    -0.033    28.816     8.803
    36   6 C        2.918    -0.031    28.767     8.795
    37   6 C        2.920    -0.032    28.800     8.801
    38   6 C        2.918    -0.030    28.759     8.794
    39   6 C        2.924    -0.032    28.808     8.802
    40   6 C        2.978     0.015    27.671     8.629
    41   6 C        2.925    -0.033    28.816     8.803
    42   6 C        2.918    -0.031    28.767     8.795
    43   6 C        2.920    -0.032    28.800     8.800
    44   6 C        2.918    -0.030    28.759     8.794
    45   6 C        2.924    -0.032    28.809     8.802
    46   6 C        2.921    -0.034    28.838     8.806
    47   6 C        2.927    -0.036    28.894     8.815
    48   1 H        0.925     0.038     2.480     2.463
    49   1 H        0.925     0.038     2.472     2.459
    50   1 H        0.926     0.042     2.425     2.435
    51   1 H        0.926     0.040     2.445     2.445
    52   1 H        0.926     0.030     2.588     2.516
    53   1 H        0.926     0.030     2.592     2.518
    54   1 H        0.926     0.027     2.624     2.533
    55   1 H        0.926     0.030     2.592     2.518
    56   1 H        0.926     0.030     2.592     2.518
    57   1 H        0.926     0.027     2.624     2.533
    58   1 H        0.926     0.030     2.592     2.518
    59   1 H        0.926     0.030     2.587     2.515
    60   1 H        0.926     0.040     2.450     2.447
    61   1 H        0.926     0.039     2.461     2.453
    62   1 H        0.926     0.034     2.529     2.487
    63   1 H        0.926     0.029     2.605     2.524
    64   1 H        0.926     0.028     2.613     2.528
    65   1 H        0.926     0.030     2.581     2.513
    66   1 H        0.926     0.031     2.576     2.510
    67   1 H        0.926     0.030     2.580     2.512
    68   1 H        0.925     0.028     2.620     2.531
    69   1 H        0.925     0.028     2.620     2.531
    70   1 H        0.926     0.030     2.581     2.512
    71   1 H        0.926     0.031     2.577     2.510
    72   1 H        0.926     0.030     2.583     2.513
    73   1 H        0.926     0.028     2.612     2.527
    74   1 H        0.925     0.028     2.617     2.530
    75   1 H        0.926     0.031     2.579     2.511
    76   1 H        0.926     0.031     2.578     2.511
    77   1 H        0.926     0.030     2.585     2.514
    78   1 H        0.926     0.028     2.615     2.529
    79   1 H        0.925     0.028     2.618     2.530
    80   1 H        0.925     0.032     2.564     2.504

molecular dipole:
                 x           y           z       tot (Debye)
 q only:       -0.764       0.002       0.031
   full:       -0.816       0.008       0.026       2.074

 projected vibrational frequencies (cm⁻¹)
eigval :       -0.00    -0.00    -0.00     0.00     0.00     0.00
eigval :        6.27    10.13    16.14    22.32    29.54    35.46
eigval :       43.90    52.00    56.42    60.71    64.17    68.73
eigval :       71.57    72.57    76.91    87.96    92.18   104.43
eigval :      140.02   145.28   153.44   167.97   190.06   196.14
eigval :      201.73   226.81   239.45   246.56   259.58   270.78
eigval :      278.62   287.93   315.34   319.04   358.91   370.94
eigval :      373.54   375.37   376.68   378.93   381.49   388.69
eigval :      403.07   421.92   425.14   435.88   449.52   456.06
eigval :      466.01   495.61   517.29   522.78   533.92   539.68
eigval :      541.24   556.77   579.81   581.55   584.71   588.82
eigval :      592.77   595.40   599.76   612.65   617.22   624.34
eigval :      640.95   668.96   672.71   673.01   676.79   681.12
eigval :      682.72   698.27   704.31   710.97   749.13   756.02
eigval :      761.00   762.01   768.47   773.36   779.63   811.54
eigval :      823.79   827.69   850.73   860.40   864.14   864.70
eigval :      873.07   874.49   874.81   877.84   882.56   894.52
eigval :      897.05   900.05   901.07   901.53   901.93   904.46
eigval :      914.15   917.11   920.47   924.10   924.36   927.65
eigval :      929.21   930.52   931.77   932.13   934.62   937.51
eigval :      941.51   943.98   980.54   985.83   992.24  1009.90
eigval :     1010.91  1018.43  1032.50  1069.18  1072.36  1082.90
eigval :     1083.81  1084.89  1116.94  1120.48  1120.73  1122.79
eigval :     1135.94  1143.80  1151.53  1163.64  1175.17  1178.81
eigval :     1180.10  1180.86  1181.79  1182.77  1191.91  1197.67
eigval :     1198.28  1199.85  1203.13  1216.19  1229.92  1235.74
eigval :     1244.18  1249.76  1267.60  1275.29  1280.20  1281.55
eigval :     1283.54  1289.75  1297.62  1300.45  1300.69  1308.94
eigval :     1313.20  1315.44  1316.91  1319.24  1333.36  1341.32
eigval :     1355.95  1360.51  1366.08  1406.64  1411.67  1427.26
eigval :     1427.46  1428.49  1428.92  1429.47  1465.30  1472.90
eigval :     1474.09  1474.53  1482.74  1487.05  1494.43  1548.71
eigval :     1554.78  1570.83  1572.82  1576.29  1577.08  1578.26
eigval :     1586.57  1587.54  1592.70  1593.33  1596.60  1597.85
eigval :     1611.80  1612.56  1639.50  3054.50  3060.18  3064.34
eigval :     3064.88  3065.03  3065.18  3067.86  3068.01  3068.78
eigval :     3070.17  3070.72  3071.40  3073.47  3073.99  3074.68
eigval :     3074.82  3075.71  3076.56  3077.75  3080.60  3080.79
eigval :     3082.00  3082.20  3083.37  3085.37  3088.23  3088.88
eigval :     3089.10  3089.62  3090.61  3092.70  3093.24  3098.97

   temp. (K)  partition function   enthalpy   heat capacity  entropy
                                   cal/mol     cal/K/mol   cal/K/mol   J/K/mol
 298.15  VIB  0.208E+19            22441.007    140.704    142.316
         ROT  0.118E+09              888.752      2.981     39.924
         INT  0.247E+27            23329.760    143.684    182.240
         TR   0.142E+29             1481.254      4.968     45.037
         TOT                       24811.0135   148.6526   227.2772   950.9277

       T/K    H(0)-H(T)+PV         H(T)/Eh          T*S/Eh         G(T)/Eh
   ------------------------------------------------------------------------
    298.15    0.395389E-01    0.666072E+00    0.107987E+00    0.558086E+00
   ------------------------------------------------------------------------

         :::::::::::::::::::::::::::::::::::::::::::::::::::::
         ::                  THERMODYNAMIC                  ::
         :::::::::::::::::::::::::::::::::::::::::::::::::::::
         :: total free energy        -117.720693411958 Eh   ::
         ::.................................................::
         :: total energy             -118.278779158310 Eh   ::
         :: zero point energy           0.626533595490 Eh   ::
         :: G(RRHO) w/o ZPVE           -0.068447849138 Eh   ::
         :: G(RRHO) contrib.            0.558085746352 Eh   ::
         :::::::::::::::::::::::::::::::::::::::::::::::::::::

           -------------------------------------------------
          | TOTAL ENERGY             -118.278779158310 Eh   |
          | TOTAL ENTHALPY           -117.612706696094 Eh   |
          | TOTAL FREE ENERGY        -117.720693411958 Eh   |
          | GRADIENT NORM               0.000037417183 Eh/α |
          | HOMO-LUMO GAP               2.203151979590 eV   |
           -------------------------------------------------

 * finished run on 2025/08/24 at 18:06:32.711
