   * xtb version 6.7.1 (edcfbbe) compiled by 'albert@albert-system' on 2024-07-22

   ID    Z sym.   atoms
    1    6 C      1-6, 8-47
    2    7 N      7
    3    1 H      48-80

          program call               : xtb data2507/toluene/9CzTPE/9CzTPE_toluene_S0_finalOpt.xtbopt.xyz --gfn 2 --uhf 2 --gbsa toluene --ohess vtight --parallel 40 --molden --ceasefiles --namespace data2507/toluene/9CzTPE/9CzTPE_toluene_T1_preOpt
      * Solvation model:               GBSA
        Solvent                        toluene
        Solvent mass                       9.2140E+01 g/mol
          :  Hamiltonian                  GFN2-xTB          :
 * total energy  :  -118.1959493 Eh     change       -0.2886964E-08 Eh
 * total energy  :  -118.2035578 Eh     change       -0.7608463E-02 Eh
 * total energy  :  -118.2062642 Eh     change       -0.2706457E-02 Eh
 * total energy  :  -118.2068046 Eh     change       -0.5403442E-03 Eh
 * total energy  :  -118.2075708 Eh     change       -0.7662217E-03 Eh
 * total energy  :  -118.2081814 Eh     change       -0.6105967E-03 Eh
 * total energy  :  -118.2088744 Eh     change       -0.6929789E-03 Eh
 * total energy  :  -118.2095117 Eh     change       -0.6373742E-03 Eh
 * total energy  :  -118.2099853 Eh     change       -0.4735263E-03 Eh
 * total energy  :  -118.2103102 Eh     change       -0.3249072E-03 Eh
 * total energy  :  -118.2146048 Eh     change       -0.1424231E-05 Eh
 * total energy  :  -118.2146063 Eh     change       -0.1460205E-05 Eh
 * total energy  :  -118.2146076 Eh     change       -0.1366870E-05 Eh
 * total energy  :  -118.2146090 Eh     change       -0.1340656E-05 Eh
 * total energy  :  -118.2146104 Eh     change       -0.1419089E-05 Eh
 * total energy  :  -118.2146120 Eh     change       -0.1603011E-05 Eh
 * total energy  :  -118.2146138 Eh     change       -0.1816827E-05 Eh
 * total energy  :  -118.2146158 Eh     change       -0.2004303E-05 Eh
 * total energy  :  -118.2146158 Eh     change       -0.4982752E-08 Eh
   *** GEOMETRY OPTIMIZATION CONVERGED AFTER 122 ITERATIONS ***

 final structure:
================
80
 xtb: 6.7.1 (edcfbbe)
C            0.60131198219711       -0.81736733350899       -0.14593620301858
C            1.45954505691856        0.10286218767594        0.36349784967841
C            2.89539001491026        0.04488209115107        0.33236425981780
C            3.62303184827075       -1.00604652185675       -0.24720224916300
C            4.99947934554254       -1.00157920486218       -0.25715962353941
C            5.70848815236079        0.05760002497359        0.30977417247609
N            7.10928463186556        0.06571036030913        0.28952365837606
C            7.93320545820192        0.28753380579159        1.37541025068436
C            7.60368704196867        0.48970267849902        2.70869631307631
C            8.63648589284889        0.66321336649871        3.61036174315349
C            9.96953072941154        0.62909917830456        3.20532512530371
C           10.30448381931888        0.40235958422466        1.88488117578789
C            9.28378553874215        0.22507862009479        0.95961715019831
C            9.26381379929310       -0.04343369600150       -0.45153496590592
C           10.25764672979754       -0.19582763783905       -1.40992079582398
C            9.88507621729543       -0.42844301829667       -2.71920324619567
C            8.54065551108906       -0.49252086108688       -3.08062249541232
C            7.53404763000990       -0.34430341204622       -2.14542431284596
C            7.90214873163622       -0.13635855235846       -0.82316098814940
C            5.00395253239145        1.10977293732161        0.89417927844830
C            3.62791772014484        1.09772251522738        0.90498630160886
C           -0.82296556296449       -0.75101247983510       -0.13149607293959
C           -1.56101384809935        0.30486815202085        0.44882786128787
C           -2.92330312304293        0.32907979225912        0.41123123417355
C           -3.67704931723613       -0.71587715748631       -0.19198939804916
C           -5.08237794665447       -0.65606584122350       -0.26072922788597
C           -5.77214813322082        0.62629973229523       -0.11300126076314
C           -5.30503798604411        1.75719846518700       -0.85637555689839
C           -4.58787762011641        1.58568525666780       -2.05843554716592
C           -4.11024160361911        2.66772960266616       -2.76225217151074
C           -4.31480005449182        3.95937631521025       -2.29376604502702
C           -5.00296296249686        4.15158938476355       -1.10253128782490
C           -5.49313247487535        3.07665928798820       -0.39515865287464
C           -6.91220895214469        0.69294281652231        0.75196798957945
C           -7.97234236131001        1.59167983917624        0.51825129307880
C           -9.07944292290625        1.61032410162351        1.33717218968690
C           -9.17279080919047        0.74410102848122        2.41867173684663
C           -8.14300615313554       -0.15581690959479        2.66239391180500
C           -7.03619057725493       -0.18826250638611        1.84489751521852
C           -5.90324608265627       -1.82643218743964       -0.48372528573605
C           -5.55760594510255       -3.08048860222253        0.04486651219001
C           -6.37814998901820       -4.17430797224089       -0.13544656028103
C           -7.56296765014303       -4.05542201687078       -0.84726416851830
C           -7.92482731023573       -2.82177011152994       -1.36996040848502
C           -7.11374039632276       -1.72244952519752       -1.18696767783487
C           -2.93091058875836       -1.78098487301173       -0.76727891563144
C           -1.56748677980372       -1.78610012277349       -0.74261186261360
H            1.00702822807459       -1.69966254885552       -0.62408579324584
H            1.05626536417625        0.98500987580353        0.84239515028957
H            3.10324623454293       -1.84141394969841       -0.68949587743712
H            5.54229330445816       -1.82833200895111       -0.69157470375912
H            6.57478611057487        0.50044243081899        3.03551093714977
H            8.40526555779180        0.82562025454562        4.65318834408245
H           10.74866645047406        0.77243698430864        3.93974096884904
H           11.33793028551910        0.35932296762191        1.57449049668378
H           11.29936857659815       -0.12899955734262       -1.13326012788067
H           10.64278699398751       -0.55239243671570       -3.47911952074710
H            8.27929007232165       -0.65838798019317       -4.11575386696612
H            6.49564653198172       -0.37753857115510       -2.43892650608217
H            5.54645825869994        1.94086512886504        1.32032284218724
H            3.09510038543447        1.92347711374609        1.35516502277084
H           -1.03831291406364        1.11235056214032        0.93860270845273
H           -3.45545983876978        1.14250943198926        0.88216078607290
H           -4.43892468803666        0.58692566903462       -2.44188394832569
H           -3.57425568248660        2.50982961907438       -3.68747130397251
H           -3.93543461727061        4.80601611854771       -2.84641334744211
H           -5.14772749454454        5.15276011911026       -0.72132843500728
H           -5.98669166376995        3.23779077163050        0.55217926622883
H           -7.93349279890665        2.23935503724031       -0.34544915470933
H           -9.88590554300739        2.29967555260297        1.12973507155711
H          -10.04217194197072        0.76429453222453        3.05899974216428
H           -8.20896950752228       -0.83459775963988        3.50095996886972
H           -6.23268644670019       -0.87889310751151        2.05454740975148
H           -4.65965551233591       -3.17526046016333        0.63818790835903
H           -6.09888549215583       -5.12772221449786        0.29044268978261
H           -8.20200434179487       -4.91476075231207       -0.98742079885450
H           -8.84742270796268       -2.72054786130326       -1.92363748832983
H           -7.39672186979172       -0.76850602782382       -1.60792977186463
H           -3.45964300172448       -2.56783774008071       -1.28506040610099
H           -1.03118707888539       -2.59782533205764       -1.21592268888999

          :  Hamiltonian                  GFN2-xTB          :
         :: gradient norm              0.000055235668 Eh/a0 ::
         :: HOMO-LUMO gap              0.947225684402 eV    ::
         :: SCC energy              -120.501889542121 Eh    ::
         :: -> dispersion             -0.108407750058 Eh    ::
         :: -> Gsolv                  -0.048859486081 Eh    ::
         :: repulsion energy           2.287273703523 Eh    ::

    * Orbital Energies and Occupations

         #    Occupation            Energy/Eh            Energy/eV
      -------------------------------------------------------------
         1        2.0000           -0.6757908             -18.3892
       ...           ...                  ...                  ...
       100        2.0000           -0.4106041             -11.1731
       101        2.0000           -0.4067800             -11.0690
       102        2.0000           -0.4058744             -11.0444
       103        2.0000           -0.4050005             -11.0206
       104        2.0000           -0.4039490             -10.9920
       105        2.0000           -0.4021859             -10.9440
       106        2.0000           -0.4017566             -10.9324
       107        2.0000           -0.3965451             -10.7905
       108        2.0000           -0.3784929             -10.2993
       109        2.0000           -0.3780855             -10.2882
       110        2.0000           -0.3602656              -9.8033
       111        1.0000           -0.3384228              -9.2090
       112        1.0000           -0.2993145              -8.1448 (HOMO)
       113                         -0.2645048              -7.1975 (LUMO)
       114                         -0.2446562              -6.6574
       115                         -0.2287967              -6.2259
       116                         -0.2269715              -6.1762
       117                         -0.2236538              -6.0859
       118                         -0.2219118              -6.0385
       119                         -0.2208000              -6.0083
       120                         -0.2203629              -5.9964
       121                         -0.2190509              -5.9607
       122                         -0.2152474              -5.8572
       123                         -0.2042113              -5.5569
       ...                                ...                  ...
       221                          0.7444436              20.2573
      -------------------------------------------------------------
                  HL-Gap            0.0348097 Eh            0.9472 eV

     #   Z          covCN         q      C6AA      α(0)
     1   6 C        2.902    -0.040    28.982     8.827
     2   6 C        2.903    -0.043    29.057     8.838
     3   6 C        2.967     0.012    27.753     8.641
     4   6 C        2.922    -0.035    28.864     8.810
     5   6 C        2.918    -0.043    29.077     8.843
     6   6 C        2.912     0.060    26.664     8.467
     7   7 N        2.801    -0.043    22.076     6.978
     8   6 C        3.075     0.047    26.858     8.497
     9   6 C        2.909    -0.051    29.271     8.871
    10   6 C        2.923    -0.035    28.874     8.812
    11   6 C        2.919    -0.042    29.053     8.839
    12   6 C        2.912    -0.035    28.867     8.810
    13   6 C        3.067    -0.018    28.400     8.739
    14   6 C        3.067    -0.018    28.399     8.738
    15   6 C        2.912    -0.035    28.867     8.810
    16   6 C        2.919    -0.042    29.052     8.839
    17   6 C        2.923    -0.035    28.874     8.812
    18   6 C        2.909    -0.051    29.272     8.872
    19   6 C        3.075     0.047    26.858     8.497
    20   6 C        2.917    -0.043    29.080     8.843
    21   6 C        2.928    -0.036    28.889     8.815
    22   6 C        2.968     0.011    27.776     8.645
    23   6 C        2.915    -0.035    28.859     8.809
    24   6 C        2.918    -0.034    28.855     8.809
    25   6 C        2.969     0.012    27.741     8.639
    26   6 C        2.969    -0.005    28.138     8.701
    27   6 C        2.970    -0.008    28.207     8.712
    28   6 C        2.970     0.016    27.657     8.626
    29   6 C        2.923    -0.033    28.831     8.805
    30   6 C        2.915    -0.030    28.741     8.791
    31   6 C        2.919    -0.032    28.808     8.802
    32   6 C        2.915    -0.030    28.757     8.794
    33   6 C        2.922    -0.035    28.874     8.812
    34   6 C        2.971     0.015    27.680     8.630
    35   6 C        2.922    -0.035    28.867     8.811
    36   6 C        2.915    -0.031    28.763     8.795
    37   6 C        2.919    -0.033    28.814     8.802
    38   6 C        2.915    -0.030    28.749     8.792
    39   6 C        2.924    -0.034    28.849     8.808
    40   6 C        2.973     0.015    27.665     8.628
    41   6 C        2.923    -0.034    28.840     8.807
    42   6 C        2.916    -0.031    28.764     8.795
    43   6 C        2.919    -0.032    28.797     8.800
    44   6 C        2.916    -0.030    28.750     8.793
    45   6 C        2.924    -0.033    28.822     8.804
    46   6 C        2.915    -0.037    28.912     8.817
    47   6 C        2.921    -0.036    28.900     8.816
    48   1 H        0.925     0.036     2.509     2.477
    49   1 H        0.925     0.036     2.507     2.476
    50   1 H        0.926     0.041     2.442     2.443
    51   1 H        0.926     0.039     2.456     2.450
    52   1 H        0.926     0.031     2.578     2.511
    53   1 H        0.926     0.030     2.584     2.514
    54   1 H        0.926     0.028     2.614     2.528
    55   1 H        0.926     0.030     2.581     2.513
    56   1 H        0.926     0.030     2.581     2.512
    57   1 H        0.926     0.028     2.614     2.528
    58   1 H        0.926     0.030     2.583     2.513
    59   1 H        0.926     0.031     2.576     2.510
    60   1 H        0.926     0.039     2.462     2.453
    61   1 H        0.926     0.037     2.482     2.464
    62   1 H        0.926     0.031     2.566     2.505
    63   1 H        0.926     0.028     2.612     2.527
    64   1 H        0.926     0.028     2.614     2.528
    65   1 H        0.926     0.029     2.599     2.521
    66   1 H        0.926     0.030     2.586     2.515
    67   1 H        0.926     0.031     2.577     2.510
    68   1 H        0.926     0.034     2.527     2.486
    69   1 H        0.926     0.034     2.530     2.487
    70   1 H        0.926     0.031     2.578     2.511
    71   1 H        0.926     0.030     2.588     2.516
    72   1 H        0.926     0.029     2.601     2.522
    73   1 H        0.926     0.029     2.607     2.525
    74   1 H        0.926     0.035     2.520     2.483
    75   1 H        0.926     0.032     2.565     2.504
    76   1 H        0.926     0.031     2.579     2.511
    77   1 H        0.926     0.030     2.591     2.517
    78   1 H        0.926     0.028     2.609     2.526
    79   1 H        0.926     0.034     2.535     2.490
    80   1 H        0.925     0.030     2.587     2.515

molecular dipole:
                 x           y           z       tot (Debye)
 q only:       -0.740      -0.031      -0.010
   full:       -0.795      -0.024      -0.018       2.023

 projected vibrational frequencies (cm⁻¹)
eigval :       -0.00    -0.00     0.00     0.00     0.00     0.00
eigval :        7.78     8.06    15.47    17.20    27.12    33.79
eigval :       44.77    54.11    59.67    62.45    63.39    74.61
eigval :       75.79    89.75    96.20    97.98   103.17   108.36
eigval :      140.32   145.21   164.96   183.64   196.10   204.04
eigval :      205.59   215.56   239.90   259.99   270.00   271.20
eigval :      286.80   292.96   303.68   323.70   349.42   369.07
eigval :      369.90   378.23   378.82   384.14   388.47   389.99
eigval :      391.28   402.52   422.67   435.13   440.81   452.86
eigval :      462.26   468.82   501.61   515.75   518.95   534.29
eigval :      535.64   540.53   578.41   579.71   583.20   585.60
eigval :      586.99   593.25   595.11   609.72   616.71   617.07
eigval :      622.31   659.31   659.97   666.61   673.55   674.80
eigval :      679.58   689.03   703.26   711.39   743.82   746.54
eigval :      750.83   755.74   768.04   774.92   779.08   814.47
eigval :      817.81   823.25   842.15   847.89   855.49   857.82
eigval :      865.41   866.88   869.61   871.25   872.59   883.00
eigval :      895.42   895.86   896.38   900.29   900.60   901.25
eigval :      916.57   916.79   919.04   920.85   921.82   922.29
eigval :      923.28   924.13   924.50   928.56   930.56   939.65
eigval :      939.98   942.08   958.91   969.08   981.92   989.97
eigval :     1002.77  1010.82  1014.92  1068.27  1071.91  1079.09
eigval :     1079.91  1080.77  1107.72  1115.39  1120.99  1123.27
eigval :     1132.20  1135.69  1146.59  1149.70  1168.89  1174.23
eigval :     1177.68  1177.84  1178.84  1178.91  1181.02  1193.47
eigval :     1193.62  1198.04  1207.30  1220.19  1234.22  1236.89
eigval :     1247.13  1252.91  1267.05  1272.96  1274.37  1277.84
eigval :     1285.63  1291.24  1298.03  1299.22  1311.63  1313.38
eigval :     1316.72  1322.73  1324.44  1328.10  1339.25  1343.29
eigval :     1355.40  1359.44  1360.87  1371.73  1410.60  1419.03
eigval :     1424.25  1425.82  1426.20  1428.74  1437.15  1444.87
eigval :     1453.57  1454.33  1464.40  1471.72  1473.01  1486.04
eigval :     1489.46  1502.27  1537.13  1540.22  1541.20  1551.54
eigval :     1566.50  1572.07  1576.73  1580.37  1586.21  1587.75
eigval :     1595.25  1606.21  1611.48  3053.31  3057.73  3065.50
eigval :     3065.89  3066.38  3066.48  3067.06  3067.30  3067.56
eigval :     3070.20  3070.45  3070.79  3076.12  3076.84  3078.19
eigval :     3078.23  3079.29  3080.50  3080.66  3081.94  3082.33
eigval :     3083.05  3083.50  3084.14  3085.36  3086.90  3088.90
eigval :     3089.48  3090.66  3090.92  3091.79  3093.01  3098.10

   temp. (K)  partition function   enthalpy   heat capacity  entropy
                                   cal/mol     cal/K/mol   cal/K/mol   J/K/mol
 298.15  VIB  0.135E+19            22441.796    142.028    141.430
         ROT  0.121E+09              888.752      2.981     39.969
         INT  0.164E+27            23330.549    145.009    181.400
         TR   0.142E+29             1481.254      4.968     45.037
         TOT                       24811.8027   149.9771   226.4370   947.4123

       T/K    H(0)-H(T)+PV         H(T)/Eh          T*S/Eh         G(T)/Eh
   ------------------------------------------------------------------------
    298.15    0.395401E-01    0.663607E+00    0.107588E+00    0.556019E+00
   ------------------------------------------------------------------------

         :::::::::::::::::::::::::::::::::::::::::::::::::::::
         ::                  THERMODYNAMIC                  ::
         :::::::::::::::::::::::::::::::::::::::::::::::::::::
         :: total free energy        -117.658596474494 Eh   ::
         ::.................................................::
         :: total energy             -118.214615841138 Eh   ::
         :: zero point energy           0.624066756106 Eh   ::
         :: G(RRHO) w/o ZPVE           -0.068047389462 Eh   ::
         :: G(RRHO) contrib.            0.556019366644 Eh   ::
         :::::::::::::::::::::::::::::::::::::::::::::::::::::

           -------------------------------------------------
          | TOTAL ENERGY             -118.214615841138 Eh   |
          | TOTAL ENTHALPY           -117.551008960647 Eh   |
          | TOTAL FREE ENERGY        -117.658596474494 Eh   |
          | GRADIENT NORM               0.000055237505 Eh/α |
          | HOMO-LUMO GAP               0.947220550525 eV   |
           -------------------------------------------------

 * finished run on 2025/08/24 at 18:06:44.761
