   * xtb version 6.7.1 (edcfbbe) compiled by 'albert@albert-system' on 2024-07-22

   ID    Z sym.   atoms
    1    6 C      1-6, 8-47
    2    7 N      7
    3    1 H      48-80

          program call               : xtb data2507/toluene/9CzTPE/9CzTPE_toluene_T1_crest.xyz --gfn 2 --uhf 2 --gbsa toluene --ohess vtight --parallel 40 --molden --ceasefiles --namespace data2507/toluene/9CzTPE/9CzTPE_toluene_T1_finalOpt
      * Solvation model:               GBSA
        Solvent                        toluene
        Solvent mass                       9.2140E+01 g/mol
          :  Hamiltonian                  GFN2-xTB          :
 * total energy  :  -118.2145729 Eh     change       -0.1851078E-08 Eh
 * total energy  :  -118.2146036 Eh     change       -0.3066556E-04 Eh
 * total energy  :  -118.2146211 Eh     change       -0.1755273E-04 Eh
 * total energy  :  -118.2146287 Eh     change       -0.7571319E-05 Eh
 * total energy  :  -118.2146365 Eh     change       -0.7793312E-05 Eh
 * total energy  :  -118.2146395 Eh     change       -0.3029381E-05 Eh
 * total energy  :  -118.2146427 Eh     change       -0.3241860E-05 Eh
 * total energy  :  -118.2146452 Eh     change       -0.2484979E-05 Eh
 * total energy  :  -118.2146469 Eh     change       -0.1702896E-05 Eh
 * total energy  :  -118.2146486 Eh     change       -0.1668966E-05 Eh
 * total energy  :  -118.2146563 Eh     change       -0.2425971E-05 Eh
 * total energy  :  -118.2146588 Eh     change       -0.2498534E-05 Eh
 * total energy  :  -118.2146610 Eh     change       -0.2209872E-05 Eh
 * total energy  :  -118.2146628 Eh     change       -0.1854888E-05 Eh
 * total energy  :  -118.2146641 Eh     change       -0.1284812E-05 Eh
 * total energy  :  -118.2146650 Eh     change       -0.8523493E-06 Eh
 * total energy  :  -118.2146655 Eh     change       -0.4811016E-06 Eh
 * total energy  :  -118.2146659 Eh     change       -0.4078952E-06 Eh
 * total energy  :  -118.2146659 Eh     change       -0.6602704E-08 Eh
   *** GEOMETRY OPTIMIZATION CONVERGED AFTER 22 ITERATIONS ***

 final structure:
================
80
 xtb: 6.7.1 (edcfbbe)
C            0.59537259111967       -0.79610741476664       -0.02136206235486
C            1.47258678831419        0.19935394879180        0.26655301859819
C            2.90677874455051        0.11042426473307        0.22985535046759
C            3.60772878980672       -1.05869475294272       -0.10466034664301
C            4.98354796211145       -1.08499862370667       -0.12811260703229
C            5.71946356549603        0.05961233239237        0.17917032601614
N            7.11992210932629        0.03010622433678        0.14932519285781
C            7.96070385181600        0.46005138087316        1.15696600641479
C            7.65031537717138        0.96744160440675        2.41125397085787
C            8.69655059454512        1.30159305601717        3.25002252322233
C           10.02389700147135        1.12851550323598        2.86225133735498
C           10.33896989026450        0.60058130165706        1.62566436097021
C            9.30456123242068        0.25806859160566        0.76425968510119
C            9.26281445577659       -0.31716648853385       -0.55148441490736
C           10.24189055839997       -0.71326432508861       -1.45369179809870
C            9.84944155213159       -1.21691138483849       -2.67823079954729
C            8.50025613968940       -1.31327747328652       -3.01392513903440
C            7.50807794828599       -0.92641812693941       -2.13323885972684
C            7.89540489179274       -0.44306972357005       -0.89086561913378
C            5.04184849401047        1.23119674843777        0.51547859305279
C            3.66590744106272        1.25042570858638        0.54138810904705
C           -0.82748521075546       -0.71295323095549        0.00411056129010
C           -1.54882661981979        0.44945413156430        0.35778815872027
C           -2.91158239323689        0.47577020801707        0.34601516006337
C           -3.68252789443244       -0.66893802718859       -0.00119524844342
C           -5.08814117904627       -0.61725217252113       -0.04976288047534
C           -5.77980633587265        0.66868409912316       -0.14829271499149
C           -5.34015836647447        1.62651032626785       -1.11603327808177
C           -4.64020700074741        1.21889708257779       -2.27076290030398
C           -4.18635202190161        2.13838515402709       -3.18873868383792
C           -4.39975393392462        3.49677311138936       -2.99093957496517
C           -5.07236384261471        3.92257930980855       -1.85248385651497
C           -5.53772993374201        3.01099244848647       -0.93153091953820
C           -6.89856125145628        0.90612592472480        0.71570283988047
C           -7.97741290840797        1.72508105188394        0.32772083400113
C           -9.06285036414409        1.90690139177011        1.15582339481787
C           -9.11408842494410        1.28923393262872        2.39848715981604
C           -8.06475143247079        0.47112544995260        2.79733902288291
C           -6.97978191904289        0.27550565102630        1.97312193382852
C           -5.91388161353411       -1.80617278015004       -0.01851851622742
C           -5.56776880189896       -2.92484392089402        0.75548756999917
C           -6.38959227755458       -4.03150869521427        0.80562843660619
C           -7.57479660114249       -4.06073294030167        0.08541796841523
C           -7.93780920992852       -2.95966277852899       -0.67722187116514
C           -7.12648686776567       -1.84622616417733       -0.72384210224763
C           -2.95239572274297       -1.83850220961624       -0.35088920572776
C           -1.58915953304312       -1.84910188091783       -0.35478084842148
H            0.98408159356886       -1.76490286432088       -0.30767519262956
H            1.08861440495447        1.16995877546855        0.55057257599358
H            3.06760026320829       -1.96201110450653       -0.34097873276338
H            5.50518372003792       -1.99979262438087       -0.36901979916756
H            6.62542897085923        1.08828980698767        2.72810366867831
H            8.48062826350985        1.70215466727169        4.22995285948718
H           10.81415161489949        1.40422227784135        3.54520261770813
H           11.36745998357470        0.45133257051916        1.33227087543365
H           11.28784621276804       -0.62288006380239       -1.20083264751770
H           10.59549495843641       -1.53239484035078       -3.39297175367647
H            8.22372269570223       -1.69585231058991       -3.98576952082966
H            6.46640538190967       -0.98860887284100       -2.40974175277085
H            5.60475967773390        2.12588231256823        0.73766281405035
H            3.15446884668940        2.16774757424918        0.79718301075418
H           -1.01207040631314        1.33921589783404        0.65003812797518
H           -3.42986622345826        1.37625470397455        0.64100719584600
H           -4.48553849025257        0.16412405253846       -2.44477813615352
H           -3.66279894582658        1.79930455994054       -4.07144075585825
H           -4.03921167484754        4.21588579021854       -3.71137297796692
H           -5.22443192891103        4.97921038621559       -1.68192307691874
H           -6.01784113711929        3.35837340454444       -0.02838765309169
H           -7.97057292074923        2.17588477036026       -0.65402372463170
H           -9.88472538461785        2.52922463766205        0.83061681750889
H           -9.96599443235186        1.43737913402758        3.04543639467021
H           -8.09814066102992       -0.01382459671243        3.76273990415181
H           -6.16016126754519       -0.34707384842030        2.30069749863271
H           -4.66754703915157       -2.89736944235476        1.35239829860967
H           -6.10975598382336       -4.87772131093506        1.41718045550523
H           -8.21382473358216       -4.93057334735870        0.12455668383293
H           -8.86115403670926       -2.97350854044976       -1.23872065333116
H           -7.41037302958248       -0.99761752482669       -1.32940319156809
H           -3.49477985692097       -2.71436072925783       -0.67526634088035
H           -1.06622339498424       -2.74800378309730       -0.65316328844686

          :  Hamiltonian                  GFN2-xTB          :
         :: gradient norm              0.000061132464 Eh/a0 ::
         :: HOMO-LUMO gap              0.954316825630 eV    ::
         :: SCC energy              -120.502091044140 Eh    ::
         :: -> dispersion             -0.108364756265 Eh    ::
         :: -> Gsolv                  -0.048907577365 Eh    ::
         :: repulsion energy           2.287425178360 Eh    ::

    * Orbital Energies and Occupations

         #    Occupation            Energy/Eh            Energy/eV
      -------------------------------------------------------------
         1        2.0000           -0.6757805             -18.3889
       ...           ...                  ...                  ...
       100        2.0000           -0.4105894             -11.1727
       101        2.0000           -0.4067880             -11.0693
       102        2.0000           -0.4058528             -11.0438
       103        2.0000           -0.4049930             -11.0204
       104        2.0000           -0.4039037             -10.9908
       105        2.0000           -0.4022230             -10.9450
       106        2.0000           -0.4017118             -10.9311
       107        2.0000           -0.3965763             -10.7914
       108        2.0000           -0.3784805             -10.2990
       109        2.0000           -0.3781839             -10.2909
       110        2.0000           -0.3603087              -9.8045
       111        1.0000           -0.3383202              -9.2062
       112        1.0000           -0.2994487              -8.1484 (HOMO)
       113                         -0.2643781              -7.1941 (LUMO)
       114                         -0.2446391              -6.6570
       115                         -0.2287630              -6.2250
       116                         -0.2269730              -6.1762
       117                         -0.2236541              -6.0859
       118                         -0.2218953              -6.0381
       119                         -0.2208577              -6.0098
       120                         -0.2204665              -5.9992
       121                         -0.2190711              -5.9612
       122                         -0.2151628              -5.8549
       123                         -0.2042923              -5.5591
       ...                                ...                  ...
       221                          0.7444868              20.2585
      -------------------------------------------------------------
                  HL-Gap            0.0350706 Eh            0.9543 eV

     #   Z          covCN         q      C6AA      α(0)
     1   6 C        2.902    -0.040    28.983     8.827
     2   6 C        2.902    -0.043    29.055     8.838
     3   6 C        2.967     0.012    27.752     8.641
     4   6 C        2.922    -0.035    28.865     8.810
     5   6 C        2.918    -0.043    29.075     8.842
     6   6 C        2.912     0.060    26.665     8.467
     7   7 N        2.801    -0.043    22.076     6.978
     8   6 C        3.075     0.047    26.857     8.497
     9   6 C        2.909    -0.051    29.272     8.872
    10   6 C        2.923    -0.035    28.873     8.812
    11   6 C        2.919    -0.042    29.053     8.839
    12   6 C        2.912    -0.035    28.868     8.810
    13   6 C        3.067    -0.018    28.400     8.738
    14   6 C        3.067    -0.018    28.400     8.739
    15   6 C        2.912    -0.035    28.867     8.810
    16   6 C        2.919    -0.042    29.053     8.839
    17   6 C        2.923    -0.035    28.874     8.812
    18   6 C        2.909    -0.051    29.271     8.871
    19   6 C        3.076     0.047    26.857     8.497
    20   6 C        2.917    -0.043    29.079     8.843
    21   6 C        2.928    -0.036    28.889     8.815
    22   6 C        2.967     0.011    27.776     8.645
    23   6 C        2.915    -0.034    28.857     8.809
    24   6 C        2.918    -0.034    28.855     8.809
    25   6 C        2.969     0.012    27.741     8.639
    26   6 C        2.969    -0.005    28.135     8.701
    27   6 C        2.970    -0.008    28.206     8.712
    28   6 C        2.970     0.016    27.658     8.626
    29   6 C        2.923    -0.033    28.831     8.805
    30   6 C        2.915    -0.030    28.740     8.791
    31   6 C        2.919    -0.032    28.808     8.802
    32   6 C        2.915    -0.030    28.757     8.794
    33   6 C        2.922    -0.035    28.877     8.812
    34   6 C        2.971     0.015    27.680     8.630
    35   6 C        2.922    -0.035    28.865     8.810
    36   6 C        2.915    -0.031    28.764     8.795
    37   6 C        2.919    -0.033    28.814     8.803
    38   6 C        2.915    -0.030    28.749     8.792
    39   6 C        2.924    -0.034    28.849     8.808
    40   6 C        2.973     0.015    27.666     8.628
    41   6 C        2.923    -0.034    28.836     8.806
    42   6 C        2.916    -0.031    28.764     8.795
    43   6 C        2.919    -0.032    28.797     8.800
    44   6 C        2.916    -0.030    28.750     8.793
    45   6 C        2.924    -0.033    28.822     8.804
    46   6 C        2.916    -0.037    28.915     8.818
    47   6 C        2.921    -0.036    28.900     8.816
    48   1 H        0.925     0.036     2.507     2.476
    49   1 H        0.925     0.036     2.508     2.477
    50   1 H        0.926     0.041     2.441     2.443
    51   1 H        0.926     0.039     2.457     2.451
    52   1 H        0.926     0.031     2.578     2.511
    53   1 H        0.926     0.030     2.584     2.514
    54   1 H        0.926     0.028     2.614     2.528
    55   1 H        0.926     0.030     2.582     2.513
    56   1 H        0.926     0.030     2.582     2.513
    57   1 H        0.926     0.028     2.614     2.528
    58   1 H        0.926     0.030     2.583     2.513
    59   1 H        0.926     0.031     2.577     2.510
    60   1 H        0.926     0.039     2.461     2.453
    61   1 H        0.926     0.038     2.482     2.464
    62   1 H        0.926     0.031     2.567     2.505
    63   1 H        0.926     0.028     2.611     2.527
    64   1 H        0.926     0.028     2.614     2.528
    65   1 H        0.926     0.029     2.600     2.522
    66   1 H        0.926     0.030     2.586     2.515
    67   1 H        0.926     0.031     2.578     2.511
    68   1 H        0.926     0.034     2.528     2.486
    69   1 H        0.926     0.034     2.531     2.488
    70   1 H        0.926     0.031     2.578     2.511
    71   1 H        0.926     0.030     2.588     2.516
    72   1 H        0.926     0.029     2.600     2.521
    73   1 H        0.926     0.029     2.606     2.524
    74   1 H        0.926     0.035     2.522     2.483
    75   1 H        0.926     0.032     2.564     2.504
    76   1 H        0.926     0.031     2.578     2.511
    77   1 H        0.926     0.030     2.590     2.517
    78   1 H        0.926     0.028     2.608     2.526
    79   1 H        0.926     0.034     2.535     2.490
    80   1 H        0.925     0.030     2.588     2.516

molecular dipole:
                 x           y           z       tot (Debye)
 q only:       -0.748      -0.019       0.006
   full:       -0.803      -0.014      -0.002       2.042

 projected vibrational frequencies (cm⁻¹)
eigval :       -0.00    -0.00     0.00     0.00     0.00     0.00
eigval :        7.81    11.82    13.30    18.28    26.85    32.09
eigval :       44.47    51.18    58.18    60.98    64.29    71.99
eigval :       75.79    90.65    94.69    97.56   103.86   109.52
eigval :      140.11   145.34   164.41   184.86   195.58   203.00
eigval :      205.31   215.50   240.11   260.23   270.33   271.38
eigval :      286.17   292.92   303.41   323.46   349.36   368.30
eigval :      369.49   376.89   379.62   382.40   387.59   389.60
eigval :      390.40   403.15   421.68   434.88   440.75   452.98
eigval :      462.44   467.85   501.42   515.57   518.80   533.79
eigval :      535.34   539.90   578.35   579.66   583.16   585.82
eigval :      586.77   593.27   595.11   609.97   616.39   617.24
eigval :      622.18   658.49   660.08   666.17   672.76   673.99
eigval :      679.57   688.53   702.54   710.14   744.46   747.04
eigval :      752.44   755.73   769.17   774.86   780.37   814.11
eigval :      818.36   823.21   842.29   847.93   856.13   857.94
eigval :      865.51   867.79   870.29   870.88   871.56   882.27
eigval :      895.22   896.43   896.90   900.30   900.84   901.65
eigval :      915.43   918.29   920.94   922.59   923.68   923.85
eigval :      924.60   925.58   926.56   928.45   931.94   939.70
eigval :      940.16   944.96   958.58   969.18   982.25   990.05
eigval :     1002.45  1010.77  1014.99  1068.87  1072.27  1079.45
eigval :     1079.78  1081.00  1108.08  1115.84  1121.02  1123.83
eigval :     1131.80  1136.59  1146.65  1150.46  1169.35  1174.73
eigval :     1178.28  1179.00  1179.27  1179.44  1182.08  1193.73
eigval :     1193.87  1198.24  1207.25  1220.98  1234.77  1236.91
eigval :     1247.41  1252.62  1267.06  1272.92  1274.74  1278.25
eigval :     1285.54  1291.30  1298.30  1299.00  1311.72  1313.86
eigval :     1316.77  1322.84  1324.49  1327.98  1338.81  1343.46
eigval :     1355.41  1359.42  1361.66  1372.74  1411.00  1419.20
eigval :     1424.85  1426.00  1426.39  1428.86  1437.40  1445.71
eigval :     1453.89  1454.70  1464.37  1471.61  1472.90  1486.08
eigval :     1489.69  1501.81  1536.91  1540.59  1541.22  1552.98
eigval :     1566.60  1572.02  1577.24  1580.41  1586.15  1587.87
eigval :     1595.22  1606.21  1611.50  3052.32  3056.89  3065.06
eigval :     3065.53  3065.56  3066.21  3067.63  3067.81  3067.91
eigval :     3070.00  3071.06  3071.38  3076.56  3077.48  3077.52
eigval :     3078.04  3079.20  3079.95  3080.66  3081.90  3082.35
eigval :     3082.73  3083.84  3084.25  3085.70  3087.30  3088.62
eigval :     3089.33  3090.55  3091.11  3091.42  3093.47  3099.04

   temp. (K)  partition function   enthalpy   heat capacity  entropy
                                   cal/mol     cal/K/mol   cal/K/mol   J/K/mol
 298.15  VIB  0.121E+19            22453.984    141.879    141.265
         ROT  0.122E+09              888.752      2.981     39.975
         INT  0.147E+27            23342.737    144.860    181.241
         TR   0.142E+29             1481.254      4.968     45.037
         TOT                       24823.9905   149.8278   226.2778   946.7462

       T/K    H(0)-H(T)+PV         H(T)/Eh          T*S/Eh         G(T)/Eh
   ------------------------------------------------------------------------
    298.15    0.395595E-01    0.663673E+00    0.107512E+00    0.556161E+00
   ------------------------------------------------------------------------

         :::::::::::::::::::::::::::::::::::::::::::::::::::::
         ::                  THERMODYNAMIC                  ::
         :::::::::::::::::::::::::::::::::::::::::::::::::::::
         :: total free energy        -117.658504843749 Eh   ::
         ::.................................................::
         :: total energy             -118.214665868224 Eh   ::
         :: zero point energy           0.624113351182 Eh   ::
         :: G(RRHO) w/o ZPVE           -0.067952326707 Eh   ::
         :: G(RRHO) contrib.            0.556161024476 Eh   ::
         :::::::::::::::::::::::::::::::::::::::::::::::::::::

           -------------------------------------------------
          | TOTAL ENERGY             -118.214665868224 Eh   |
          | TOTAL ENTHALPY           -117.550992970056 Eh   |
          | TOTAL FREE ENERGY        -117.658504843749 Eh   |
          | GRADIENT NORM               0.000061136969 Eh/α |
          | HOMO-LUMO GAP               0.954319351098 eV   |
           -------------------------------------------------

 * finished run on 2025/08/24 at 18:10:42.542
