   * xtb version 6.7.1 (edcfbbe) compiled by 'albert@albert-system' on 2024-07-22

   ID    Z sym.   atoms
    1    6 C      1-20, 22-25, 27-47, 49-62, 64
    2    7 N      21, 26, 48, 63
    3    1 H      65-124

          program call               : xtb data2507/gas/BDQ-tBuCz/BDQ-tBuCz_gas_S0_crest.xyz --gfn 2 --ohess vtight --parallel 40 --molden --ceasefiles --namespace data2507/gas/BDQ-tBuCz/BDQ-tBuCz_gas_S0_finalOpt
          :  Hamiltonian                  GFN2-xTB          :
 * total energy  :  -170.9296153 Eh     change       -0.1974968E-08 Eh
 * total energy  :  -170.9296167 Eh     change       -0.1464570E-05 Eh
 * total energy  :  -170.9296182 Eh     change       -0.1463385E-05 Eh
 * total energy  :  -170.9296226 Eh     change       -0.4369968E-05 Eh
 * total energy  :  -170.9296246 Eh     change       -0.2041718E-05 Eh
 * total energy  :  -170.9296260 Eh     change       -0.1420646E-05 Eh
 * total energy  :  -170.9296275 Eh     change       -0.1486294E-05 Eh
 * total energy  :  -170.9296284 Eh     change       -0.9105273E-06 Eh
 * total energy  :  -170.9296291 Eh     change       -0.7014148E-06 Eh
 * total energy  :  -170.9296299 Eh     change       -0.7381158E-06 Eh
 * total energy  :  -170.9296305 Eh     change       -0.6487356E-06 Eh
 * total energy  :  -170.9296311 Eh     change       -0.5571478E-06 Eh
 * total energy  :  -170.9296316 Eh     change       -0.4920473E-06 Eh
 * total energy  :  -170.9296321 Eh     change       -0.5148330E-06 Eh
 * total energy  :  -170.9296326 Eh     change       -0.5400562E-06 Eh
 * total energy  :  -170.9296331 Eh     change       -0.4854224E-06 Eh
 * total energy  :  -170.9296335 Eh     change       -0.3906397E-06 Eh
 * total energy  :  -170.9296338 Eh     change       -0.2848848E-06 Eh
 * total energy  :  -170.9296338 Eh     change       -0.2300101E-07 Eh
   *** GEOMETRY OPTIMIZATION CONVERGED AFTER 19 ITERATIONS ***

 final structure:
================
124
 xtb: 6.7.1 (edcfbbe)
C            6.26300170492550        3.20212285819579       -2.79662910904163
C            6.56078456462225        1.72269910253310       -3.08081987389165
C            8.00425352357356        1.43850969786918       -2.65635373528284
C            6.44684814945522        1.44667834775392       -4.58649687331425
C            5.55089730019475        0.86914406020984       -2.32761005012373
C            4.19065734511983        1.00043972936921       -2.63883509376898
C            3.20020245824785        0.29765882090578       -1.98355015974553
C            3.57584467744932       -0.55544725730653       -0.95795020824932
C            4.94071130394339       -0.74517785404731       -0.66165877511412
C            5.91862744765814       -0.03047644724488       -1.34116098430473
C            4.99865970987672       -1.73677029816013        0.37707330830037
C            6.05162714586004       -2.31864894510028        1.07017751142495
C            5.79177619238743       -3.25515462953370        2.05720776395767
C            6.89489892393931       -3.94373758226167        2.84772988846235
C            6.72883156798629       -3.61609905078125        4.33835323274892
C            6.79442654637632       -5.46078026499409        2.63396047799982
C            8.29432734450126       -3.49632360060033        2.41647687289229
C            4.45712990794269       -3.57172109019384        2.34248593229176
C            3.39179856484924       -3.00879196194465        1.66929298123848
C            3.66513055993924       -2.09670964733597        0.66223917410207
N            2.80981180883705       -1.37713718693789       -0.15237756430757
C            1.41951646274280       -1.38760152458425       -0.08537541960324
C            0.69966259154230       -2.56387259499946       -0.06109970215742
C           -0.69292782554995       -2.56574317440082        0.04811286129170
C           -1.41487625653926       -1.39098371147993        0.07934854368545
N           -2.80511386996174       -1.38243817828052        0.14708825127660
C           -3.66013967146493       -2.09890932068784       -0.67047521954561
C           -3.38631605327963       -3.00427058378010       -1.68342988799872
C           -4.45146778844603       -3.56519022625982       -2.35857433800707
C           -5.78633799347450       -3.25300682257205       -2.06952616165158
C           -6.88923243980844       -3.93893762615734       -2.86264774016561
C           -6.78406130322839       -5.45722929949731       -2.66041661490548
C           -6.72715021758340       -3.59982107533942       -4.35113054698744
C           -8.28902074383767       -3.49870339480234       -2.42521080382519
C           -6.04670509366786       -2.32280232807630       -1.07670090965943
C           -4.99393963718260       -1.74301694775325       -0.38157308315021
C           -4.93645242814386       -0.75727439457695        0.66272260531414
C           -5.91485042193519       -0.04814133847151        1.34733883353904
C           -5.54760056311336        0.84647721198818        2.33850355666686
C           -6.55817691438995        1.69402957045561        3.09754734828304
C           -6.26261860948433        3.17553048442373        2.82195364143533
C           -6.44284505919464        1.40926576154323        4.60147616388767
C           -8.00153623581108        1.41036135515150        2.67231216045695
C           -4.18720852471980        0.97853792663078        2.64874618575183
C           -3.19622638368497        0.28149282291034        1.98813146112843
C           -3.57155237246580       -0.56671609333340        0.95835373740300
C           -0.70913190494762       -0.16194015922268        0.00471161972944
N           -1.37033360966494        0.99826905121112       -0.12820311574210
C           -0.70664187184787        2.12772872762539       -0.13089426327649
C           -1.47380021523245        3.34034348960120       -0.42895646209189
C           -0.93660142915032        4.36708082105022       -1.20279251126637
C           -1.68567222367377        5.49722806856631       -1.46903969761409
C           -2.97190308497886        5.61681923643452       -0.96760686217844
C           -3.51768137214892        4.58981510145749       -0.21474668111586
C           -2.77864613542834        3.45230273784359        0.04775020363671
C            0.70306860926684        2.12917690051522        0.13665927370932
C            1.46678539447457        3.34358304507273        0.43629613637248
C            0.92632621846809        4.36849343191314        1.21031006256371
C            1.67180713685951        5.50095985975043        1.47683145745988
C            2.95770945490169        5.62473469957107        0.97557357888190
C            3.50676955578053        4.59961015117977        0.22253524698909
C            2.77131556279373        3.45986177493909       -0.04028689337922
N            1.36963199079418        1.00137333044629        0.13144290316575
C            0.71148237422327       -0.16019798229735       -0.00525013107144
H            5.26019387359370        3.47333413264352       -3.11557509445931
H            6.34682707796925        3.39969791584463       -1.72973092717733
H            6.97286561257958        3.83741527538301       -3.32273426622643
H            8.27248040638203        0.40321170043616       -2.85391655809804
H            8.15078822069558        1.65009071853225       -1.59973511585743
H            8.68115511242681        2.07519718960276       -3.22293887624770
H            7.18786131804016        2.02816981537165       -5.13142533040053
H            6.61941843375707        0.39149237021779       -4.78827566262916
H            5.46411270894409        1.70958758089458       -4.96736943473181
H            3.89038449213761        1.67752680798824       -3.42455746660218
H            2.16591046674203        0.41922270975349       -2.26779088955618
H            6.95125494781227       -0.19454945450420       -1.08190184289503
H            7.05729905398977       -2.02162092622952        0.82361313573301
H            5.77736506165097       -3.97522191166322        4.72042788704206
H            7.52484342180941       -4.08177605139069        4.91592817760167
H            6.77322161415299       -2.54000047836174        4.49307363197358
H            6.89334709978097       -5.69801118415021        1.57661680909124
H            7.58738241002728       -5.96999652528676        3.17798220223110
H            5.84098264968367       -5.84845819597830        2.98164431976756
H            8.43119597324614       -2.42974559815912        2.57882515333788
H            9.04143594641418       -4.02403593497027        3.00619501400420
H            8.47190234618153       -3.72423605069801        1.36796980445721
H            4.23749889121250       -4.28432741615157        3.12298934492330
H            2.37837362822074       -3.26770695511326        1.93685526973682
H            1.22366590172508       -3.50547688901859       -0.12472855370669
H           -1.21494878550773       -3.50880824831453        0.10604232488071
H           -2.37271648369999       -3.25940761308600       -1.95394406956576
H           -4.23148872104636       -4.27253315215639       -3.14375814420532
H           -7.57710622034397       -5.96455996703519       -3.20607560425970
H           -5.83054137443568       -5.83987662662111       -3.01343802181969
H           -6.87960495073837       -5.70247383627591       -1.60459047439731
H           -5.77411556066883       -3.95065305589374       -4.73698072021198
H           -6.77792454662423       -2.52291858300469       -4.49805600186587
H           -7.52127905417584       -4.06591895600118       -4.93094385318385
H           -8.42965721209467       -2.43154232048641       -2.58035027356634
H           -8.46322135175817       -3.73387502288286       -1.37774872357372
H           -9.03594312449525       -4.02497349532752       -3.01646250476659
H           -7.05260426682517       -2.02911190368721       -0.82710668175009
H           -6.94746422936138       -0.21249170406640        1.08820019054447
H           -5.26011683369052        3.44632191711172        3.14219239845694
H           -6.97323390501902        3.80672479412286        3.35195026766124
H           -6.34697196604094        3.37924838277950        1.75625857780756
H           -5.45971708899716        1.66972735173242        4.98303306466887
H           -6.61552334685815        0.35297613465430        4.79730071337851
H           -7.18327521526186        1.98774896534670        5.15038797372207
H           -8.26785564942243        0.37326069768365        2.86282693484165
H           -8.14937279005166        1.62911780397316        1.61733171667961
H           -8.67900609705405        2.04185299205436        3.24400087074872
H           -3.88720194919239        1.65163797947637        3.43799024044721
H           -2.16180114102598        0.40364181937594        2.27165029705746
H            0.06067711593554        4.27246850073908       -1.60733650953312
H           -1.26412042256936        6.28876556465953       -2.07108453527773
H           -3.54980601329161        6.50648632616821       -1.17040860880947
H           -4.52370805901306        4.67587970401237        0.16863384415946
H           -3.19488409955076        2.64247932244731        0.62772220350354
H           -0.07080907402129        4.27094475131058        1.61449863757251
H            1.24756537937164        6.29121070381645        2.07867591697196
H            3.53280962410600        6.51615969314780        1.17863717275693
H            4.51261736959179        4.68879913167145       -0.16057649091009
H            3.19022470466974        2.65146813325845       -0.62029969568262

          :  Hamiltonian                  GFN2-xTB          :
         :: gradient norm              0.000127872658 Eh/a0 ::
         :: HOMO-LUMO gap              1.398583168913 eV    ::
         :: SCC energy              -173.938533514988 Eh    ::
         :: -> dispersion             -0.170289395720 Eh    ::
         :: repulsion energy           3.008899707857 Eh    ::

    * Orbital Energies and Occupations

         #    Occupation            Energy/Eh            Energy/eV
      -------------------------------------------------------------
         1        2.0000           -0.6791134             -18.4796
       ...           ...                  ...                  ...
       148        2.0000           -0.4048818             -11.0174
       149        2.0000           -0.4044469             -11.0056
       150        2.0000           -0.4022986             -10.9471
       151        2.0000           -0.4022203             -10.9450
       152        2.0000           -0.3959833             -10.7753
       153        2.0000           -0.3910012             -10.6397
       154        2.0000           -0.3906652             -10.6305
       155        2.0000           -0.3884985             -10.5716
       156        2.0000           -0.3677450             -10.0069
       157        2.0000           -0.3676229             -10.0035
       158        2.0000           -0.3577093              -9.7338
       159        2.0000           -0.3576633              -9.7325
       160        2.0000           -0.3431647              -9.3380 (HOMO)
       161                         -0.2917677              -7.9394 (LUMO)
       162                         -0.2643437              -7.1932
       163                         -0.2376514              -6.4668
       164                         -0.2349835              -6.3942
       165                         -0.2280882              -6.2066
       166                         -0.2247793              -6.1166
       167                         -0.2218505              -6.0369
       168                         -0.2187321              -5.9520
       169                         -0.2121055              -5.7717
       170                         -0.2118464              -5.7646
       171                         -0.2103965              -5.7252
       ...                                ...                  ...
       316                          0.7495346              20.3959
      -------------------------------------------------------------
                  HL-Gap            0.0513970 Eh            1.3986 eV

     #   Z          covCN         q      C6AA      α(0)
     1   6 C        3.762    -0.103    22.512     6.763
     2   6 C        3.903     0.026    20.085     6.370
     3   6 C        3.761    -0.107    22.583     6.774
     4   6 C        3.761    -0.105    22.550     6.769
     5   6 C        2.973    -0.002    28.080     8.692
     6   6 C        2.931    -0.040    28.986     8.829
     7   6 C        2.909    -0.044    29.083     8.843
     8   6 C        3.079     0.049    26.809     8.489
     9   6 C        3.068    -0.018    28.390     8.737
    10   6 C        2.918    -0.044    29.081     8.843
    11   6 C        3.068    -0.018    28.383     8.736
    12   6 C        2.918    -0.043    29.079     8.843
    13   6 C        2.973    -0.002    28.067     8.690
    14   6 C        3.903     0.026    20.087     6.371
    15   6 C        3.761    -0.105    22.552     6.770
    16   6 C        3.762    -0.105    22.553     6.770
    17   6 C        3.761    -0.107    22.587     6.775
    18   6 C        2.931    -0.039    28.980     8.829
    19   6 C        2.909    -0.053    29.316     8.878
    20   6 C        3.078     0.042    26.965     8.513
    21   7 N        2.801    -0.028    21.782     6.932
    22   6 C        2.908     0.049    26.910     8.506
    23   6 C        2.919    -0.049    29.229     8.866
    24   6 C        2.919    -0.049    29.229     8.866
    25   6 C        2.908     0.049    26.910     8.506
    26   7 N        2.801    -0.028    21.780     6.931
    27   6 C        3.078     0.042    26.965     8.513
    28   6 C        2.909    -0.053    29.316     8.878
    29   6 C        2.931    -0.039    28.980     8.829
    30   6 C        2.973    -0.002    28.067     8.690
    31   6 C        3.903     0.026    20.087     6.371
    32   6 C        3.762    -0.105    22.553     6.770
    33   6 C        3.761    -0.105    22.552     6.770
    34   6 C        3.761    -0.107    22.587     6.775
    35   6 C        2.918    -0.043    29.078     8.843
    36   6 C        3.068    -0.018    28.383     8.736
    37   6 C        3.068    -0.018    28.390     8.737
    38   6 C        2.918    -0.044    29.081     8.843
    39   6 C        2.973    -0.002    28.080     8.692
    40   6 C        3.903     0.026    20.085     6.370
    41   6 C        3.762    -0.103    22.512     6.763
    42   6 C        3.761    -0.105    22.550     6.769
    43   6 C        3.761    -0.107    22.583     6.774
    44   6 C        2.931    -0.040    28.986     8.829
    45   6 C        2.909    -0.044    29.083     8.843
    46   6 C        3.079     0.049    26.809     8.489
    47   6 C        2.963     0.067    26.495     8.443
    48   7 N        1.853    -0.228    26.833     7.678
    49   6 C        2.948     0.086    26.089     8.377
    50   6 C        2.983     0.007    27.848     8.656
    51   6 C        2.922    -0.029    28.735     8.791
    52   6 C        2.919    -0.028    28.712     8.787
    53   6 C        2.920    -0.028    28.692     8.784
    54   6 C        2.919    -0.027    28.680     8.782
    55   6 C        2.925    -0.027    28.667     8.780
    56   6 C        2.948     0.086    26.089     8.377
    57   6 C        2.982     0.007    27.848     8.656
    58   6 C        2.922    -0.029    28.735     8.791
    59   6 C        2.919    -0.028    28.712     8.787
    60   6 C        2.920    -0.028    28.692     8.784
    61   6 C        2.919    -0.027    28.681     8.782
    62   6 C        2.925    -0.027    28.668     8.781
    63   7 N        1.853    -0.228    26.833     7.678
    64   6 C        2.963     0.067    26.495     8.443
    65   1 H        0.925     0.035     2.520     2.482
    66   1 H        0.925     0.032     2.563     2.503
    67   1 H        0.925     0.035     2.522     2.484
    68   1 H        0.925     0.035     2.513     2.479
    69   1 H        0.925     0.035     2.510     2.477
    70   1 H        0.925     0.034     2.528     2.487
    71   1 H        0.925     0.035     2.518     2.481
    72   1 H        0.925     0.033     2.543     2.494
    73   1 H        0.925     0.035     2.516     2.480
    74   1 H        0.926     0.027     2.634     2.538
    75   1 H        0.926     0.020     2.736     2.586
    76   1 H        0.926     0.037     2.492     2.469
    77   1 H        0.926     0.037     2.484     2.464
    78   1 H        0.925     0.035     2.512     2.479
    79   1 H        0.925     0.035     2.512     2.479
    80   1 H        0.925     0.033     2.540     2.492
    81   1 H        0.925     0.033     2.544     2.494
    82   1 H        0.925     0.035     2.512     2.479
    83   1 H        0.925     0.035     2.512     2.479
    84   1 H        0.925     0.035     2.510     2.478
    85   1 H        0.925     0.034     2.525     2.485
    86   1 H        0.925     0.035     2.512     2.478
    87   1 H        0.926     0.028     2.608     2.525
    88   1 H        0.926     0.024     2.669     2.555
    89   1 H        0.926     0.049     2.336     2.390
    90   1 H        0.926     0.049     2.336     2.390
    91   1 H        0.926     0.024     2.669     2.555
    92   1 H        0.926     0.028     2.608     2.525
    93   1 H        0.925     0.035     2.513     2.479
    94   1 H        0.925     0.035     2.512     2.479
    95   1 H        0.925     0.033     2.544     2.494
    96   1 H        0.925     0.035     2.512     2.479
    97   1 H        0.925     0.033     2.540     2.492
    98   1 H        0.925     0.035     2.512     2.479
    99   1 H        0.925     0.035     2.510     2.478
   100   1 H        0.925     0.035     2.512     2.478
   101   1 H        0.925     0.034     2.525     2.485
   102   1 H        0.926     0.037     2.484     2.464
   103   1 H        0.926     0.037     2.492     2.469
   104   1 H        0.925     0.035     2.520     2.482
   105   1 H        0.925     0.035     2.522     2.484
   106   1 H        0.925     0.032     2.563     2.503
   107   1 H        0.925     0.035     2.516     2.480
   108   1 H        0.925     0.033     2.543     2.494
   109   1 H        0.925     0.035     2.518     2.481
   110   1 H        0.925     0.035     2.513     2.479
   111   1 H        0.925     0.035     2.510     2.477
   112   1 H        0.925     0.034     2.528     2.487
   113   1 H        0.926     0.027     2.634     2.538
   114   1 H        0.926     0.020     2.736     2.587
   115   1 H        0.926     0.029     2.598     2.521
   116   1 H        0.926     0.033     2.550     2.497
   117   1 H        0.926     0.034     2.537     2.491
   118   1 H        0.926     0.035     2.511     2.478
   119   1 H        0.926     0.052     2.294     2.369
   120   1 H        0.926     0.029     2.598     2.521
   121   1 H        0.926     0.033     2.550     2.497
   122   1 H        0.926     0.033     2.537     2.491
   123   1 H        0.926     0.035     2.511     2.478
   124   1 H        0.926     0.052     2.294     2.368

molecular dipole:
                 x           y           z       tot (Debye)
 q only:       -0.000       0.350      -0.000
   full:       -0.000       0.363      -0.001       0.922

 projected vibrational frequencies (cm⁻¹)
eigval :       -0.00    -0.00    -0.00     0.00     0.00     0.00
eigval :       10.60    10.82    13.79    15.94    24.30    26.72
eigval :       31.03    31.10    34.56    34.62    41.36    46.67
eigval :       51.00    56.13    60.36    62.20    70.31    73.83
eigval :       77.20    83.36    84.86    94.10   112.84   117.83
eigval :      135.71   140.65   154.24   156.76   160.66   161.62
eigval :      171.00   171.33   186.37   187.91   193.29   193.85
eigval :      204.42   204.44   217.07   219.43   220.51   223.32
eigval :      225.56   230.07   230.17   238.49   259.26   259.87
eigval :      269.50   270.93   279.91   282.54   292.67   292.79
eigval :      316.84   317.20   321.30   321.69   327.56   332.98
eigval :      336.96   338.65   342.21   345.23   353.36   360.25
eigval :      360.71   370.65   373.12   377.45   378.57   388.68
eigval :      395.90   400.28   406.30   411.35   412.46   420.25
eigval :      433.53   441.78   442.73   443.59   443.70   455.95
eigval :      461.29   465.78   465.97   468.61   471.90   473.97
eigval :      509.46   514.82   521.05   537.64   544.99   554.59
eigval :      557.78   574.73   582.14   586.34   586.80   588.66
eigval :      589.17   593.61   606.26   610.45   629.63   639.88
eigval :      639.90   644.13   644.74   662.49   668.89   680.34
eigval :      688.05   688.14   697.22   705.52   706.50   709.86
eigval :      719.28   719.65   722.84   738.44   750.13   763.33
eigval :      774.99   819.24   821.13   822.90   823.59   829.48
eigval :      830.13   848.88   863.19   865.13   870.54   871.19
eigval :      872.76   874.73   874.91   875.29   878.13   880.03
eigval :      905.39   907.92   908.76   914.77   914.87   914.92
eigval :      921.57   926.12   927.08   928.26   930.10   931.78
eigval :      932.63   932.93   935.38   938.84   960.26   960.27
eigval :      960.34   960.34   962.63   962.64   962.90   962.91
eigval :      963.23   963.23   964.10   964.17   973.66  1005.46
eigval :     1030.55  1031.43  1035.37  1035.41  1035.87  1035.88
eigval :     1036.05  1036.14  1040.77  1041.91  1066.51  1066.54
eigval :     1082.30  1083.16  1109.02  1121.77  1121.78  1125.72
eigval :     1130.80  1131.46  1131.55  1147.66  1164.00  1178.23
eigval :     1178.44  1181.12  1181.15  1195.46  1197.49  1208.27
eigval :     1211.56  1228.20  1228.22  1228.31  1228.32  1231.12
eigval :     1232.02  1232.80  1232.85  1237.81  1237.91  1239.92
eigval :     1244.68  1255.77  1258.55  1263.65  1266.56  1276.93
eigval :     1278.45  1282.01  1285.14  1288.81  1296.30  1306.88
eigval :     1310.16  1313.98  1314.09  1322.22  1322.42  1343.01
eigval :     1348.84  1349.55  1358.85  1360.15  1371.37  1392.94
eigval :     1396.53  1402.33  1402.78  1404.56  1404.66  1405.85
eigval :     1405.88  1405.99  1406.00  1413.24  1413.96  1429.21
eigval :     1429.32  1429.38  1429.47  1429.52  1430.04  1437.31
eigval :     1447.27  1453.29  1466.50  1478.22  1480.00  1482.68
eigval :     1483.17  1485.63  1485.64  1492.54  1492.54  1492.61
eigval :     1492.61  1495.36  1495.38  1495.50  1495.52  1501.85
eigval :     1501.90  1502.22  1502.24  1505.93  1505.94  1506.08
eigval :     1506.08  1514.97  1514.98  1515.17  1515.18  1520.53
eigval :     1520.53  1521.36  1521.40  1523.45  1537.39  1562.96
eigval :     1569.93  1573.89  1579.72  1580.95  1582.75  1583.36
eigval :     1594.51  1597.21  1603.78  1603.94  1616.32  1616.97
eigval :     3019.69  3019.74  3020.49  3020.51  3020.62  3020.64
eigval :     3021.76  3021.77  3025.34  3025.38  3026.90  3026.91
eigval :     3028.35  3028.42  3029.24  3029.44  3030.02  3030.06
eigval :     3031.01  3031.03  3035.28  3035.29  3035.65  3035.68
eigval :     3037.48  3037.51  3037.77  3037.86  3044.72  3044.79
eigval :     3046.91  3046.91  3049.93  3049.97  3050.35  3050.39
eigval :     3073.97  3074.42  3077.74  3077.79  3078.14  3078.61
eigval :     3078.88  3079.07  3085.23  3085.66  3090.36  3090.40
eigval :     3091.22  3092.13  3092.43  3092.65  3092.96  3100.76
eigval :     3101.00  3101.75  3114.59  3114.61  3118.03  3118.11

   temp. (K)  partition function   enthalpy   heat capacity  entropy
                                   cal/mol     cal/K/mol   cal/K/mol   J/K/mol
 298.15  VIB  0.365E+28            35772.237    219.806    222.063
         ROT  0.998E+08              888.752      2.981     39.583
         INT  0.364E+36            36660.989    222.787    261.646
         TR   0.234E+29             1481.254      4.968     46.031
         TOT                       38142.2434   227.7554   307.6768  1287.3195

       T/K    H(0)-H(T)+PV         H(T)/Eh          T*S/Eh         G(T)/Eh
   ------------------------------------------------------------------------
    298.15    0.607835E-01    0.108521E+01    0.146187E+00    0.939021E+00
   ------------------------------------------------------------------------

         :::::::::::::::::::::::::::::::::::::::::::::::::::::
         ::                  THERMODYNAMIC                  ::
         :::::::::::::::::::::::::::::::::::::::::::::::::::::
         :: total free energy        -169.990613229383 Eh   ::
         ::.................................................::
         :: total energy             -170.929633807128 Eh   ::
         :: zero point energy           1.024424196391 Eh   ::
         :: G(RRHO) w/o ZPVE           -0.085403618646 Eh   ::
         :: G(RRHO) contrib.            0.939020577745 Eh   ::
         :::::::::::::::::::::::::::::::::::::::::::::::::::::

           -------------------------------------------------
          | TOTAL ENERGY             -170.929633807128 Eh   |
          | TOTAL ENTHALPY           -169.844426076871 Eh   |
          | TOTAL FREE ENERGY        -169.990613229383 Eh   |
          | GRADIENT NORM               0.000127861744 Eh/α |
          | HOMO-LUMO GAP               1.398582554331 eV   |
           -------------------------------------------------

 * finished run on 2025/07/21 at 03:19:46.543
