   * xtb version 6.7.1 (edcfbbe) compiled by 'albert@albert-system' on 2024-07-22

   ID    Z sym.   atoms
    1    6 C      1-20, 22-25, 27-47, 49-62, 64
    2    7 N      21, 26, 48, 63
    3    1 H      65-124

          program call               : xtb data2507/gas/BDQ-tBuCz/BDQ-tBuCz_gas_S0_finalOpt.xtbopt.xyz --gfn 2 --spinpol --tblite --uhf 2 --ohess vtight --parallel 40 --molden --ceasefiles --namespace data2507/gas/BDQ-tBuCz/BDQ-tBuCz_gas_T1_preOpt
 * total energy  :  -170.8765808 Eh     change       -0.1696122E-08 Eh
 * total energy  :  -170.8797036 Eh     change       -0.3122829E-02 Eh
 * total energy  :  -170.8805728 Eh     change       -0.8691672E-03 Eh
 * total energy  :  -170.8807043 Eh     change       -0.1315232E-03 Eh
 * total energy  :  -170.8807746 Eh     change       -0.7031046E-04 Eh
 * total energy  :  -170.8807968 Eh     change       -0.2219285E-04 Eh
 * total energy  :  -170.8808207 Eh     change       -0.2385989E-04 Eh
 * total energy  :  -170.8808464 Eh     change       -0.2568846E-04 Eh
 * total energy  :  -170.8808745 Eh     change       -0.2808686E-04 Eh
 * total energy  :  -170.8809011 Eh     change       -0.2661823E-04 Eh
 * total energy  :  -170.8810844 Eh     change       -0.3805523E-06 Eh
 * total energy  :  -170.8810849 Eh     change       -0.4328759E-06 Eh
 * total energy  :  -170.8810852 Eh     change       -0.3329138E-06 Eh
 * total energy  :  -170.8810855 Eh     change       -0.3327074E-06 Eh
 * total energy  :  -170.8810858 Eh     change       -0.2529409E-06 Eh
 * total energy  :  -170.8810860 Eh     change       -0.2453632E-06 Eh
 * total energy  :  -170.8810863 Eh     change       -0.2359604E-06 Eh
 * total energy  :  -170.8810865 Eh     change       -0.2504465E-06 Eh
 * total energy  :  -170.8810865 Eh     change       -0.1179956E-07 Eh
   *** GEOMETRY OPTIMIZATION CONVERGED AFTER 68 ITERATIONS ***

 final structure:
================
124
 xtb: 6.7.1 (edcfbbe)
C            6.25795917301668        3.14005577834648       -2.88820916425636
C            6.55294892841511        1.65463985093056       -3.14188116627515
C            7.99492467583258        1.37548578864223       -2.70879824622851
C            6.44141730515412        1.34858817462750       -4.64209310631961
C            5.53901993091537        0.81949452092885       -2.37445259050759
C            4.18121635450451        0.93962887068829       -2.69755178741289
C            3.18757662852883        0.24471964697106       -2.03654962102708
C            3.56236192725020       -0.58861951411413       -0.99264865337397
C            4.92721359995620       -0.75902706153675       -0.67515092346020
C            5.90504205599457       -0.05663655898246       -1.36239627444710
C            4.97730890133963       -1.72462580194734        0.39046894079457
C            6.02221037075179       -2.28945834256219        1.10657935133507
C            5.75107717492298       -3.20307491225253        2.11436412621858
C            6.84663780207466       -3.87432089683177        2.92931469478658
C            6.66900263924480       -3.51169892399099        4.41050009927937
C            6.74445190295918       -5.39582606823830        2.75009636470510
C            8.25043336701503       -3.43978425712406        2.49902747417483
C            4.41388512391649       -3.51167354158375        2.39478821319971
C            3.35523444789420       -2.96450738033754        1.69763276049248
C            3.64032036171685       -2.07857391395221        0.67055845822964
N            2.79437819211445       -1.39522210839318       -0.18245419452464
C            1.40080376658187       -1.39509535582768       -0.12682976442251
C            0.68694390274081       -2.59872990822941       -0.07231655766060
C           -0.68053626358377       -2.60036733673748        0.06294162140650
C           -1.39678338729530       -1.39837661622395        0.12220397577401
N           -2.79035428984966       -1.40145494685172        0.17793022554572
C           -3.63506641505871       -2.08304098445411       -0.67771149280405
C           -3.34838729072986       -2.96444542760938       -1.70823163385784
C           -4.40605657132012       -3.51085854699087       -2.40746470192723
C           -5.74380366906555       -3.20580809878177       -2.12580858806569
C           -6.83816098076186       -3.87593215858739       -2.94329685040516
C           -6.73335590180122       -5.39790081310190       -2.76961272233321
C           -6.66108069647935       -3.50761618912640       -4.42314304954749
C           -8.24272675041444       -3.44537464698662       -2.51152553320819
C           -6.01658168873408       -2.29663554629236       -1.11445710086041
C           -4.97269514029285       -1.73267856769286       -0.39617684710080
C           -4.92434652312514       -0.77118356252216        0.67322709745901
C           -5.90344390092019       -0.07333708265667        1.36329426830945
C           -5.53899531880890        0.79948008918795        2.37877405190887
C           -6.55443082031003        1.62971242139247        3.14953588125694
C           -6.26237501783369        3.11665284229248        2.90146340700413
C           -6.44206750787810        1.31818859163907        4.64855872031271
C           -7.99592836990703        1.34938620209005        2.71562013992726
C           -4.18139726751847        0.92089355016013        2.70225893800893
C           -3.18650288320622        0.23044713976881        2.03847364342521
C           -3.55980044694707       -0.59947684053497        0.99132556255277
C           -0.71695174742500       -0.17018465391997        0.04654550991891
N           -1.35232125507302        0.99890621747228        0.00160303122360
C           -0.70297920388890        2.16081732950056       -0.05876743945165
C           -1.50064925972636        3.36452701360208       -0.27986019818713
C           -1.04030066830874        4.40424450799509       -1.08891932591336
C           -1.82314503245571        5.52211698274658       -1.29779595683896
C           -3.07651820600260        5.61872304498112       -0.71350022683359
C           -3.55124689912645        4.57798055515233        0.06785291656631
C           -2.77562446420934        3.45489347632429        0.27984015497560
C            0.69986737010341        2.16197229518037        0.06798622412151
C            1.49507652467142        3.36645451321569        0.29371864458637
C            1.03258655462541        4.40213317201504        1.10672389410084
C            1.81312627457729        5.52081510416810        1.31985966252461
C            3.06629899124488        5.62222299453610        0.73594825219253
C            3.54317846344374        4.58543328298667       -0.04934042192832
C            2.76986932092709        3.46156570178722       -0.26560559831558
N            1.35152624080802        1.00162964135082        0.00310915892310
C            0.71853082818026       -0.16855504005118       -0.04639755795890
H            5.25494521633293        3.40623691736776       -3.21061535720969
H            6.34497907896307        3.35928723447277       -1.82584036580945
H            6.96797123700605        3.76268514146813       -3.42893036161406
H            8.26035164892125        0.33504187887708       -2.88186561503478
H            8.14146457831610        1.61190494857817       -1.65745298177327
H            8.67427540549624        1.99660124377324       -3.28941701190852
H            7.18789916441068        1.91449268242000       -5.19573639609445
H            6.60823392653403        0.28856842499923       -4.82225831121125
H            5.46187747938909        1.61027299952049       -5.03172806393505
H            3.88477333511290        1.60032864631987       -3.49838302671586
H            2.15567182338738        0.34954711904598       -2.33257083351007
H            6.93703960038762       -0.20850788627887       -1.09350435170188
H            7.03099087294001       -2.00116988784250        0.86247720334383
H            5.71353699033096       -3.85947889430698        4.79299355746261
H            7.45904832901372       -3.96595574132960        5.00498938821406
H            6.71523426276401       -2.43246244276894        4.54067750540212
H            6.84961786764576       -5.65776323456321        1.69921944529164
H            7.53320163551405       -5.89333679305511        3.31069505706007
H            5.78829714820411       -5.77392516356465        3.10078284663506
H            8.38852442977962       -2.36998681511598        2.63736666303408
H            8.99146215607079       -3.95487428426971        3.10719793096320
H            8.43628250133213       -3.69304057601388        1.45778838318540
H            4.18652536252540       -4.20436005923001        3.19070558489558
H            2.33823809755427       -3.21452272605884        1.95910401903142
H            1.22979634156206       -3.52800933110718       -0.14780402220198
H           -1.22152960971003       -3.53101811025951        0.13477371279415
H           -2.33094287948199       -3.21156622441127       -1.97070749726410
H           -4.17745261444181       -4.20004566728536       -3.20605931139239
H           -7.52115739347711       -5.89473944178258       -3.33213731989406
H           -5.77648733500936       -5.77304271042365       -3.12152869142847
H           -6.83821306786991       -5.66384832108106       -1.71971241394862
H           -5.70503573966653       -3.85241715906620       -4.80688131444677
H           -6.70910095029780       -2.42799089059493       -4.54938717604287
H           -7.45035683595721       -3.96101275421789       -5.01930936238263
H           -8.38259942827276       -2.37530030010910       -2.64588037168757
H           -8.42825261369420       -3.70283235880751       -1.47126010713655
H           -8.98283040783717       -3.95943696403243       -3.12168883137657
H           -7.02588132267488       -2.01116075414468       -0.86919825700117
H           -6.93517290774992       -0.22608107214539        1.09386758291954
H           -5.25979706665178        3.38353452552706        3.22464783206841
H           -6.97345895866803        3.73584521021984        3.44471685509970
H           -6.35007136281498        3.33976150109896        1.83995803679545
H           -5.46300797966000        1.58037478087023        5.03906162081773
H           -6.60671729456279        0.25715767161572        4.82471873965939
H           -7.18961379486320        1.88047701396921        5.20444489426353
H           -8.25927037399704        0.30776243294522        2.88473138111227
H           -8.14311958095240        1.58955482387852        1.66521650395380
H           -8.67640066520104        1.96692705138442        3.29873294987230
H           -3.88613548256864        1.57900306424214        3.50565396350525
H           -2.15477857336013        0.33603544281698        2.33485049020045
H           -0.07211752892378        4.32848195999937       -1.56158755514554
H           -1.45628104019553        6.32169092806008       -1.92486940933406
H           -3.68329449293985        6.49750385764863       -0.87512997466603
H           -4.53218947101270        4.64255126280856        0.51562202615028
H           -3.14334347099670        2.63887421484403        0.88324602108412
H            0.06456014379796        4.32258298450926        1.57909272007614
H            1.44460949863503        6.31724430322368        1.94995828254785
H            3.67125658335954        6.50163804891724        0.90091459217057
H            4.52399148997952        4.65372295119529       -0.49684407129793
H            3.13927460280597        2.64860163055892       -0.87209940305455

 projected vibrational frequencies (cm⁻¹)
eigval :       -0.00    -0.00     0.00     0.00     0.00     0.00
eigval :       10.75    10.97    15.80    16.28    27.00    30.68
eigval :       31.49    32.74    34.54    35.66    42.66    47.64
eigval :       49.24    54.60    60.56    62.85    71.85    73.55
eigval :       77.63    82.48    87.26    94.54   114.68   116.75
eigval :      134.53   143.42   155.00   158.45   160.51   163.04
eigval :      171.08   171.56   187.27   188.20   194.47   194.62
eigval :      204.16   204.68   216.98   219.57   219.75   223.80
eigval :      225.52   229.55   230.25   234.34   259.59   259.79
eigval :      269.28   269.38   277.38   279.18   292.80   293.05
eigval :      317.08   317.69   321.28   322.18   327.38   327.78
eigval :      329.68   338.27   341.75   344.04   351.32   359.91
eigval :      360.15   371.33   373.04   374.79   380.13   384.62
eigval :      386.23   399.09   404.84   410.08   410.22   413.78
eigval :      434.79   442.02   442.32   444.76   444.93   455.45
eigval :      460.48   465.70   466.10   467.08   478.70   479.94
eigval :      507.58   513.58   520.94   529.59   538.80   548.21
eigval :      557.68   575.04   575.79   581.71   586.49   588.88
eigval :      589.67   590.95   593.81   604.79   623.75   633.88
eigval :      635.53   640.49   640.70   644.51   664.42   668.01
eigval :      672.41   676.05   689.67   689.73   706.06   707.39
eigval :      709.35   718.53   718.63   721.48   739.75   759.23
eigval :      759.57   813.03   821.91   823.26   823.79   829.16
eigval :      829.66   830.81   859.00   860.16   869.11   869.62
eigval :      870.90   872.70   874.01   874.24   874.80   876.57
eigval :      898.85   899.72   902.27   914.44   914.51   914.89
eigval :      917.66   918.41   924.86   926.30   928.02   928.77
eigval :      928.92   930.76   934.22   934.50   960.23   960.23
eigval :      960.33   960.33   962.49   962.50   962.96   962.96
eigval :      963.02   963.03   964.82   964.87   973.13  1000.75
eigval :     1030.44  1030.47  1034.50  1035.08  1035.45  1035.50
eigval :     1035.52  1035.86  1039.63  1040.70  1046.04  1062.73
eigval :     1082.90  1083.56  1114.95  1120.18  1121.18  1122.31
eigval :     1130.15  1130.27  1130.73  1152.49  1155.25  1172.92
eigval :     1172.99  1180.66  1180.72  1193.56  1197.98  1204.30
eigval :     1207.75  1227.18  1227.56  1227.63  1227.70  1227.75
eigval :     1228.34  1231.74  1231.82  1232.62  1233.80  1236.15
eigval :     1236.48  1242.18  1251.07  1257.77  1265.89  1266.22
eigval :     1273.48  1281.11  1283.37  1285.03  1286.43  1298.92
eigval :     1302.64  1303.54  1306.50  1319.76  1321.05  1325.23
eigval :     1333.27  1347.57  1351.25  1352.51  1352.84  1361.10
eigval :     1391.02  1397.20  1401.36  1402.08  1404.26  1404.28
eigval :     1405.47  1405.51  1405.55  1405.56  1410.12  1411.10
eigval :     1422.84  1427.81  1428.09  1428.14  1428.18  1428.18
eigval :     1431.80  1439.07  1444.98  1451.41  1470.19  1473.48
eigval :     1473.78  1475.07  1481.53  1481.61  1491.51  1491.51
eigval :     1491.66  1491.66  1492.01  1494.56  1494.57  1494.73
eigval :     1494.73  1501.06  1501.06  1501.19  1501.20  1504.92
eigval :     1504.93  1504.94  1504.94  1514.41  1514.42  1514.63
eigval :     1514.63  1519.99  1520.00  1520.82  1520.85  1527.79
eigval :     1566.32  1566.37  1572.38  1572.48  1580.03  1580.35
eigval :     1589.95  1590.09  1592.59  1592.84  1607.12  1609.08
eigval :     3020.45  3020.45  3021.10  3021.11  3021.50  3021.50
eigval :     3022.52  3022.52  3025.52  3025.52  3026.94  3026.94
eigval :     3028.69  3028.80  3029.46  3029.60  3029.66  3029.83
eigval :     3030.86  3030.87  3035.08  3035.09  3035.63  3035.64
eigval :     3037.36  3037.40  3037.80  3037.93  3045.06  3045.08
eigval :     3046.98  3046.99  3050.44  3050.44  3050.62  3050.63
eigval :     3072.11  3072.43  3076.70  3077.08  3082.29  3082.42
eigval :     3083.76  3083.90  3085.01  3085.89  3091.28  3091.96
eigval :     3092.98  3094.22  3094.86  3098.44  3098.55  3101.83
eigval :     3101.86  3104.81  3115.14  3115.15  3118.72  3118.90

   temp. (K)  partition function   enthalpy   heat capacity  entropy
                                   cal/mol     cal/K/mol   cal/K/mol   J/K/mol
 298.15  VIB  0.231E+28            35867.973    220.897    222.234
         ROT  0.994E+08              888.752      2.981     39.576
         INT  0.230E+36            36756.725    223.878    261.809
         TR   0.234E+29             1481.254      4.968     46.031
         TOT                       38237.9789   228.8460   307.8402  1288.0032

       T/K    H(0)-H(T)+PV         H(T)/Eh          T*S/Eh         G(T)/Eh
   ------------------------------------------------------------------------
    298.15    0.609361E-01    0.108306E+01    0.146265E+00    0.936796E+00
   ------------------------------------------------------------------------

         :::::::::::::::::::::::::::::::::::::::::::::::::::::
         ::                  THERMODYNAMIC                  ::
         :::::::::::::::::::::::::::::::::::::::::::::::::::::
         :: total free energy        -169.944290095500 Eh   ::
         ::.................................................::
         :: total energy             -170.881086517300 Eh   ::
         :: zero point energy           1.022125119333 Eh   ::
         :: G(RRHO) w/o ZPVE           -0.085328697534 Eh   ::
         :: G(RRHO) contrib.            0.936796421799 Eh   ::
         :::::::::::::::::::::::::::::::::::::::::::::::::::::

           -------------------------------------------------
          | TOTAL ENERGY             -170.881086517300 Eh   |
          | TOTAL ENTHALPY           -169.798025299828 Eh   |
          | TOTAL FREE ENERGY        -169.944290095500 Eh   |
          | GRADIENT NORM               0.000050716317 Eh/α |
           -------------------------------------------------

 * finished run on 2025/07/21 at 03:20:10.699
