   * xtb version 6.7.1 (edcfbbe) compiled by 'albert@albert-system' on 2024-07-22

   ID    Z sym.   atoms
    1    6 C      1-20, 22-25, 27-47, 49-62, 64
    2    7 N      21, 26, 48, 63
    3    1 H      65-124

          program call               : xtb data2507/gas/BDQ-tBuCz/BDQ-tBuCz.xyz --gfn 2 --ohess vtight --parallel 40 --molden --ceasefiles --namespace data2507/gas/BDQ-tBuCz/BDQ-tBuCz_gas_S0_preOpt
          :  Hamiltonian                  GFN2-xTB          :
 * total energy  :  -170.8924263 Eh     change       -0.2311936E-08 Eh
 * total energy  :  -170.9147570 Eh     change       -0.2233065E-01 Eh
 * total energy  :  -170.9222403 Eh     change       -0.7483336E-02 Eh
 * total energy  :  -170.9241533 Eh     change       -0.1913039E-02 Eh
 * total energy  :  -170.9252496 Eh     change       -0.1096253E-02 Eh
 * total energy  :  -170.9257310 Eh     change       -0.4814155E-03 Eh
 * total energy  :  -170.9260668 Eh     change       -0.3358034E-03 Eh
 * total energy  :  -170.9263274 Eh     change       -0.2605551E-03 Eh
 * total energy  :  -170.9265327 Eh     change       -0.2053667E-03 Eh
 * total energy  :  -170.9266832 Eh     change       -0.1504703E-03 Eh
 * total energy  :  -170.9293088 Eh     change       -0.4550761E-06 Eh
 * total energy  :  -170.9293093 Eh     change       -0.4528034E-06 Eh
 * total energy  :  -170.9293097 Eh     change       -0.4241247E-06 Eh
 * total energy  :  -170.9293101 Eh     change       -0.4087550E-06 Eh
 * total energy  :  -170.9293105 Eh     change       -0.3721418E-06 Eh
 * total energy  :  -170.9293108 Eh     change       -0.3472420E-06 Eh
 * total energy  :  -170.9293111 Eh     change       -0.3062416E-06 Eh
 * total energy  :  -170.9293114 Eh     change       -0.3030688E-06 Eh
 * total energy  :  -170.9293114 Eh     change       -0.2474906E-08 Eh
   *** GEOMETRY OPTIMIZATION CONVERGED AFTER 94 ITERATIONS ***

 final structure:
================
124
 xtb: 6.7.1 (edcfbbe)
C            6.33467733167366        3.15540020259621       -2.75036383302861
C            6.64195435420304        1.66489325698231       -2.95510087621474
C            8.07040339036666        1.40321521905143       -2.46969471302110
C            6.57876108965959        1.31881408544598       -4.44928956852055
C            5.60750943164586        0.84480547811680       -2.19801966600141
C            4.25849192053173        0.96004041848044       -2.55976002557315
C            3.24729027251175        0.28203040480106       -1.90988841511694
C            3.58963806479638       -0.52881879888323       -0.83951588889142
C            4.94337441011870       -0.69908597653509       -0.48654223709432
C            5.94251866439161       -0.01000147008306       -1.16107430236552
C            4.96659953488047       -1.64565324232355        0.59524261970187
C            5.98733443657588       -2.18885619618837        1.35801256305736
C            5.69358005927197       -3.08389568466121        2.37870833976100
C            6.83457282889051       -3.67026238543151        3.19846036028248
C            6.35481088501702       -4.64293241387626        4.27921721663635
C            7.78403496540445       -4.43157636900633        2.26239082002448
C            7.59242182245950       -2.52785726647406        3.88982080924480
C            4.35475205186749       -3.40173520871031        2.62078390786235
C            3.31599108074489       -2.87457986076787        1.87448195464421
C            3.62367112469570       -2.00363560284677        0.84384435495811
N            2.79749946341612       -1.32293672979200       -0.03189505065014
C            1.40547078087785       -1.33123888928469       -0.01143654882361
C            0.68311617523485       -2.50569382058026        0.01429161828769
C           -0.71261610056441       -2.50252720790885        0.07417537672210
C           -1.43103152525214       -1.32548348774393        0.06290127055574
N           -2.82304107221157       -1.31147794277445        0.08514365949766
C           -3.65347146441339       -2.01690169204948       -0.76615260190100
C           -3.34949447248477       -2.92159144399544       -1.77092837928376
C           -4.39304748505595       -3.46478260335061       -2.49270876701911
C           -5.73452172740174       -3.13609248461560       -2.25722660802506
C           -6.81205957250830       -3.79649731262236       -3.10508167325641
C           -6.73795792652481       -5.31862093939884       -2.91913518676601
C           -6.58080176781490       -3.44063932267532       -4.58054077456135
C           -8.22294674869461       -3.34071471296200       -2.72263976700929
C           -6.02413876219509       -2.21134466610469       -1.26736975987119
C           -4.99365654234326       -1.64872958600254       -0.52625394515340
C           -4.96590650654831       -0.66893015571016        0.52489968621709
C           -5.96203185787790        0.04340925450939        1.18000427591771
C           -5.62250215471588        0.92946549689846        2.18862454052640
C           -6.65332358524887        1.77487157453643        2.92247541268704
C           -6.34291551388011        3.25771650630940        2.67195430494531
C           -6.58772671835556        1.47416881457728        4.42635317070144
C           -8.08342629743431        1.50210254389730        2.44818359213082
C           -4.27221660998249        1.05329675569943        2.54341123908560
C           -3.26409346653214        0.35307454867769        1.91285300081864
C           -3.61089689783726       -0.49043111884862        0.86941467884371
C           -0.72075348998602       -0.09887227738354       -0.00763795165505
N           -1.37704205395849        1.06069522852943       -0.16929377453356
C           -0.71015114999272        2.18843406297940       -0.17427804364994
C           -1.47213589559199        3.39885777415916       -0.49489762103881
C           -0.92738014014804        4.41463602047175       -1.27772124212799
C           -1.67289605942062        5.54211788689611       -1.56469700300417
C           -2.96293146985640        5.66985244827782       -1.07521076485920
C           -3.51609900417447        4.65345048545647       -0.31342932204082
C           -2.78062995829686        3.51860189054111       -0.03025466258884
C            0.69544083031847        2.19088170559609        0.11292202248371
C            1.46086659032069        3.40874976511987        0.39479878999524
C            0.91875209412601        4.45060959876282        1.14449176393336
C            1.66723547136907        5.58473604666305        1.39526351125962
C            2.95766822985217        5.69324522700714        0.90220424806956
C            3.50822150848252        4.65139966251879        0.17363451878798
C            2.76975538148629        3.51000933053238       -0.07310291978803
N            1.35896124084897        1.06153922801053        0.14380054025173
C            0.69916806810083       -0.10064208390920        0.01928506328186
H            5.34350251182143        3.41003059049159       -3.11588012002827
H            6.38176702016138        3.40240746519589       -1.69155385870316
H            7.06225366071838        3.76665367280241       -3.28072418482682
H            8.34510735334761        0.36021158345398       -2.60943398672070
H            8.18146611470071        1.66445552149256       -1.41986146731944
H            8.76590688626700        2.01360787355910       -3.04264232744380
H            7.33697310521189        1.87620439659981       -4.99574717132512
H            6.75911802007872        0.25582396909729       -4.59574364419031
H            5.60898152488348        1.56101517741634       -4.87453225030374
H            3.98417502520138        1.60344484025308       -3.38242290524268
H            2.22255499245015        0.38955309403107       -2.23215705730986
H            6.96590652070793       -0.15865645518701       -0.85928527379960
H            7.00563218031995       -1.89995726828755        1.14783142787655
H            5.82578892193507       -5.48609718643494        3.84093497188239
H            7.21381220734209       -5.03186088400140        4.82273476655308
H            5.70409557492479       -4.14479523312524        4.99420017638292
H            7.24918719400415       -5.23220079476604        1.75550460894905
H            8.20734892564060       -3.77491052427441        1.50760124303611
H            8.60222148662794       -4.86877317717095        2.83117448942808
H            6.91937623719567       -1.96853827453826        4.53642420766606
H            8.40265099452365       -2.92718919077446        4.49658126004123
H            8.01749562742678       -1.83893471169037        3.16536464258559
H            4.09836000391658       -4.07967218016795        3.41801064550201
H            2.29377405592878       -3.13170502676516        2.10869097481087
H            1.20742425805319       -3.44903721801711       -0.00962688797249
H           -1.23995132758022       -3.44294927691658        0.12823823692575
H           -2.32861559076311       -3.18855821799792       -1.99978438087277
H           -4.15018639064217       -4.17022828540645       -3.27283924378200
H           -7.51460009534824       -5.80661171626068       -3.50459255102227
H           -5.77616321195702       -5.71130536618138       -3.23689402351294
H           -6.88174221131692       -5.57597796755948       -1.87171068946748
H           -5.61798875029495       -3.80261467194756       -4.93015434420511
H           -6.60730990657344       -2.36115675381666       -4.71445499088270
H           -7.35694627032493       -3.88527959678481       -5.20020145039256
H           -8.34129614020409       -2.26976456172293       -2.87006994734484
H           -8.44561620754851       -3.58593462730168       -1.68673188363907
H           -8.95118138534620       -3.84845770115383       -3.35217760491917
H           -7.03584949255067       -1.90765540790141       -1.05618893378306
H           -6.98643227816596       -0.11250464473036        0.88546732809844
H           -5.35057885041885        3.52108000750912        3.02800002030370
H           -7.06820908254721        3.88656217740262        3.18458139594859
H           -6.39114273224328        3.47249399934672        1.60619383815702
H           -5.61624096324800        1.72621412785118        4.84188541832437
H           -6.77086634605546        0.41665928872283        4.60539960013791
H           -7.34304031939384        2.05016025019944        4.95732205863628
H           -8.36047103562196        0.46459996040650        2.62032314864026
H           -8.19598920815904        1.73121677279946        1.39105308930738
H           -8.77619869250091        2.13156714877233        3.00354118366262
H           -3.99463816549626        1.72168119882089        3.34478596021885
H           -2.23831450058611        0.46844530728860        2.22908247824729
H            0.07292753827295        4.31357910287411       -1.67309362616534
H           -1.24552877071707        6.32518104707062       -2.17367692624532
H           -3.53801922491359        6.55749432821368       -1.29425947843699
H           -4.52502039415809        4.74566720438783        0.06079462185935
H           -3.20281842201786        2.71675853789522        0.55648797506185
H           -0.08186685482821        4.36498005348095        1.54270082971849
H            1.24187056205585        6.38809786558451        1.97866564259175
H            3.53509892090957        6.58593266890779        1.09271890078440
H            4.51744044073830        4.72886073547263       -0.20311436077154
H            3.18990539928994        2.68860498501159       -0.63365090848527

          :  Hamiltonian                  GFN2-xTB          :
         :: gradient norm              0.000038243475 Eh/a0 ::
         :: HOMO-LUMO gap              1.391946292960 eV    ::
         :: SCC energy              -173.938267106433 Eh    ::
         :: -> dispersion             -0.170163561988 Eh    ::
         :: repulsion energy           3.008955692244 Eh    ::

    * Orbital Energies and Occupations

         #    Occupation            Energy/Eh            Energy/eV
      -------------------------------------------------------------
         1        2.0000           -0.6792328             -18.4829
       ...           ...                  ...                  ...
       148        2.0000           -0.4047097             -11.0127
       149        2.0000           -0.4041608             -10.9978
       150        2.0000           -0.4026296             -10.9561
       151        2.0000           -0.4021456             -10.9429
       152        2.0000           -0.3960074             -10.7759
       153        2.0000           -0.3908185             -10.6347
       154        2.0000           -0.3901953             -10.6178
       155        2.0000           -0.3887283             -10.5778
       156        2.0000           -0.3683986             -10.0246
       157        2.0000           -0.3675620             -10.0019
       158        2.0000           -0.3575716              -9.7300
       159        2.0000           -0.3572940              -9.7225
       160        2.0000           -0.3431517              -9.3376 (HOMO)
       161                         -0.2919987              -7.9457 (LUMO)
       162                         -0.2643709              -7.1939
       163                         -0.2375090              -6.4629
       164                         -0.2349902              -6.3944
       165                         -0.2281783              -6.2090
       166                         -0.2250328              -6.1235
       167                         -0.2219011              -6.0382
       168                         -0.2188355              -5.9548
       169                         -0.2124975              -5.7824
       170                         -0.2118060              -5.7635
       171                         -0.2106196              -5.7313
       ...                                ...                  ...
       316                          0.7518085              20.4578
      -------------------------------------------------------------
                  HL-Gap            0.0511531 Eh            1.3919 eV

     #   Z          covCN         q      C6AA      α(0)
     1   6 C        3.762    -0.103    22.511     6.763
     2   6 C        3.903     0.026    20.085     6.370
     3   6 C        3.761    -0.106    22.580     6.774
     4   6 C        3.761    -0.105    22.550     6.769
     5   6 C        2.973    -0.002    28.081     8.692
     6   6 C        2.931    -0.040    28.982     8.829
     7   6 C        2.909    -0.044    29.087     8.844
     8   6 C        3.079     0.050    26.798     8.487
     9   6 C        3.067    -0.018    28.388     8.737
    10   6 C        2.918    -0.043    29.073     8.842
    11   6 C        3.067    -0.017    28.370     8.734
    12   6 C        2.920    -0.039    28.973     8.827
    13   6 C        2.972    -0.002    28.068     8.690
    14   6 C        3.903     0.026    20.087     6.371
    15   6 C        3.761    -0.107    22.583     6.774
    16   6 C        3.762    -0.105    22.554     6.770
    17   6 C        3.762    -0.105    22.552     6.770
    18   6 C        2.928    -0.044    29.087     8.845
    19   6 C        2.909    -0.054    29.331     8.881
    20   6 C        3.077     0.043    26.959     8.513
    21   7 N        2.801    -0.029    21.796     6.934
    22   6 C        2.908     0.049    26.905     8.505
    23   6 C        2.918    -0.049    29.220     8.864
    24   6 C        2.918    -0.049    29.218     8.864
    25   6 C        2.908     0.049    26.905     8.505
    26   7 N        2.802    -0.028    21.789     6.933
    27   6 C        3.079     0.043    26.961     8.513
    28   6 C        2.909    -0.053    29.315     8.878
    29   6 C        2.931    -0.039    28.979     8.828
    30   6 C        2.973    -0.002    28.068     8.690
    31   6 C        3.903     0.026    20.087     6.371
    32   6 C        3.762    -0.105    22.553     6.770
    33   6 C        3.762    -0.105    22.552     6.770
    34   6 C        3.761    -0.107    22.587     6.775
    35   6 C        2.918    -0.043    29.078     8.843
    36   6 C        3.068    -0.018    28.384     8.736
    37   6 C        3.068    -0.018    28.390     8.737
    38   6 C        2.918    -0.044    29.080     8.843
    39   6 C        2.973    -0.002    28.081     8.692
    40   6 C        3.903     0.026    20.085     6.370
    41   6 C        3.762    -0.103    22.511     6.763
    42   6 C        3.761    -0.105    22.550     6.769
    43   6 C        3.761    -0.107    22.583     6.774
    44   6 C        2.931    -0.040    28.986     8.829
    45   6 C        2.909    -0.044    29.087     8.844
    46   6 C        3.080     0.049    26.806     8.488
    47   6 C        2.963     0.067    26.490     8.442
    48   7 N        1.853    -0.228    26.843     7.679
    49   6 C        2.948     0.086    26.084     8.377
    50   6 C        2.983     0.007    27.847     8.656
    51   6 C        2.922    -0.029    28.733     8.790
    52   6 C        2.919    -0.028    28.712     8.787
    53   6 C        2.920    -0.028    28.691     8.784
    54   6 C        2.919    -0.027    28.679     8.782
    55   6 C        2.925    -0.027    28.664     8.780
    56   6 C        2.948     0.086    26.084     8.377
    57   6 C        2.983     0.007    27.847     8.656
    58   6 C        2.922    -0.029    28.733     8.790
    59   6 C        2.919    -0.028    28.711     8.787
    60   6 C        2.920    -0.028    28.691     8.784
    61   6 C        2.919    -0.027    28.679     8.782
    62   6 C        2.925    -0.027    28.664     8.780
    63   7 N        1.853    -0.229    26.845     7.679
    64   6 C        2.963     0.067    26.490     8.442
    65   1 H        0.925     0.035     2.520     2.482
    66   1 H        0.925     0.032     2.563     2.503
    67   1 H        0.925     0.035     2.522     2.483
    68   1 H        0.925     0.035     2.515     2.480
    69   1 H        0.925     0.035     2.512     2.478
    70   1 H        0.925     0.034     2.528     2.487
    71   1 H        0.925     0.035     2.518     2.481
    72   1 H        0.925     0.033     2.543     2.494
    73   1 H        0.925     0.035     2.515     2.480
    74   1 H        0.926     0.027     2.633     2.537
    75   1 H        0.926     0.020     2.736     2.587
    76   1 H        0.926     0.036     2.500     2.473
    77   1 H        0.926     0.030     2.579     2.512
    78   1 H        0.925     0.035     2.520     2.483
    79   1 H        0.925     0.035     2.521     2.483
    80   1 H        0.925     0.035     2.518     2.482
    81   1 H        0.925     0.033     2.548     2.496
    82   1 H        0.925     0.036     2.502     2.474
    83   1 H        0.925     0.035     2.514     2.480
    84   1 H        0.925     0.033     2.544     2.494
    85   1 H        0.925     0.035     2.514     2.480
    86   1 H        0.925     0.036     2.502     2.474
    87   1 H        0.926     0.035     2.511     2.478
    88   1 H        0.926     0.024     2.674     2.557
    89   1 H        0.926     0.049     2.335     2.390
    90   1 H        0.926     0.049     2.335     2.390
    91   1 H        0.926     0.024     2.675     2.557
    92   1 H        0.926     0.028     2.609     2.526
    93   1 H        0.925     0.035     2.513     2.479
    94   1 H        0.925     0.035     2.513     2.479
    95   1 H        0.925     0.033     2.544     2.494
    96   1 H        0.925     0.035     2.513     2.479
    97   1 H        0.925     0.033     2.540     2.492
    98   1 H        0.925     0.035     2.512     2.479
    99   1 H        0.925     0.035     2.510     2.478
   100   1 H        0.925     0.035     2.512     2.478
   101   1 H        0.925     0.034     2.525     2.485
   102   1 H        0.926     0.037     2.484     2.465
   103   1 H        0.926     0.037     2.492     2.469
   104   1 H        0.925     0.035     2.520     2.483
   105   1 H        0.925     0.035     2.523     2.484
   106   1 H        0.925     0.032     2.563     2.504
   107   1 H        0.925     0.035     2.516     2.480
   108   1 H        0.925     0.033     2.543     2.494
   109   1 H        0.925     0.035     2.518     2.482
   110   1 H        0.925     0.035     2.513     2.479
   111   1 H        0.925     0.035     2.510     2.478
   112   1 H        0.925     0.034     2.529     2.487
   113   1 H        0.926     0.027     2.635     2.538
   114   1 H        0.926     0.020     2.739     2.588
   115   1 H        0.926     0.029     2.598     2.520
   116   1 H        0.926     0.033     2.549     2.497
   117   1 H        0.926     0.034     2.536     2.490
   118   1 H        0.926     0.035     2.511     2.478
   119   1 H        0.926     0.052     2.295     2.369
   120   1 H        0.926     0.029     2.597     2.520
   121   1 H        0.926     0.033     2.549     2.497
   122   1 H        0.926     0.034     2.536     2.490
   123   1 H        0.926     0.035     2.511     2.478
   124   1 H        0.926     0.052     2.296     2.369

molecular dipole:
                 x           y           z       tot (Debye)
 q only:       -0.001       0.360      -0.006
   full:        0.013       0.381      -0.015       0.970

 projected vibrational frequencies (cm⁻¹)
eigval :       -0.00    -0.00    -0.00     0.00     0.00     0.00
eigval :       10.45    10.71    13.72    15.61    23.83    26.66
eigval :       30.67    30.93    33.22    34.44    41.21    46.33
eigval :       50.93    56.52    61.15    61.92    70.55    74.28
eigval :       76.51    82.25    83.98    92.17   112.43   117.24
eigval :      134.17   140.79   154.53   156.55   159.55   161.05
eigval :      170.40   170.86   184.25   187.10   191.37   192.09
eigval :      198.56   204.22   216.52   217.60   219.78   223.04
eigval :      225.35   229.84   237.52   241.51   259.28   262.79
eigval :      267.40   271.86   282.59   287.36   291.26   304.05
eigval :      312.18   317.38   318.21   321.66   325.54   329.11
eigval :      336.08   337.27   342.03   349.17   353.28   357.54
eigval :      360.43   370.63   373.16   377.50   378.50   388.27
eigval :      395.96   400.16   405.67   411.18   412.44   420.32
eigval :      433.88   442.23   443.16   443.59   444.01   456.14
eigval :      461.62   465.46   465.77   469.53   472.87   473.78
eigval :      509.43   514.67   520.73   537.14   544.89   553.94
eigval :      557.87   574.83   581.47   586.02   586.57   588.60
eigval :      589.13   593.55   606.28   610.33   629.16   639.49
eigval :      639.90   643.89   644.83   662.53   669.04   680.24
eigval :      688.03   688.12   697.51   705.47   706.54   709.74
eigval :      719.03   719.59   722.46   738.53   750.58   763.33
eigval :      775.40   816.60   820.40   822.79   823.25   829.68
eigval :      830.70   848.26   862.88   865.18   870.93   871.45
eigval :      873.46   874.81   875.38   878.09   880.02   880.85
eigval :      904.29   905.39   908.78   912.26   914.71   914.82
eigval :      920.61   926.23   926.42   927.73   930.06   931.74
eigval :      932.57   932.91   934.70   938.66   959.99   960.26
eigval :      960.33   960.34   962.52   962.59   962.66   962.75
eigval :      962.90   963.22   964.04   964.08   973.65  1005.57
eigval :     1030.82  1032.26  1035.42  1035.58  1035.82  1035.88
eigval :     1035.96  1036.08  1040.04  1041.57  1066.10  1066.89
eigval :     1082.28  1083.18  1109.03  1121.76  1121.81  1125.67
eigval :     1130.31  1131.22  1131.73  1147.67  1163.94  1178.03
eigval :     1180.12  1181.10  1181.15  1195.44  1197.45  1208.63
eigval :     1211.75  1227.95  1228.26  1228.34  1228.37  1228.61
eigval :     1231.65  1232.76  1233.21  1236.44  1238.03  1241.57
eigval :     1247.24  1255.62  1258.26  1262.74  1266.85  1277.13
eigval :     1278.42  1282.06  1285.51  1288.78  1296.07  1306.18
eigval :     1307.97  1312.81  1314.19  1322.12  1322.36  1343.21
eigval :     1349.08  1349.65  1359.38  1363.45  1371.70  1393.06
eigval :     1396.29  1402.30  1402.83  1404.40  1404.61  1405.82
eigval :     1405.85  1405.90  1405.98  1413.37  1414.12  1429.18
eigval :     1429.31  1429.35  1429.42  1429.52  1430.00  1436.92
eigval :     1447.13  1453.30  1467.49  1475.09  1478.23  1480.03
eigval :     1482.96  1484.62  1485.66  1492.48  1492.54  1492.60
eigval :     1492.62  1495.30  1495.38  1495.49  1495.51  1501.89
eigval :     1502.05  1502.23  1502.84  1505.93  1505.94  1506.07
eigval :     1506.17  1514.99  1515.12  1515.19  1515.71  1520.54
eigval :     1520.95  1521.07  1521.38  1522.95  1537.69  1563.55
eigval :     1570.52  1574.61  1579.79  1581.01  1583.27  1585.39
eigval :     1594.56  1597.21  1603.95  1604.39  1616.73  1618.34
eigval :     3019.70  3019.71  3019.92  3020.42  3020.61  3020.64
eigval :     3021.54  3021.69  3025.35  3025.43  3026.75  3026.94
eigval :     3028.32  3028.37  3028.94  3029.32  3029.98  3030.04
eigval :     3030.94  3031.02  3035.15  3035.29  3035.50  3035.69
eigval :     3037.37  3037.50  3037.79  3037.87  3044.85  3044.86
eigval :     3046.83  3047.58  3049.90  3049.96  3050.24  3051.20
eigval :     3074.02  3074.46  3077.18  3077.40  3078.15  3078.32
eigval :     3078.63  3081.21  3085.25  3085.69  3088.55  3089.85
eigval :     3090.13  3090.88  3092.00  3092.44  3092.97  3100.48
eigval :     3100.57  3101.06  3114.62  3115.85  3118.05  3118.11

   temp. (K)  partition function   enthalpy   heat capacity  entropy
                                   cal/mol     cal/K/mol   cal/K/mol   J/K/mol
 298.15  VIB  0.444E+28            35790.380    219.776    222.311
         ROT  0.199E+09              888.752      2.981     40.954
         INT  0.884E+36            36679.133    222.756    263.265
         TR   0.234E+29             1481.254      4.968     46.031
         TOT                       38160.3866   227.7245   309.2953  1294.0917

       T/K    H(0)-H(T)+PV         H(T)/Eh          T*S/Eh         G(T)/Eh
   ------------------------------------------------------------------------
    298.15    0.608124E-01    0.108518E+01    0.146956E+00    0.938220E+00
   ------------------------------------------------------------------------

         :::::::::::::::::::::::::::::::::::::::::::::::::::::
         ::                  THERMODYNAMIC                  ::
         :::::::::::::::::::::::::::::::::::::::::::::::::::::
         :: total free energy        -169.991091888035 Eh   ::
         ::.................................................::
         :: total energy             -170.929311414185 Eh   ::
         :: zero point energy           1.024363272996 Eh   ::
         :: G(RRHO) w/o ZPVE           -0.086143746845 Eh   ::
         :: G(RRHO) contrib.            0.938219526150 Eh   ::
         :::::::::::::::::::::::::::::::::::::::::::::::::::::

           -------------------------------------------------
          | TOTAL ENERGY             -170.929311414185 Eh   |
          | TOTAL ENTHALPY           -169.844135694228 Eh   |
          | TOTAL FREE ENERGY        -169.991091888035 Eh   |
          | GRADIENT NORM               0.000038245748 Eh/α |
          | HOMO-LUMO GAP               1.391946415864 eV   |
           -------------------------------------------------

 * finished run on 2025/07/21 at 03:03:57.971
