   * xtb version 6.7.1 (edcfbbe) compiled by 'albert@albert-system' on 2024-07-22

   ID    Z sym.   atoms
    1    6 C      1-20, 22-25, 27-47, 49-62, 64
    2    7 N      21, 26, 48, 63
    3    1 H      65-124

          program call               : xtb data2507/gas/BDQ-tBuCz/BDQ-tBuCz_gas_T1_crest.xyz --gfn 2 --spinpol --tblite --uhf 2 --ohess vtight --parallel 40 --molden --ceasefiles --namespace data2507/gas/BDQ-tBuCz/BDQ-tBuCz_gas_T1_finalOpt
 * total energy  :  -170.8810561 Eh     change        0.2152800E-07 Eh
 * total energy  :  -170.8810885 Eh     change       -0.3241346E-04 Eh
 * total energy  :  -170.8810958 Eh     change       -0.7352428E-05 Eh
 * total energy  :  -170.8810981 Eh     change       -0.2249458E-05 Eh
 * total energy  :  -170.8811012 Eh     change       -0.3113464E-05 Eh
 * total energy  :  -170.8811039 Eh     change       -0.2665413E-05 Eh
 * total energy  :  -170.8811064 Eh     change       -0.2496714E-05 Eh
 * total energy  :  -170.8811091 Eh     change       -0.2699297E-05 Eh
 * total energy  :  -170.8811103 Eh     change       -0.1208800E-05 Eh
 * total energy  :  -170.8811118 Eh     change       -0.1515531E-05 Eh
 * total energy  :  -170.8811153 Eh     change       -0.6598720E-06 Eh
 * total energy  :  -170.8811158 Eh     change       -0.5302183E-06 Eh
 * total energy  :  -170.8811162 Eh     change       -0.4065620E-06 Eh
 * total energy  :  -170.8811165 Eh     change       -0.2973258E-06 Eh
 * total energy  :  -170.8811174 Eh     change       -0.9254000E-06 Eh
 * total energy  :  -170.8811177 Eh     change       -0.2440948E-06 Eh
 * total energy  :  -170.8811179 Eh     change       -0.2242216E-06 Eh
 * total energy  :  -170.8811181 Eh     change       -0.1528590E-06 Eh
 * total energy  :  -170.8811181 Eh     change       -0.2525081E-07 Eh
   *** GEOMETRY OPTIMIZATION CONVERGED AFTER 21 ITERATIONS ***

 final structure:
================
124
 xtb: 6.7.1 (edcfbbe)
C            6.27441884310993        3.08531415828113       -2.91897961723743
C            6.57390522456439        1.59545839863108       -3.13880783799782
C            8.01192762021171        1.32779332146395       -2.68584209697607
C            6.47756513796717        1.25802958155603       -4.63337686464221
C            5.55367471241998        0.77384508709598       -2.36512369146324
C            4.19884074886049        0.88717311146350       -2.70300464382293
C            3.20002755674737        0.20074059271720       -2.04110448554605
C            3.56649486007894       -0.61703034113548       -0.98214954410637
C            4.92810789083988       -0.77816032691873       -0.64644913363205
C            5.91128895443201       -0.08429177172724       -1.33478965825175
C            4.96854397328406       -1.72630481948767        0.43525994727887
C            6.00573611342748       -2.27260652426368        1.17657999416735
C            5.72455722448115       -3.16922681109197        2.19684997926874
C            6.81130711194533       -3.81545531602334        3.04327370213029
C            6.60563709486986       -3.42385697175523        4.51346823650058
C            6.72404452883401       -5.34107244071171        2.89402343452492
C            8.21881991752532       -3.37837217174987        2.62799447140996
C            4.38526333331287       -3.48270894767132        2.46144616262979
C            3.33407084606630       -2.95405835586111        1.73919467890749
C            3.62959521998293       -2.08218394065560        0.70321417901756
N            2.79192936401564       -1.41530070250780       -0.17047541082736
C            1.39766105085873       -1.41324788862951       -0.12595274640923
C            0.68149805319678       -2.61525064932030       -0.07381975994637
C           -0.68717076955892       -2.61361773329212        0.05132411456658
C           -1.39973070184394       -1.40976055992431        0.10853635758193
N           -2.79374618569135       -1.40734046508850        0.15929198855709
C           -3.63872718849706       -2.07015098546354       -0.71032673276912
C           -3.35225492100636       -2.94000703876791       -1.75054788005140
C           -4.40956883641807       -3.46453441620351       -2.46687382069934
C           -5.74635031512639       -3.14907456228106       -2.19206115927269
C           -6.84042672485114       -3.79083261211322       -3.03243020035774
C           -6.75425110768319       -5.31711254961985       -2.88947079775124
C           -6.64539399269380       -3.39407115912354       -4.50268438828070
C           -8.24412967595277       -3.35340238862935       -2.60476796563775
C           -6.01852531955250       -2.25439306866734       -1.16766116442554
C           -4.97505406384410       -1.71202431054811       -0.43232323530483
C           -4.92522258122276       -0.76668782380157        0.65143846233727
C           -5.90218754259968       -0.07250423576924        1.34830357268783
C           -5.53567762399834        0.78211513149750        2.37842643516428
C           -6.54873622026270        1.60352530119088        3.16167010691548
C           -6.24722904887720        3.09345695593658        2.94514545352119
C           -6.44309286247915        1.26049358898901        4.65434853254776
C           -7.99038173634956        1.34078836092806        2.71743757088925
C           -4.17833101906368        0.89160672984493        2.70735013333035
C           -3.18559457870401        0.20467394479700        2.03693364028058
C           -3.56104042681683       -0.60947833626655        0.97832763536201
C           -0.71700413206638       -0.18295079273458        0.03776185019424
N           -1.35003060828773        0.98751277390791       -0.00273860950105
C           -0.69817318864113        2.14806941792087       -0.06375490720204
C           -1.49569008002955        3.35405593358839       -0.27409371221164
C           -1.04347303170287        4.39342925671505       -1.08798972640133
C           -1.82638934050912        5.51339651028439       -1.28534251960189
C           -3.07159465076681        5.61240021608511       -0.68426550101648
C           -3.53845058332818        4.57200626605025        0.10226870831581
C           -2.76284268218562        3.44676303069349        0.30260138616844
C            0.70517182682969        2.14624598827837        0.05319517205166
C            1.50502224461293        3.35012182495236        0.26661064302442
C            1.05410634016365        4.38871294894744        1.08226402428695
C            1.83865622539294        5.50709248018192        1.28205974159337
C            3.08430387242639        5.60525158938090        0.68176510115624
C            3.54996666321280        4.56548079510481       -0.10629552210235
C            2.77269161009808        3.44182467488248       -0.30909973983562
N            1.35428420479626        0.98421569887862       -0.01055130958524
C            0.71837706989463       -0.18463907396753       -0.05367102603351
H            5.27445148107069        3.34341374470028       -3.25700178651227
H            6.35045139101521        3.32655349886629       -1.86055203544902
H            6.98907860527877        3.69765648389523       -3.46529969337468
H            8.28115165000276        0.28479079713611       -2.83611207491674
H            8.14724108400909        1.58473101196432       -1.63781073135117
H            8.69593162969275        1.93905029023494       -3.27144440289633
H            7.22821720511798        1.81385318040776       -5.19156796063799
H            6.64817418038945        0.19482996066638       -4.78971617996589
H            5.50123476249545        1.50927901355212       -5.03768545956573
H            3.90930468741000        1.53498919249125       -3.51679745716005
H            2.17046517990252        0.29951805775422       -2.34744291307536
H            6.94084337640159       -0.22897450548917       -1.05287069143474
H            7.01644423654422       -1.98268389339193        0.94259867526180
H            5.64622868307940       -3.77086804899887        4.88669175218598
H            7.38858057188747       -3.85979535588675        5.13064072949366
H            6.64181540928165       -2.34184665541034        4.62207296165577
H            6.84845708794587       -5.62377528117022        1.85066616849401
H            7.50741565214881       -5.82038458570939        3.47756062420590
H            5.76532677400176       -5.71973571486894        3.23701218386989
H            8.34615334568235       -2.30489941736069        2.74681473211632
H            8.95336030888536       -3.87495231276516        3.25900068369410
H            8.42436394153679       -3.65113368322979        1.59542365051705
H            4.15013490998343       -4.16367647506198        3.26518139510667
H            2.31454232238137       -3.20661082935917        1.98824385562376
H            1.22341166908662       -3.54559808436422       -0.14309853987717
H           -1.23161040598465       -3.54270040136142        0.11768643389593
H           -2.33500278290381       -3.19410759533900       -2.00723741542311
H           -4.18147692976623       -4.14379966942958       -3.27407451598367
H           -7.54273704955100       -5.79310749794125       -3.46881905999027
H           -5.79875374060987       -5.69594080006759       -3.24113398296681
H           -6.87119156037860       -5.60350314375356       -1.84625655953556
H           -5.68903462063100       -3.74045452115800       -4.88422578137551
H           -6.68151760824721       -2.31164722202132       -4.60709546715141
H           -7.43325104117993       -3.82716183490306       -5.11559238511319
H           -8.37111010729971       -2.27939569239828       -2.71903629568400
H           -8.44195289325393       -3.62935100351769       -1.57153259844992
H           -8.98416557693928       -3.84699228465215       -3.23168686367706
H           -7.02696662886652       -1.96303394369327       -0.92582221388339
H           -6.93396446608302       -0.21426377667620        1.07309798887607
H           -5.24431882041681        3.34803224571270        3.27704997780780
H           -6.95658995051905        3.70545264694989        3.49870795588997
H           -6.33007537976853        3.33882535266455        1.88818333640285
H           -5.46339326118393        1.50786120983264        5.05286827622374
H           -6.61526310025541        0.19715359608504        4.80802653696815
H           -7.18854093720137        1.81613918770939        5.21964079715746
H           -8.26110893129002        0.29794007464188        2.86606536110044
H           -8.13205482267492        1.60150757094193        1.67118016633107
H           -8.66898610460485        1.95171669937265        3.30962239760059
H           -3.88179051796509        1.53667444210762        3.52079543977832
H           -2.15382343745649        0.30032953762735        2.33674253665214
H           -0.08176218710883        4.31583821759112       -1.57339616271509
H           -1.46598647435666        6.31274125017724       -1.91643119147435
H           -3.67830264637229        6.49284647326632       -0.83683732314054
H           -4.51310219065604        4.63853788855615        0.56329417679364
H           -3.12454621668600        2.63091601813656        0.90990527507527
H            0.09206869370989        4.31175183008948        1.56711237064088
H            1.47916552339237        6.30584392808179        1.91441826902756
H            3.69229853798156        6.48448735907860        0.83617346612017
H            4.52498125983733        4.63131562709062       -0.56663392698161
H            3.13351124381412        2.62646956382645       -0.91756947756523

 projected vibrational frequencies (cm⁻¹)
eigval :       -0.00    -0.00     0.00     0.00     0.00     0.00
eigval :       10.71    10.92    15.84    16.34    26.64    30.68
eigval :       31.43    32.81    34.57    35.62    42.42    46.86
eigval :       49.17    54.82    60.70    63.03    71.55    73.39
eigval :       77.38    81.92    86.90    94.36   114.50   116.34
eigval :      134.39   142.92   154.90   158.68   160.59   162.74
eigval :      170.60   171.33   187.23   188.32   194.19   194.90
eigval :      204.14   204.59   216.38   219.55   219.61   223.68
eigval :      225.37   229.42   230.26   234.36   259.62   259.70
eigval :      269.25   269.47   277.19   279.22   292.71   292.73
eigval :      317.25   317.84   321.44   322.27   327.12   327.53
eigval :      329.67   338.31   341.56   344.02   351.27   359.92
eigval :      360.14   371.28   372.97   374.81   380.18   384.33
eigval :      386.23   398.86   404.51   409.88   410.08   413.70
eigval :      434.82   442.03   442.39   444.67   444.82   455.75
eigval :      460.36   465.92   466.06   467.25   478.78   480.23
eigval :      507.92   513.41   520.49   529.29   538.77   548.03
eigval :      557.74   575.10   575.97   581.72   586.54   588.89
eigval :      589.72   591.05   594.05   605.01   623.75   633.93
eigval :      635.46   640.59   640.73   644.53   664.45   668.08
eigval :      672.63   676.26   689.69   689.74   706.28   707.45
eigval :      709.33   718.51   718.69   721.51   739.72   759.33
eigval :      759.71   813.00   821.95   823.34   823.86   829.22
eigval :      829.65   830.28   859.06   860.22   869.21   869.70
eigval :      870.98   872.62   874.07   874.23   874.84   876.65
eigval :      898.91   899.32   902.40   914.62   914.68   914.75
eigval :      917.60   917.87   924.79   926.31   928.09   928.85
eigval :      928.99   930.87   934.18   934.39   960.28   960.28
eigval :      960.38   960.39   962.57   962.58   963.01   963.02
eigval :      963.08   963.09   964.82   964.92   973.15  1000.85
eigval :     1030.27  1030.43  1034.58  1035.18  1035.52  1035.58
eigval :     1035.59  1035.91  1039.50  1040.73  1046.05  1062.54
eigval :     1082.90  1083.38  1115.08  1120.29  1121.17  1122.33
eigval :     1130.07  1130.20  1130.62  1152.32  1154.96  1172.82
eigval :     1172.93  1180.79  1180.84  1193.66  1198.07  1204.07
eigval :     1207.63  1227.25  1227.69  1227.70  1227.76  1227.77
eigval :     1228.64  1231.83  1231.84  1232.28  1233.87  1236.36
eigval :     1236.74  1242.53  1251.35  1258.00  1265.39  1266.71
eigval :     1273.44  1281.17  1283.55  1285.17  1287.11  1299.06
eigval :     1302.90  1303.79  1306.61  1319.66  1321.10  1325.02
eigval :     1333.67  1348.90  1351.28  1352.46  1352.91  1361.41
eigval :     1391.48  1397.15  1401.58  1402.24  1404.38  1404.43
eigval :     1405.64  1405.65  1405.70  1405.70  1410.45  1411.34
eigval :     1421.92  1428.09  1428.46  1428.50  1428.57  1428.57
eigval :     1431.64  1439.66  1446.11  1451.43  1470.24  1473.64
eigval :     1473.92  1475.28  1481.69  1481.75  1491.80  1491.81
eigval :     1491.95  1491.95  1492.73  1494.76  1494.78  1494.92
eigval :     1494.94  1501.27  1501.28  1501.36  1501.38  1505.22
eigval :     1505.23  1505.26  1505.26  1514.73  1514.75  1514.95
eigval :     1514.95  1520.19  1520.20  1521.00  1521.03  1527.68
eigval :     1566.46  1566.51  1572.58  1572.66  1580.33  1580.67
eigval :     1590.03  1590.26  1592.69  1592.87  1607.74  1609.23
eigval :     3020.56  3020.58  3021.19  3021.19  3021.62  3021.64
eigval :     3022.59  3022.60  3025.80  3025.81  3027.17  3027.18
eigval :     3028.82  3028.91  3029.57  3029.78  3030.00  3030.08
eigval :     3031.22  3031.23  3035.28  3035.30  3035.84  3035.85
eigval :     3037.82  3037.85  3038.24  3038.35  3045.51  3045.58
eigval :     3047.39  3047.42  3050.72  3050.74  3050.87  3050.89
eigval :     3072.36  3072.66  3076.89  3077.27  3082.19  3082.30
eigval :     3083.70  3083.83  3085.23  3086.16  3091.48  3092.14
eigval :     3092.93  3094.21  3094.77  3097.93  3098.24  3101.59
eigval :     3101.74  3104.68  3115.33  3115.34  3118.89  3119.00

   temp. (K)  partition function   enthalpy   heat capacity  entropy
                                   cal/mol     cal/K/mol   cal/K/mol   J/K/mol
 298.15  VIB  0.246E+28            35875.046    220.866    222.313
         ROT  0.992E+08              888.752      2.981     39.571
         INT  0.244E+36            36763.798    223.847    261.884
         TR   0.234E+29             1481.254      4.968     46.031
         TOT                       38245.0522   228.8151   307.9149  1288.3160

       T/K    H(0)-H(T)+PV         H(T)/Eh          T*S/Eh         G(T)/Eh
   ------------------------------------------------------------------------
    298.15    0.609474E-01    0.108313E+01    0.146300E+00    0.936826E+00
   ------------------------------------------------------------------------

         :::::::::::::::::::::::::::::::::::::::::::::::::::::
         ::                  THERMODYNAMIC                  ::
         :::::::::::::::::::::::::::::::::::::::::::::::::::::
         :: total free energy        -169.944292109182 Eh   ::
         ::.................................................::
         :: total energy             -170.881118222985 Eh   ::
         :: zero point energy           1.022179059236 Eh   ::
         :: G(RRHO) w/o ZPVE           -0.085352945433 Eh   ::
         :: G(RRHO) contrib.            0.936826113803 Eh   ::
         :::::::::::::::::::::::::::::::::::::::::::::::::::::

           -------------------------------------------------
          | TOTAL ENERGY             -170.881118222985 Eh   |
          | TOTAL ENTHALPY           -169.797991793549 Eh   |
          | TOTAL FREE ENERGY        -169.944292109182 Eh   |
          | GRADIENT NORM               0.000059568779 Eh/α |
           -------------------------------------------------

 * finished run on 2025/07/21 at 03:37:09.096
