   * xtb version 6.7.1 (edcfbbe) compiled by 'albert@albert-system' on 2024-07-22

   ID    Z sym.   atoms
    1    6 C      1-4, 6-17, 19-24, 26-31, 33, 34
    2    7 N      5
    3    8 O      18, 32
    4    5 B      25
    5    1 H      35-52

          program call               : xtb data2507/gas/Ph-OBNA/Ph-OBNA_gas_S0_finalOpt.xtbopt.xyz --gfn 2 --spinpol --tblite --uhf 2 --ohess vtight --parallel 40 --molden --ceasefiles --namespace data2507/gas/Ph-OBNA/Ph-OBNA_gas_T1_preOpt
 * total energy  :   -85.6806987 Eh     change       -0.1214948E-07 Eh
 * total energy  :   -85.6821815 Eh     change       -0.1482743E-02 Eh
 * total energy  :   -85.6826088 Eh     change       -0.4273297E-03 Eh
 * total energy  :   -85.6826533 Eh     change       -0.4450251E-04 Eh
 * total energy  :   -85.6826769 Eh     change       -0.2358565E-04 Eh
 * total energy  :   -85.6826881 Eh     change       -0.1118028E-04 Eh
 * total energy  :   -85.6826889 Eh     change       -0.7640015E-06 Eh
 * total energy  :   -85.6826964 Eh     change       -0.7557846E-05 Eh
 * total energy  :   -85.6827084 Eh     change       -0.1196724E-04 Eh
 * total energy  :   -85.6827169 Eh     change       -0.8516975E-05 Eh
 * total energy  :   -85.6827465 Eh     change       -0.3169814E-06 Eh
 * total energy  :   -85.6827468 Eh     change       -0.2569257E-06 Eh
 * total energy  :   -85.6827471 Eh     change       -0.2819577E-06 Eh
 * total energy  :   -85.6827473 Eh     change       -0.2657806E-06 Eh
 * total energy  :   -85.6827476 Eh     change       -0.3009806E-06 Eh
 * total energy  :   -85.6827480 Eh     change       -0.3245524E-06 Eh
 * total energy  :   -85.6827482 Eh     change       -0.2628624E-06 Eh
 * total energy  :   -85.6827485 Eh     change       -0.2364727E-06 Eh
 * total energy  :   -85.6827485 Eh     change       -0.1150056E-07 Eh
   *** GEOMETRY OPTIMIZATION CONVERGED AFTER 44 ITERATIONS ***

 final structure:
================
52
 xtb: 6.7.1 (edcfbbe)
C            5.88274830568387       -2.94405764589553       -0.08913484436313
C            4.83830765777828       -3.04192232246443        0.81719126648059
C            3.85399530443068       -2.07359171444364        0.85589731281269
C            3.90521601944517       -0.99432261352965       -0.02493959828789
N            2.90714143617881       -0.01221091540706        0.00605988321040
C            3.10617466888476        1.34352238029429        0.04428528464022
C            4.29090283303423        2.06641293672723        0.11021760386302
C            4.20444285786155        3.44423504918385        0.16930208959133
C            2.96855278366227        4.10398064420999        0.16783084491794
C            1.78661063906646        3.40255493099394        0.12799824878937
C            1.84194696727238        2.00591008403035        0.07392324206726
C            0.85263551682893        0.99363775561187        0.05138393028491
C           -0.55780523943603        1.00365135625472        0.04449988234271
C           -1.27626287303764       -0.20154349724818       -0.00541413700931
C           -0.54990804925313       -1.40207427183388       -0.06083830045713
C            0.85825918070042       -1.45219022261785       -0.06692388518540
C            1.53939019584742       -0.25386834918645        0.01221893230378
O           -1.17186412968205       -2.59782371720634       -0.12323532382625
C           -2.53016147463372       -2.71946672965837       -0.05307444747987
C           -2.97791993886545       -4.03791636162410       -0.06019947426926
C           -4.33041365450765       -4.31348748699272        0.04251575044579
C           -5.22608928221991       -3.25691034915104        0.16770295283824
C           -4.77762829870835       -1.95136919295047        0.16652659839423
C           -3.41958726292495       -1.61354156493309        0.03201581193457
B           -2.80530366481422       -0.20194521381230       -0.01209929231258
C           -3.42164811809549        1.21094011067248       -0.06638189847136
C           -4.77863379898547        1.54568157640195       -0.20686782371598
C           -5.22847975952601        2.85215493960785       -0.22604722118912
C           -4.33469956337790        3.90926683363443       -0.11384539626770
C           -2.98176511915143        3.63482327329746       -0.00439814751469
C           -2.53488186475022        2.31651635884606        0.00747125348536
O           -1.17449481547071        2.19589368105142        0.08339459370214
C            4.95334260683619       -0.89971711523740       -0.93918817808624
C            5.93624696842386       -1.86988074416241       -0.96386195039043
H            6.65096980124281       -3.70156429438113       -0.11415428813507
H            4.79516978268637       -3.87428982529055        1.50371270465031
H            3.05351959892492       -2.13329552191131        1.57778791751977
H            5.24838582257762        1.56921464224616        0.13026150594490
H            5.11124076156356        4.02785119481704        0.22197268982888
H            2.95285152114679        5.18272438740194        0.20999936333980
H            0.83073359059719        3.90053744077080        0.14335477010702
H            1.35604641286500       -2.40503121190481       -0.14858445330601
H           -2.24869772672572       -4.83000797627897       -0.13842067906769
H           -4.67907164397224       -5.33451625838118        0.03642722081135
H           -6.28305952708003       -3.46109986013311        0.26456970255613
H           -5.49759783506229       -1.15778987821640        0.28217545071479
H           -5.49864837655872        0.75083605174525       -0.31327755549676
H           -6.28561600932967        3.05347102738217       -0.32699153354657
H           -4.68283731187803        4.93049507685483       -0.12168134771599
H           -2.25416199983273        4.42931606357621        0.06494864335845
H            4.97717012297588       -0.07645876420598       -1.63725994252271
H            6.74423998191633       -1.79290681292544       -1.67612193535020

 projected vibrational frequencies (cm⁻¹)
eigval :       -0.00    -0.00    -0.00     0.00     0.00     0.00
eigval :       19.35    31.90    47.85    51.88    61.77    67.91
eigval :       75.10   103.79   112.06   127.72   160.58   193.82
eigval :      198.27   208.24   225.65   237.61   250.95   264.03
eigval :      271.31   279.88   321.90   341.62   358.47   371.68
eigval :      381.40   392.36   402.40   417.12   423.93   466.62
eigval :      468.20   478.99   481.97   507.33   521.73   529.29
eigval :      535.70   547.55   556.96   564.81   582.26   592.12
eigval :      606.21   613.13   639.54   659.09   662.22   671.57
eigval :      676.47   687.47   693.17   698.75   747.78   749.09
eigval :      751.92   759.76   763.16   775.01   806.84   811.77
eigval :      828.81   837.80   839.56   859.48   874.68   880.18
eigval :      880.86   882.10   893.14   897.37   901.89   903.33
eigval :      906.51   913.33   929.13   930.37   931.34   937.30
eigval :      983.10  1037.55  1053.10  1062.31  1073.31  1077.09
eigval :     1091.49  1107.60  1115.45  1119.87  1140.53  1144.43
eigval :     1154.05  1161.03  1168.10  1170.42  1177.94  1179.49
eigval :     1186.24  1191.28  1205.51  1214.38  1222.26  1239.56
eigval :     1248.07  1263.32  1269.26  1280.40  1296.81  1321.79
eigval :     1324.07  1337.13  1340.96  1358.99  1362.97  1367.20
eigval :     1387.39  1398.90  1401.01  1407.86  1416.80  1434.44
eigval :     1441.55  1466.53  1472.64  1482.84  1501.04  1508.87
eigval :     1526.94  1531.44  1544.96  1550.76  1556.37  1577.08
eigval :     3069.50  3070.19  3081.30  3082.29  3082.95  3084.75
eigval :     3086.02  3089.55  3092.76  3095.51  3096.30  3097.36
eigval :     3098.44  3101.60  3106.03  3106.82  3112.46  3115.58

   temp. (K)  partition function   enthalpy   heat capacity  entropy
                                   cal/mol     cal/K/mol   cal/K/mol   J/K/mol
 298.15  VIB  0.268E+10            14188.107     96.351     85.067
         ROT  0.271E+08              888.752      2.981     36.994
         INT  0.728E+17            15076.859     99.331    122.060
         TR   0.879E+28             1481.254      4.968     44.082
         TOT                       16558.1130   104.2996   166.1425   695.1404

       T/K    H(0)-H(T)+PV         H(T)/Eh          T*S/Eh         G(T)/Eh
   ------------------------------------------------------------------------
    298.15    0.263870E-01    0.407657E+00    0.789397E-01    0.328717E+00
   ------------------------------------------------------------------------

         :::::::::::::::::::::::::::::::::::::::::::::::::::::
         ::                  THERMODYNAMIC                  ::
         :::::::::::::::::::::::::::::::::::::::::::::::::::::
         :: total free energy         -85.354031329342 Eh   ::
         ::.................................................::
         :: total energy              -85.682748475895 Eh   ::
         :: zero point energy           0.381269798615 Eh   ::
         :: G(RRHO) w/o ZPVE           -0.052552652061 Eh   ::
         :: G(RRHO) contrib.            0.328717146553 Eh   ::
         :::::::::::::::::::::::::::::::::::::::::::::::::::::

           -------------------------------------------------
          | TOTAL ENERGY              -85.682748475895 Eh   |
          | TOTAL ENTHALPY            -85.275091644653 Eh   |
          | TOTAL FREE ENERGY         -85.354031329342 Eh   |
          | GRADIENT NORM               0.000056822194 Eh/α |
           -------------------------------------------------

 * finished run on 2025/09/13 at 05:37:18.346
