   * xtb version 6.7.1 (edcfbbe) compiled by 'albert@albert-system' on 2024-07-22

   ID    Z sym.   atoms
    1    6 C      1-4, 6-17, 19-24, 26-31, 33, 34
    2    7 N      5
    3    8 O      18, 32
    4    5 B      25
    5    1 H      35-52

          program call               : xtb data2507/gas/Ph-OBNA/Ph-OBNA_gas_T1_crest.xyz --gfn 2 --spinpol --tblite --uhf 2 --ohess vtight --parallel 40 --molden --ceasefiles --namespace data2507/gas/Ph-OBNA/Ph-OBNA_gas_T1_finalOpt
 * total energy  :   -85.6827316 Eh     change       -0.1434884E-08 Eh
 * total energy  :   -85.6827385 Eh     change       -0.6933286E-05 Eh
 * total energy  :   -85.6827441 Eh     change       -0.5593520E-05 Eh
 * total energy  :   -85.6827458 Eh     change       -0.1657631E-05 Eh
 * total energy  :   -85.6827471 Eh     change       -0.1310890E-05 Eh
 * total energy  :   -85.6827479 Eh     change       -0.7463163E-06 Eh
 * total energy  :   -85.6827484 Eh     change       -0.5372224E-06 Eh
 * total energy  :   -85.6827486 Eh     change       -0.1816643E-06 Eh
 * total energy  :   -85.6827486 Eh     change       -0.4616484E-07 Eh
   *** GEOMETRY OPTIMIZATION CONVERGED AFTER 9 ITERATIONS ***

 final structure:
================
52
 xtb: 6.7.1 (edcfbbe)
C            5.89600991970061       -2.91771629558601        0.12122401777654
C            4.84932196897280       -2.95802023076563        1.02935834596773
C            3.86063634610713       -1.99390558004920        0.99881549774134
C            3.90986143198104       -0.97725930937539        0.04622595163845
N            2.90771630961343        0.00051551016083        0.00892234128753
C            3.10064434889262        1.35668565781428       -0.04338397327565
C            4.28202397734474        2.08776185226208       -0.02713934476404
C            4.18927036913747        3.46609087000650       -0.05951364398792
C            2.95030329931242        4.11869415776738       -0.10282020440414
C            1.77162011861621        3.41085451284249       -0.09433560673398
C            1.83330104661972        2.01389268096992       -0.05475264962378
C            0.84870603616793        0.99816452870516       -0.00438350224145
C           -0.56193527832219        1.00149520567542       -0.00456939555605
C           -1.27544385428048       -0.20765229228243        0.01009214446278
C           -0.54311338828648       -1.40590306728949        0.01402229666503
C            0.86533354309403       -1.45006474469510        0.01843308424152
C            1.54111712590817       -0.24627792513049        0.03096616669791
O           -1.15893428638055       -2.60626739270038        0.01523653332958
C           -2.51675437860925       -2.73128457089007       -0.05552119783213
C           -2.95745510441761       -4.05145616018241       -0.09959490947598
C           -4.30899471357095       -4.33045576675511       -0.20437229971735
C           -5.21097425270281       -3.27455425365923       -0.27899816073158
C           -4.76920428398369       -1.96770676548642       -0.22856317621655
C           -3.41206358779458       -1.62736812058977       -0.09086005054625
B           -2.80468172192557       -0.21477809608449        0.00388198775757
C           -3.42817676292394        1.19478440774227        0.07446318044523
C           -4.78871776874878        1.52304732517373        0.19369030260768
C           -5.24415364579846        2.82742154555431        0.22543131553548
C           -4.35289609482267        3.88947079064515        0.14572009099727
C           -2.99735828529360        3.62141649347913        0.05532371458783
C           -2.54510757913602        2.30501312407543        0.03090707740890
O           -1.18338403316578        2.19158363832265       -0.02589434937766
C            4.95988829593081       -0.94103558396582       -0.86990676063129
C            5.94713626915827       -1.90611888300170       -0.82530351469671
H            6.66779046458453       -3.67144708922249        0.15047665104946
H            4.80794111456833       -3.74138337095681        1.77141550734264
H            3.05803530638396       -2.00770554163811        1.72071154884456
H            5.24190397046637        1.59744229359394        0.02346763348174
H            5.09344004461883        4.05599470806315       -0.04790521676005
H            2.92972015193855        5.19776238936207       -0.13289233492708
H            0.81346724803843        3.90436573857639       -0.11190577456160
H            1.36746604712371       -2.40396289336937        0.00132605396792
H           -2.22318421293994       -4.84174624263974       -0.05975377209314
H           -4.65213539424678       -5.35281042911994       -0.23804009830623
H           -6.26772234856647       -3.48023818499785       -0.37506317484383
H           -5.49516153365731       -1.17494060233635       -0.30406883268454
H           -5.50821505209584        0.72480046187967        0.27411014997542
H           -6.30368234277309        3.02300589295995        0.31142607156457
H           -4.70511588382164        4.90918582866153        0.16282517623507
H           -2.27171697269852        4.41935797030020        0.00854457670274
H            4.98202652197469       -0.16769215329368       -1.62294677936292
H            6.75675509470822       -1.87468350113010       -1.53918635366057

 projected vibrational frequencies (cm⁻¹)
eigval :       -0.00    -0.00    -0.00    -0.00    -0.00     0.00
eigval :       17.90    30.95    46.37    50.99    61.53    67.00
eigval :       74.73   106.66   108.28   128.93   160.09   193.75
eigval :      198.30   209.39   224.16   238.34   251.53   263.60
eigval :      268.34   282.59   321.68   341.57   358.91   372.05
eigval :      381.34   390.26   401.83   418.13   423.99   466.99
eigval :      467.36   477.75   483.13   507.34   521.75   529.32
eigval :      535.78   547.43   557.22   564.68   582.19   592.05
eigval :      607.29   612.37   639.48   659.60   661.75   671.88
eigval :      676.60   687.15   693.47   698.71   747.08   748.29
eigval :      751.84   759.67   763.11   775.11   807.15   812.40
eigval :      828.75   835.86   839.18   859.32   873.33   880.18
eigval :      880.92   882.00   893.12   897.27   901.76   902.75
eigval :      906.40   913.22   929.13   930.49   931.28   937.06
eigval :      983.11  1037.50  1052.72  1062.18  1073.29  1077.09
eigval :     1092.04  1107.91  1115.46  1119.83  1140.40  1144.22
eigval :     1154.08  1160.80  1168.09  1170.44  1177.92  1179.46
eigval :     1186.41  1191.24  1205.31  1214.08  1222.26  1238.55
eigval :     1248.53  1263.34  1269.30  1280.36  1296.75  1321.81
eigval :     1323.89  1337.29  1340.83  1359.05  1362.97  1367.28
eigval :     1387.50  1398.76  1400.83  1407.69  1416.72  1434.50
eigval :     1441.72  1466.60  1472.68  1482.88  1501.29  1508.97
eigval :     1527.13  1531.96  1544.89  1550.82  1556.39  1577.05
eigval :     3069.51  3070.20  3081.22  3082.29  3082.87  3084.68
eigval :     3086.01  3089.61  3092.68  3095.41  3096.27  3097.33
eigval :     3098.55  3101.51  3106.19  3107.80  3112.36  3117.13

   temp. (K)  partition function   enthalpy   heat capacity  entropy
                                   cal/mol     cal/K/mol   cal/K/mol   J/K/mol
 298.15  VIB  0.317E+10            14198.222     96.281     85.183
         ROT  0.271E+08              888.752      2.981     36.994
         INT  0.859E+17            15086.974     99.262    122.178
         TR   0.879E+28             1481.254      4.968     44.082
         TOT                       16568.2282   104.2304   166.2598   695.6308

       T/K    H(0)-H(T)+PV         H(T)/Eh          T*S/Eh         G(T)/Eh
   ------------------------------------------------------------------------
    298.15    0.264032E-01    0.407648E+00    0.789954E-01    0.328652E+00
   ------------------------------------------------------------------------

         :::::::::::::::::::::::::::::::::::::::::::::::::::::
         ::                  THERMODYNAMIC                  ::
         :::::::::::::::::::::::::::::::::::::::::::::::::::::
         :: total free energy         -85.354096442308 Eh   ::
         ::.................................................::
         :: total energy              -85.682748612304 Eh   ::
         :: zero point energy           0.381244393883 Eh   ::
         :: G(RRHO) w/o ZPVE           -0.052592223888 Eh   ::
         :: G(RRHO) contrib.            0.328652169996 Eh   ::
         :::::::::::::::::::::::::::::::::::::::::::::::::::::

           -------------------------------------------------
          | TOTAL ENERGY              -85.682748612304 Eh   |
          | TOTAL ENTHALPY            -85.275101066095 Eh   |
          | TOTAL FREE ENERGY         -85.354096442308 Eh   |
          | GRADIENT NORM               0.000092173097 Eh/α |
           -------------------------------------------------

 * finished run on 2025/09/13 at 05:39:51.610
