   * xtb version 6.7.1 (edcfbbe) compiled by 'albert@albert-system' on 2024-07-22

   ID    Z sym.   atoms
    1    6 C      1-4, 6-17, 19-24, 26-31, 33, 34
    2    7 N      5
    3    8 O      18, 32
    4    5 B      25
    5    1 H      35-52

          program call               : xtb data2507/gas/Ph-OBNA/Ph-OBNA_gas_S0_crest.xyz --gfn 2 --ohess vtight --parallel 40 --molden --ceasefiles --namespace data2507/gas/Ph-OBNA/Ph-OBNA_gas_S0_finalOpt
          :  Hamiltonian                  GFN2-xTB          :
 * total energy  :   -85.7780529 Eh     change       -0.3024951E-08 Eh
 * total energy  :   -85.7780533 Eh     change       -0.4053600E-06 Eh
 * total energy  :   -85.7780536 Eh     change       -0.2711365E-06 Eh
 * total energy  :   -85.7780540 Eh     change       -0.4201616E-06 Eh
 * total energy  :   -85.7780544 Eh     change       -0.3812024E-06 Eh
 * total energy  :   -85.7780547 Eh     change       -0.2773958E-06 Eh
 * total energy  :   -85.7780548 Eh     change       -0.1422243E-06 Eh
 * total energy  :   -85.7780548 Eh     change       -0.2151208E-07 Eh
   *** GEOMETRY OPTIMIZATION CONVERGED AFTER 8 ITERATIONS ***

 final structure:
================
52
 xtb: 6.7.1 (edcfbbe)
C            5.87195559656751       -2.92864891945653       -0.14373792062599
C            4.85447882377667       -3.02749512037783        0.79070129676128
C            3.86544660051653       -2.06319168046319        0.84984043372596
C            3.88519164914103       -0.99335388493924       -0.03974920839511
N            2.88316825298970       -0.01249471632502        0.01380835215994
C            3.09589334462276        1.35359741345296        0.07840625010106
C            4.28553330888669        2.06109444051028        0.15016809179589
C            4.21126023698923        3.43960181847163        0.23273980441456
C            2.98642373444024        4.10159870664142        0.25233739621484
C            1.79726482644641        3.40089064506441        0.20473950296847
C            1.84855447902812        2.01612207577367        0.12154261490635
C            0.84591477222944        0.99093536822819        0.07576887767608
C           -0.54826976484956        1.00399438586290        0.06141679801158
C           -1.25783215963731       -0.20387999264684       -0.00850398383237
C           -0.53267940421649       -1.41295573319153       -0.08273875870896
C            0.85336631985022       -1.45515174461353       -0.08379875234543
C            1.52829152848036       -0.24641133658697        0.01292584505875
O           -1.17174695690765       -2.60486691906217       -0.16925008976956
C           -2.52403888747747       -2.71338538892694       -0.06281589725706
C           -2.99102361730619       -4.03045186167451       -0.06315743812916
C           -4.33499346555646       -4.28779116943539        0.07802726609436
C           -5.22474788893927       -3.23159396253533        0.23569516057288
C           -4.76052424489127       -1.93500677161917        0.22004118786325
C           -3.40540138318511       -1.62156547832617        0.04875574625424
B           -2.77966624502614       -0.20529230540505       -0.01827250222818
C           -3.40499736333696        1.21041949619961       -0.09995146723083
C           -4.75990243923345        1.52085540416215       -0.28211052378069
C           -5.22468379001574        2.81657160512103       -0.31635057936024
C           -4.33694674307384        3.87634938708613       -0.16851783290118
C           -2.99383809107207        3.62235859931282       -0.01678337398380
C           -2.52651883852653        2.30543751246023        0.00325432952417
O           -1.17521986684075        2.19711278155960        0.11977317840469
C            4.90503816020419       -0.89769874258011       -0.98161455572242
C            5.89533610618097       -1.86155233715115       -1.02629324290497
H            6.64477629079001       -3.68128925844690       -0.18406479270225
H            4.83474732867162       -3.85592521800235        1.48319950914823
H            3.08216929860355       -2.12476574993351        1.59024063062877
H            5.23950239607127        1.55563697810398        0.15259990902260
H            5.12414529792633        4.01429633156952        0.28628586823942
H            2.97114200985194        5.17962341200157        0.31483071157056
H            0.84512440373161        3.90635663311109        0.23554059674761
H            1.36594233959737       -2.39946231831280       -0.16506358238529
H           -2.27235093280774       -4.82925471258919       -0.16529013138800
H           -4.69295230180861       -5.30667149109080        0.07908177119647
H           -6.27799990146737       -3.42970064832306        0.36987942801295
H           -5.46423456226475       -1.13051028171923        0.36301775676872
H           -5.46221929210312        0.71402472211591       -0.41791933616026
H           -6.27743391339165        3.01206833040952       -0.45808856002134
H           -4.69618652361200        4.89457772147919       -0.18546699238586
H           -2.27729234613894        4.42396090346955        0.07812917204850
H            4.90737230069652       -0.07541475916806       -1.68135586210822
H            6.68466961609617       -1.78285404616480       -1.75913583096498

          :  Hamiltonian                  GFN2-xTB          :
         :: gradient norm              0.000080175537 Eh/a0 ::
         :: HOMO-LUMO gap              2.432053303197 eV    ::
         :: SCC energy               -87.275544256422 Eh    ::
         :: -> dispersion             -0.070958920337 Eh    ::
         :: repulsion energy           1.497489430839 Eh    ::

    * Orbital Energies and Occupations

         #    Occupation            Energy/Eh            Energy/eV
      -------------------------------------------------------------
         1        2.0000           -0.7271144             -19.7858
       ...           ...                  ...                  ...
        67        2.0000           -0.4213515             -11.4656
        68        2.0000           -0.4183462             -11.3838
        69        2.0000           -0.4150351             -11.2937
        70        2.0000           -0.4144405             -11.2775
        71        2.0000           -0.4109075             -11.1814
        72        2.0000           -0.4051382             -11.0244
        73        2.0000           -0.4006907             -10.9033
        74        2.0000           -0.3934457             -10.7062
        75        2.0000           -0.3900649             -10.6142
        76        2.0000           -0.3885856             -10.5740
        77        2.0000           -0.3857036             -10.4955
        78        2.0000           -0.3667637              -9.9801
        79        2.0000           -0.3564289              -9.6989 (HOMO)
        80                         -0.2670525              -7.2669 (LUMO)
        81                         -0.2449530              -6.6655
        82                         -0.2352093              -6.4004
        83                         -0.2335154              -6.3543
        84                         -0.2252466              -6.1293
        85                         -0.2206286              -6.0036
        86                         -0.2146325              -5.8404
        87                         -0.2070471              -5.6340
        88                         -0.1925695              -5.2401
        89                         -0.1796608              -4.8888
        90                         -0.1427589              -3.8847
       ...                                ...                  ...
       154                          0.7449407              20.2709
      -------------------------------------------------------------
                  HL-Gap            0.0893765 Eh            2.4321 eV

     #   Z          covCN         q      C6AA      α(0)
     1   6 C        2.919    -0.033    28.812     8.802
     2   6 C        2.920    -0.027    28.686     8.783
     3   6 C        2.922    -0.042    29.036     8.837
     4   6 C        2.914     0.065    26.548     8.449
     5   7 N        2.806    -0.038    21.979     6.963
     6   6 C        3.078     0.044    26.926     8.507
     7   6 C        2.910    -0.050    29.253     8.869
     8   6 C        2.924    -0.035    28.862     8.810
     9   6 C        2.920    -0.040    28.994     8.830
    10   6 C        2.912    -0.034    28.837     8.806
    11   6 C        3.066    -0.008    28.159     8.701
    12   6 C        3.065    -0.049    29.149     8.853
    13   6 C        2.867     0.137    24.999     8.196
    14   6 C        2.888    -0.130    31.329     9.177
    15   6 C        2.875     0.135    25.040     8.203
    16   6 C        2.906    -0.091    30.283     9.023
    17   6 C        3.073     0.051    26.789     8.486
    18   8 O        1.712    -0.226    17.746     5.688
    19   6 C        2.876     0.139    24.971     8.192
    20   6 C        2.916    -0.053    29.326     8.880
    21   6 C        2.920    -0.027    28.679     8.782
    22   6 C        2.915    -0.041    29.009     8.832
    23   6 C        2.925    -0.033    28.816     8.803
    24   6 C        2.882    -0.090    30.268     9.019
    25   5 B        2.724     0.209    18.259     7.160
    26   6 C        2.882    -0.090    30.250     9.017
    27   6 C        2.925    -0.032    28.808     8.802
    28   6 C        2.915    -0.040    28.991     8.829
    29   6 C        2.920    -0.027    28.676     8.781
    30   6 C        2.916    -0.052    29.296     8.876
    31   6 C        2.879     0.138    24.994     8.196
    32   8 O        1.711    -0.215    17.573     5.660
    33   6 C        2.922    -0.041    29.031     8.836
    34   6 C        2.920    -0.028    28.693     8.784
    35   1 H        0.926     0.036     2.500     2.473
    36   1 H        0.926     0.038     2.480     2.463
    37   1 H        0.926     0.043     2.414     2.430
    38   1 H        0.926     0.028     2.619     2.530
    39   1 H        0.926     0.029     2.600     2.521
    40   1 H        0.926     0.029     2.605     2.524
    41   1 H        0.926     0.041     2.437     2.441
    42   1 H        0.926     0.045     2.380     2.412
    43   1 H        0.926     0.043     2.409     2.427
    44   1 H        0.926     0.034     2.528     2.486
    45   1 H        0.926     0.030     2.589     2.516
    46   1 H        0.926     0.036     2.500     2.473
    47   1 H        0.926     0.037     2.489     2.467
    48   1 H        0.926     0.030     2.580     2.512
    49   1 H        0.926     0.035     2.518     2.481
    50   1 H        0.926     0.043     2.411     2.428
    51   1 H        0.926     0.042     2.420     2.433
    52   1 H        0.926     0.037     2.486     2.466

molecular dipole:
                 x           y           z       tot (Debye)
 q only:        0.314      -0.255      -0.010
   full:        0.392      -0.329      -0.017       1.301

 projected vibrational frequencies (cm⁻¹)
eigval :       -0.00    -0.00     0.00     0.00     0.00     0.00
eigval :       20.76    32.95    49.63    54.48    65.19    67.72
eigval :       76.62   106.14   116.79   130.39   166.04   198.59
eigval :      200.23   210.19   226.86   247.53   256.16   267.96
eigval :      275.37   281.30   342.71   347.42   372.07   378.29
eigval :      382.59   394.48   415.26   420.79   435.53   476.60
eigval :      483.58   488.80   497.23   536.11   539.09   541.69
eigval :      554.39   557.59   579.23   585.16   589.13   599.29
eigval :      617.38   634.76   650.56   666.14   677.59   681.14
eigval :      689.98   693.57   702.80   716.17   756.33   768.34
eigval :      772.61   776.08   777.57   784.52   828.04   832.57
eigval :      848.21   870.54   873.94   874.99   883.61   901.40
eigval :      904.24   907.73   910.97   912.51   913.80   921.87
eigval :      925.90   926.11   933.20   933.87   942.88   993.65
eigval :     1054.63  1067.40  1075.52  1080.30  1081.63  1087.31
eigval :     1099.30  1117.96  1123.86  1131.28  1157.26  1162.10
eigval :     1174.73  1178.74  1181.11  1184.35  1189.16  1202.96
eigval :     1212.52  1218.69  1228.86  1248.53  1261.93  1268.10
eigval :     1276.41  1282.58  1304.15  1316.16  1318.15  1326.01
eigval :     1332.57  1356.75  1366.21  1375.56  1407.38  1415.85
eigval :     1421.36  1428.40  1435.88  1447.28  1452.17  1460.09
eigval :     1482.16  1484.36  1545.81  1552.11  1559.48  1580.39
eigval :     1582.80  1591.09  1594.73  1596.25  1598.68  1608.97
eigval :     3075.59  3076.27  3076.63  3079.62  3082.15  3083.98
eigval :     3084.99  3085.79  3091.78  3093.00  3095.69  3097.05
eigval :     3097.64  3100.03  3103.27  3106.65  3110.40  3113.26

   temp. (K)  partition function   enthalpy   heat capacity  entropy
                                   cal/mol     cal/K/mol   cal/K/mol   J/K/mol
 298.15  VIB  0.143E+10            13840.073     94.171     83.012
         ROT  0.269E+08              888.752      2.981     36.982
         INT  0.386E+17            14728.826     97.151    119.994
         TR   0.879E+28             1481.254      4.968     44.082
         TOT                       16210.0795   102.1196   164.0761   686.4942

       T/K    H(0)-H(T)+PV         H(T)/Eh          T*S/Eh         G(T)/Eh
   ------------------------------------------------------------------------
    298.15    0.258324E-01    0.412928E+00    0.779578E-01    0.334970E+00
   ------------------------------------------------------------------------

         :::::::::::::::::::::::::::::::::::::::::::::::::::::
         ::                  THERMODYNAMIC                  ::
         :::::::::::::::::::::::::::::::::::::::::::::::::::::
         :: total free energy         -85.443084688677 Eh   ::
         ::.................................................::
         :: total energy              -85.778054825582 Eh   ::
         :: zero point energy           0.387095559931 Eh   ::
         :: G(RRHO) w/o ZPVE           -0.052125423027 Eh   ::
         :: G(RRHO) contrib.            0.334970136905 Eh   ::
         :::::::::::::::::::::::::::::::::::::::::::::::::::::

           -------------------------------------------------
          | TOTAL ENERGY              -85.778054825582 Eh   |
          | TOTAL ENTHALPY            -85.365126859655 Eh   |
          | TOTAL FREE ENERGY         -85.443084688677 Eh   |
          | GRADIENT NORM               0.000080147340 Eh/α |
          | HOMO-LUMO GAP               2.432057574021 eV   |
           -------------------------------------------------

 * finished run on 2025/09/13 at 05:37:13.186
