   * xtb version 6.7.1 (edcfbbe) compiled by 'albert@albert-system' on 2024-07-22

   ID    Z sym.   atoms
    1    6 C      1-4, 6-17, 19-24, 26-31, 33, 34
    2    7 N      5
    3    8 O      18, 32
    4    5 B      25
    5    1 H      35-52

          program call               : xtb data2507/gas/Ph-OBNA/Ph-OBNA.xyz --gfn 2 --ohess vtight --parallel 40 --molden --ceasefiles --namespace data2507/gas/Ph-OBNA/Ph-OBNA_gas_S0_preOpt
          :  Hamiltonian                  GFN2-xTB          :
 * total energy  :   -85.7213783 Eh     change       -0.3394135E-08 Eh
 * total energy  :   -85.7550276 Eh     change       -0.3364931E-01 Eh
 * total energy  :   -85.7675839 Eh     change       -0.1255634E-01 Eh
 * total energy  :   -85.7728731 Eh     change       -0.5289205E-02 Eh
 * total energy  :   -85.7756986 Eh     change       -0.2825473E-02 Eh
 * total energy  :   -85.7767767 Eh     change       -0.1078102E-02 Eh
 * total energy  :   -85.7770710 Eh     change       -0.2942654E-03 Eh
 * total energy  :   -85.7771938 Eh     change       -0.1227927E-03 Eh
 * total energy  :   -85.7772917 Eh     change       -0.9794225E-04 Eh
 * total energy  :   -85.7773840 Eh     change       -0.9226967E-04 Eh
 * total energy  :   -85.7780472 Eh     change       -0.2855152E-06 Eh
 * total energy  :   -85.7780475 Eh     change       -0.2357187E-06 Eh
 * total energy  :   -85.7780477 Eh     change       -0.2315163E-06 Eh
 * total energy  :   -85.7780480 Eh     change       -0.2584937E-06 Eh
 * total energy  :   -85.7780483 Eh     change       -0.3096036E-06 Eh
 * total energy  :   -85.7780486 Eh     change       -0.3504241E-06 Eh
 * total energy  :   -85.7780490 Eh     change       -0.3570930E-06 Eh
 * total energy  :   -85.7780493 Eh     change       -0.2951910E-06 Eh
 * total energy  :   -85.7780493 Eh     change       -0.1637488E-08 Eh
   *** GEOMETRY OPTIMIZATION CONVERGED AFTER 68 ITERATIONS ***

 final structure:
================
52
 xtb: 6.7.1 (edcfbbe)
C            5.85190994504151       -2.79974941856476        0.15905834243504
C            5.86072597682522       -1.72353561347722        1.03071267338343
C            4.85182690679644       -0.77922412897517        0.98337942439349
C            3.82779616839340       -0.90386165328364        0.04954733717054
N            2.80721089372364        0.05737114214289       -0.00872588877019
C            2.99320963606980        1.42617349244592       -0.09500227364310
C            4.16881207350408        2.15563931099940       -0.17712466969998
C            4.06768929861888        3.53108246717284       -0.27982090206378
C            2.83014922063171        4.16860562798203       -0.30938791020085
C            1.65487888463722        3.44552097592022       -0.25197122539496
C            1.73308334296959        2.06338554816899       -0.14833679478016
C            0.75060904682712        1.01961597645648       -0.08636573853276
C           -0.64364397969842        1.00503740833225       -0.07489528769208
C           -1.32950324776495       -0.21505348695543        0.01757091658418
C           -0.58025973760092       -1.40767969629431        0.11592485081959
C            0.80631945271356       -1.42256474399400        0.11603912691061
C            1.45721110166030       -0.20275073293348       -0.00294151510703
O           -1.19497540824417       -2.61015786593343        0.22713289275699
C           -2.54504668548811       -2.74791535914062        0.12809768433881
C           -2.98508666580004       -4.07383261646305        0.16172456077264
C           -4.32397908292676       -4.36180954460046        0.03246409215887
C           -5.23544802023295       -3.32779161250589       -0.14656386022221
C           -4.79751586987935       -2.02212688996100       -0.16419817219387
C           -3.44844176528821       -1.67684698684068       -0.00640424897578
B           -2.85120495179546       -0.24677364811727        0.02508394867366
C           -3.50500572788225        1.15800398449081        0.06837048498132
C           -4.86733114086736        1.44615156438362        0.23118764824274
C           -5.35800543481294        2.73271594149621        0.22918835443676
C           -4.49017155057016        3.80613481735975        0.06296276450642
C           -3.14106315965256        3.57517400696471       -0.07093718654534
C           -2.64770468390097        2.26768971660871       -0.05487349646588
O           -1.29371104300690        2.18406952503974       -0.15881497249161
C            3.82241437485894       -1.98309550283802       -0.82890084094424
C            4.83004152163831       -2.92770174420325       -0.76705493924868
H            6.63938512469133       -3.53692907316664        0.20139040119315
H            6.65332588986288       -1.62242649342342        1.75724585140124
H            4.84312839250160        0.04988370433649        1.67495159647668
H            5.13247133311254        1.66895694420791       -0.17207796787190
H            4.96920946909055        4.12264177961795       -0.34166118691148
H            2.79381974818411        5.24510901190962       -0.38748234141678
H            0.69310191202513        3.93188533137071       -0.29017355419083
H            1.33751287689141       -2.35493218537734        0.21402193679443
H           -2.24979043481604       -4.85505541699628        0.28022132319108
H           -4.66114187093801       -5.38745448017519        0.05728491812742
H           -6.28502094725101       -3.55014189279814       -0.27126796261637
H           -5.51844442047475       -1.23621506909164       -0.32323624302776
H           -5.55521959129299        0.62948991100552        0.38072904803412
H           -6.41572084195757        2.91038693064824        0.35671145012756
H           -4.86961438159115        4.81707911765648        0.05142244514560
H           -2.43960555099549        4.38823390212445       -0.18003907350702
H            3.03533432337846       -2.06710433072233       -1.56305475557536
H            4.82147728008175       -3.76330595201070       -1.45111106496876

          :  Hamiltonian                  GFN2-xTB          :
         :: gradient norm              0.000033124368 Eh/a0 ::
         :: HOMO-LUMO gap              2.431208086846 eV    ::
         :: SCC energy               -87.275496209960 Eh    ::
         :: -> dispersion             -0.070958144227 Eh    ::
         :: repulsion energy           1.497446930915 Eh    ::

    * Orbital Energies and Occupations

         #    Occupation            Energy/Eh            Energy/eV
      -------------------------------------------------------------
         1        2.0000           -0.7271562             -19.7869
       ...           ...                  ...                  ...
        67        2.0000           -0.4213548             -11.4656
        68        2.0000           -0.4183606             -11.3842
        69        2.0000           -0.4150499             -11.2941
        70        2.0000           -0.4144404             -11.2775
        71        2.0000           -0.4108943             -11.1810
        72        2.0000           -0.4051405             -11.0244
        73        2.0000           -0.4006462             -10.9021
        74        2.0000           -0.3934045             -10.7051
        75        2.0000           -0.3901564             -10.6167
        76        2.0000           -0.3885353             -10.5726
        77        2.0000           -0.3857280             -10.4962
        78        2.0000           -0.3667689              -9.9803
        79        2.0000           -0.3564123              -9.6985 (HOMO)
        80                         -0.2670670              -7.2673 (LUMO)
        81                         -0.2449615              -6.6657
        82                         -0.2352125              -6.4005
        83                         -0.2335168              -6.3543
        84                         -0.2252505              -6.1294
        85                         -0.2206280              -6.0036
        86                         -0.2146202              -5.8401
        87                         -0.2070283              -5.6335
        88                         -0.1925664              -5.2400
        89                         -0.1796420              -4.8883
        90                         -0.1427298              -3.8839
       ...                                ...                  ...
       154                          0.7449158              20.2702
      -------------------------------------------------------------
                  HL-Gap            0.0893453 Eh            2.4312 eV

     #   Z          covCN         q      C6AA      α(0)
     1   6 C        2.919    -0.033    28.811     8.802
     2   6 C        2.920    -0.028    28.693     8.784
     3   6 C        2.922    -0.041    29.031     8.836
     4   6 C        2.914     0.065    26.547     8.449
     5   7 N        2.806    -0.038    21.979     6.963
     6   6 C        3.078     0.044    26.926     8.507
     7   6 C        2.910    -0.050    29.253     8.869
     8   6 C        2.924    -0.035    28.862     8.810
     9   6 C        2.920    -0.040    28.995     8.830
    10   6 C        2.912    -0.034    28.837     8.806
    11   6 C        3.066    -0.008    28.159     8.701
    12   6 C        3.065    -0.049    29.150     8.853
    13   6 C        2.867     0.137    24.999     8.196
    14   6 C        2.888    -0.130    31.329     9.177
    15   6 C        2.875     0.135    25.040     8.203
    16   6 C        2.906    -0.091    30.283     9.023
    17   6 C        3.074     0.051    26.789     8.486
    18   8 O        1.712    -0.226    17.744     5.687
    19   6 C        2.876     0.139    24.971     8.192
    20   6 C        2.916    -0.053    29.326     8.880
    21   6 C        2.920    -0.027    28.678     8.782
    22   6 C        2.915    -0.041    29.009     8.832
    23   6 C        2.925    -0.033    28.816     8.803
    24   6 C        2.882    -0.091    30.268     9.019
    25   5 B        2.724     0.209    18.260     7.160
    26   6 C        2.882    -0.090    30.250     9.017
    27   6 C        2.925    -0.032    28.809     8.802
    28   6 C        2.915    -0.040    28.991     8.829
    29   6 C        2.920    -0.027    28.676     8.781
    30   6 C        2.916    -0.052    29.296     8.876
    31   6 C        2.879     0.138    24.994     8.196
    32   8 O        1.711    -0.215    17.571     5.660
    33   6 C        2.922    -0.042    29.036     8.837
    34   6 C        2.920    -0.027    28.686     8.783
    35   1 H        0.926     0.036     2.500     2.473
    36   1 H        0.926     0.037     2.486     2.466
    37   1 H        0.926     0.042     2.420     2.433
    38   1 H        0.926     0.028     2.618     2.530
    39   1 H        0.926     0.029     2.600     2.521
    40   1 H        0.926     0.029     2.605     2.524
    41   1 H        0.926     0.041     2.437     2.441
    42   1 H        0.926     0.045     2.380     2.412
    43   1 H        0.926     0.043     2.409     2.427
    44   1 H        0.926     0.034     2.528     2.486
    45   1 H        0.926     0.030     2.589     2.516
    46   1 H        0.926     0.036     2.500     2.473
    47   1 H        0.926     0.037     2.489     2.467
    48   1 H        0.926     0.030     2.580     2.512
    49   1 H        0.926     0.035     2.518     2.481
    50   1 H        0.926     0.043     2.411     2.428
    51   1 H        0.926     0.043     2.415     2.430
    52   1 H        0.926     0.038     2.480     2.463

molecular dipole:
                 x           y           z       tot (Debye)
 q only:        0.319      -0.249       0.010
   full:        0.398      -0.321       0.017       1.301

 projected vibrational frequencies (cm⁻¹)
eigval :       -0.00    -0.00     0.00     0.00     0.00     0.00
eigval :       20.37    32.66    49.50    53.51    65.06    67.54
eigval :       76.36   106.38   116.57   130.64   166.00   198.53
eigval :      200.35   210.12   226.93   247.91   256.21   267.82
eigval :      274.99   281.05   342.77   347.34   372.28   378.21
eigval :      382.53   394.20   415.16   420.64   435.39   476.62
eigval :      483.53   488.76   497.02   536.09   539.07   541.69
eigval :      554.39   557.64   579.24   585.24   589.06   599.26
eigval :      617.44   634.81   650.52   666.18   677.71   681.17
eigval :      690.01   693.52   702.83   716.23   756.26   768.28
eigval :      772.14   776.01   777.47   784.48   828.02   832.66
eigval :      848.27   870.44   873.38   874.82   883.60   901.35
eigval :      904.15   907.70   910.37   912.40   913.75   921.85
eigval :      925.80   926.08   933.20   933.86   942.80   993.67
eigval :     1054.71  1067.44  1075.48  1080.31  1081.59  1087.42
eigval :     1099.60  1117.96  1123.85  1131.27  1157.29  1162.05
eigval :     1174.69  1178.74  1181.11  1184.37  1189.21  1202.96
eigval :     1212.46  1218.66  1228.65  1248.63  1262.03  1268.02
eigval :     1276.33  1282.26  1304.03  1316.23  1318.18  1326.07
eigval :     1332.73  1356.74  1366.18  1375.58  1407.31  1415.85
eigval :     1421.33  1428.38  1435.85  1447.23  1452.15  1460.07
eigval :     1482.13  1484.37  1545.85  1552.10  1559.52  1580.43
eigval :     1582.80  1591.07  1594.76  1596.23  1598.72  1608.94
eigval :     3075.62  3076.30  3076.63  3079.65  3082.16  3084.03
eigval :     3085.06  3085.84  3091.79  3093.03  3095.69  3097.09
eigval :     3097.66  3100.04  3103.99  3106.61  3111.44  3113.18

   temp. (K)  partition function   enthalpy   heat capacity  entropy
                                   cal/mol     cal/K/mol   cal/K/mol   J/K/mol
 298.15  VIB  0.151E+10            13843.882     94.145     83.048
         ROT  0.269E+08              888.752      2.981     36.982
         INT  0.406E+17            14732.634     97.126    120.030
         TR   0.879E+28             1481.254      4.968     44.082
         TOT                       16213.8880   102.0942   164.1120   686.6448

       T/K    H(0)-H(T)+PV         H(T)/Eh          T*S/Eh         G(T)/Eh
   ------------------------------------------------------------------------
    298.15    0.258385E-01    0.412926E+00    0.779749E-01    0.334951E+00
   ------------------------------------------------------------------------

         :::::::::::::::::::::::::::::::::::::::::::::::::::::
         ::                  THERMODYNAMIC                  ::
         :::::::::::::::::::::::::::::::::::::::::::::::::::::
         :: total free energy         -85.443098601146 Eh   ::
         ::.................................................::
         :: total energy              -85.778049279045 Eh   ::
         :: zero point energy           0.387087133006 Eh   ::
         :: G(RRHO) w/o ZPVE           -0.052136455107 Eh   ::
         :: G(RRHO) contrib.            0.334950677899 Eh   ::
         :::::::::::::::::::::::::::::::::::::::::::::::::::::

           -------------------------------------------------
          | TOTAL ENERGY              -85.778049279045 Eh   |
          | TOTAL ENTHALPY            -85.365123670887 Eh   |
          | TOTAL FREE ENERGY         -85.443098601146 Eh   |
          | GRADIENT NORM               0.000033124772 Eh/α |
          | HOMO-LUMO GAP               2.431208208747 eV   |
           -------------------------------------------------

 * finished run on 2025/09/13 at 05:35:13.189
