   * xtb version 6.7.1 (edcfbbe) compiled by 'albert@albert-system' on 2024-07-22

   ID    Z sym.   atoms
    1    8 O      1
    2    6 C      2-9, 11-17, 19-37, 39-54, 56
    3    7 N      10, 18, 38, 55
    4    1 H      57-90

          program call               : xtb data2507/gas/IQ-oTPA/IQ-oTPA.xyz --gfn 2 --ohess vtight --parallel 40 --molden --ceasefiles --namespace data2507/gas/IQ-oTPA/IQ-oTPA_gas_S0_preOpt
          :  Hamiltonian                  GFN2-xTB          :
 * total energy  :  -142.2765821 Eh     change       -0.1103018E-08 Eh
 * total energy  :  -142.2952938 Eh     change       -0.1871173E-01 Eh
 * total energy  :  -142.3025109 Eh     change       -0.7217127E-02 Eh
 * total energy  :  -142.3044365 Eh     change       -0.1925556E-02 Eh
 * total energy  :  -142.3053689 Eh     change       -0.9324183E-03 Eh
 * total energy  :  -142.3057152 Eh     change       -0.3462800E-03 Eh
 * total energy  :  -142.3059320 Eh     change       -0.2167917E-03 Eh
 * total energy  :  -142.3061403 Eh     change       -0.2082730E-03 Eh
 * total energy  :  -142.3063625 Eh     change       -0.2222362E-03 Eh
 * total energy  :  -142.3065386 Eh     change       -0.1760788E-03 Eh
 * total energy  :  -142.3128689 Eh     change       -0.3547657E-06 Eh
 * total energy  :  -142.3128692 Eh     change       -0.2689337E-06 Eh
 * total energy  :  -142.3128695 Eh     change       -0.2682541E-06 Eh
 * total energy  :  -142.3128697 Eh     change       -0.2646471E-06 Eh
 * total energy  :  -142.3128700 Eh     change       -0.2280279E-06 Eh
 * total energy  :  -142.3128702 Eh     change       -0.2107471E-06 Eh
 * total energy  :  -142.3128703 Eh     change       -0.1834008E-06 Eh
 * total energy  :  -142.3128705 Eh     change       -0.1340427E-06 Eh
 * total energy  :  -142.3128706 Eh     change       -0.9877289E-07 Eh
   *** GEOMETRY OPTIMIZATION CONVERGED AFTER 114 ITERATIONS ***

 final structure:
================
90
 xtb: 6.7.1 (edcfbbe)
O            8.94041301163335        3.31364999958043        0.61151765991991
C            8.65399688005835        2.16874740169673        0.36598420245074
C            9.58241874888879        1.03577815958835        0.10692538447239
C           10.96370065050034        1.03475726151703        0.09009969636595
C           11.61882549314793       -0.16128359706465       -0.17878956758562
C           10.90428051311478       -1.32444729480025       -0.42391311552294
C            9.51412241769074       -1.33207695641159       -0.40891333792686
C            8.85942320523817       -0.14586236587379       -0.14240381722882
C            7.43742480073601        0.16162244204083       -0.05754668394742
N            6.42029269714403       -0.63738582078935       -0.21901464466422
C            5.20021748112713       -0.06003015331593       -0.07685073547468
C            4.04823716772533       -0.85179639020615       -0.22311759646327
C            2.80413540657914       -0.29434127440934       -0.08228118442542
C            1.54939931190743       -1.07188038390907       -0.17488274791448
C            0.98208640722303       -1.39178170807881       -1.40215710532948
C           -0.28722882599121       -1.92954982334865       -1.46895613441840
C           -1.01930872346875       -2.16501001399352       -0.30513588041614
N           -2.34469708681042       -2.60340642184475       -0.37976112142147
C           -2.84614122021213       -3.48946619116071        0.57993104102452
C           -4.14359916762724       -3.34950485439072        1.07201316006707
C           -4.62601493602131       -4.23146681007473        2.01944864006109
C           -3.82712376675962       -5.25792914513290        2.49626920799829
C           -2.53631604374754       -5.39857817063542        2.01330253944517
C           -2.04683479516071       -4.52660112531530        1.06048376916349
C           -3.19546581346694       -2.05982730616400       -1.35060671140902
C           -4.19384163879333       -2.84099622472266       -1.93132173404028
C           -5.03787982549612       -2.29777259580621       -2.88045026198243
C           -4.89650628307390       -0.97679639866823       -3.27299627938077
C           -3.89995625097754       -0.19928101140709       -2.70638136556463
C           -3.05795579343866       -0.73056324447613       -1.74935729613947
C           -0.41557698339700       -1.92232112142375        0.92923924598187
C            0.84740343192652       -1.37326007409587        0.98781468320673
C            2.66351038688345        1.09427677082805        0.19177639811789
C            1.27875144512262        1.61049242261923        0.26012153468944
C            0.55395533763837        1.77346049707924       -0.91604029860746
C           -0.79284177902009        2.06544922324215       -0.88241220953307
C           -1.45577931083418        2.18227544713595        0.33981459417495
N           -2.84229977447472        2.35494353946415        0.38848059701782
C           -3.48852442448689        3.12875664293476       -0.58176936803771
C           -4.72507891827621        2.74016060472724       -1.09666617530264
C           -5.35252103822266        3.51289282304271       -2.05449809087201
C           -4.75969122539436        4.67558962864956       -2.51912777581552
C           -3.52969800462803        5.06363191422824       -2.01334618731652
C           -2.89732408034432        4.30202061758959       -1.05007075948352
C           -3.58946357679044        1.65770435559333        1.34605753109481
C           -3.20649344680277        0.37921565522765        1.75074481858817
C           -3.94706696493076       -0.30413664217394        2.69503986446450
C           -5.08357258957573        0.26762407123741        3.24290380421193
C           -5.46907167461562        1.53707421099652        2.84417949604539
C           -4.72905342260721        2.23241306510536        1.90763626541395
C           -0.71427007692051        2.08982703980540        1.51772602426804
C            0.63641899392209        1.80925483928056        1.47591546886043
C            3.77235080740031        1.88222919107068        0.35206429150095
C            5.05923637363476        1.32826282034857        0.22698948767644
N            6.13816586011377        2.13179748015190        0.38978201285085
C            7.29511587081822        1.55372925505062        0.24908726929356
H           11.51062898247084        1.94519815780265        0.28229432665308
H           12.69823905289233       -0.18568096372224       -0.19713276171219
H           11.43755113365867       -2.24087411625071       -0.63018031148262
H            8.95395349001726       -2.23412682008463       -0.59882624993014
H            4.17010807096983       -1.90294621685761       -0.43588772908624
H            1.53057367534332       -1.19301812470689       -2.31130647174556
H           -0.73388483337599       -2.14804595429997       -2.42768478469590
H           -4.76417634379597       -2.54118153324691        0.71407249470397
H           -5.63121834441444       -4.10872620138586        2.39525692026809
H           -4.20726306766685       -5.94298387035390        3.23874702231158
H           -1.90749311657820       -6.19865825625633        2.37543417185520
H           -1.04285364191242       -4.64279505131447        0.67885266668057
H           -4.30060268574390       -3.87407311107539       -1.63423707224369
H           -5.80685540061343       -2.91409155169237       -3.32272045315665
H           -5.55656085837478       -0.55656823232065       -4.01650700084226
H           -3.78528254564836        0.83332924295216       -3.00271783456358
H           -2.28735402501714       -0.11879435636691       -1.30489766946277
H           -0.95490018368324       -2.13546870157617        1.84051763829798
H            1.28981942459137       -1.15103305495465        1.94772545454723
H            1.04958827751668        1.64558470842308       -1.86715472947849
H           -1.34560490167770        2.17291692009533       -1.80418869585195
H           -5.18332212555016        1.82631742383820       -0.74794813629072
H           -6.30792112385835        3.19784377309483       -2.44786852466685
H           -5.25228137506995        5.27485370974624       -3.26968210717927
H           -3.06190695428478        5.97117020511351       -2.36570264388068
H           -1.94216224780694        4.61061121445355       -0.65074171682994
H           -2.32531870594128       -0.07299358040191        1.32097736089614
H           -3.64148213936067       -1.29572478303958        2.99622685792598
H           -5.66304877864829       -0.27151409953197        3.97682244832845
H           -6.34918751445228        1.99437076996226        3.27201734084523
H           -5.02690645287609        3.22593720739608        1.60587404009807
H           -1.21297103784568        2.21500585125682        2.46747080092861
H            1.19562914363714        1.71904624942546        2.39569004577169
H            3.68778391530286        2.93682788555779        0.56482380081367

          :  Hamiltonian                  GFN2-xTB          :
         :: gradient norm              0.000034908475 Eh/a0 ::
         :: HOMO-LUMO gap              0.963653801926 eV    ::
         :: SCC energy              -144.921773364516 Eh    ::
         :: -> dispersion             -0.140126927760 Eh    ::
         :: repulsion energy           2.608902782958 Eh    ::

    * Orbital Energies and Occupations

         #    Occupation            Energy/Eh            Energy/eV
      -------------------------------------------------------------
         1        2.0000           -0.7140344             -19.4299
       ...           ...                  ...                  ...
       120        2.0000           -0.4100160             -11.1571
       121        2.0000           -0.4085748             -11.1179
       122        2.0000           -0.4075871             -11.0910
       123        2.0000           -0.4069130             -11.0727
       124        2.0000           -0.4063301             -11.0568
       125        2.0000           -0.4060366             -11.0488
       126        2.0000           -0.4047615             -11.0141
       127        2.0000           -0.4043987             -11.0042
       128        2.0000           -0.4021149             -10.9421
       129        2.0000           -0.3993934             -10.8680
       130        2.0000           -0.3559160              -9.6850
       131        2.0000           -0.3526466              -9.5960
       132        2.0000           -0.3510194              -9.5517 (HOMO)
       133                         -0.3156057              -8.5881 (LUMO)
       134                         -0.3006811              -8.1819
       135                         -0.2529037              -6.8819
       136                         -0.2396101              -6.5201
       137                         -0.2362403              -6.4284
       138                         -0.2331335              -6.3439
       139                         -0.2322401              -6.3196
       140                         -0.2313174              -6.2945
       141                         -0.2289829              -6.2309
       142                         -0.2270978              -6.1796
       143                         -0.2261157              -6.1529
       ...                                ...                  ...
       258                          0.7405084              20.1503
      -------------------------------------------------------------
                  HL-Gap            0.0354137 Eh            0.9637 eV

     #   Z          covCN         q      C6AA      α(0)
     1   8 O        0.856    -0.322    20.187     6.024
     2   6 C        2.854     0.225    23.286     7.909
     3   6 C        3.046    -0.024    28.548     8.763
     4   6 C        2.913    -0.013    28.336     8.729
     5   6 C        2.921    -0.024    28.609     8.771
     6   6 C        2.922    -0.020    28.502     8.755
     7   6 C        2.912    -0.021    28.537     8.760
     8   6 C        3.031     0.003    27.938     8.670
     9   6 C        3.031     0.086    26.059     8.373
    10   7 N        1.839    -0.231    26.908     7.687
    11   6 C        2.990     0.081    26.193     8.395
    12   6 C        2.919    -0.045    29.105     8.847
    13   6 C        2.982     0.015    27.667     8.628
    14   6 C        2.979     0.003    27.951     8.672
    15   6 C        2.923    -0.032    28.787     8.799
    16   6 C        2.922    -0.048    29.182     8.859
    17   6 C        2.925     0.065    26.546     8.449
    18   7 N        2.752    -0.076    22.714     7.078
    19   6 C        2.924     0.065    26.541     8.449
    20   6 C        2.922    -0.046    29.153     8.854
    21   6 C        2.920    -0.029    28.726     8.789
    22   6 C        2.919    -0.039    28.961     8.825
    23   6 C        2.919    -0.029    28.735     8.791
    24   6 C        2.923    -0.048    29.196     8.861
    25   6 C        2.925     0.065    26.549     8.450
    26   6 C        2.922    -0.048    29.182     8.859
    27   6 C        2.920    -0.029    28.735     8.791
    28   6 C        2.919    -0.038    28.951     8.823
    29   6 C        2.919    -0.028    28.700     8.785
    30   6 C        2.923    -0.048    29.182     8.859
    31   6 C        2.921    -0.048    29.184     8.859
    32   6 C        2.925    -0.032    28.797     8.800
    33   6 C        2.981     0.013    27.717     8.636
    34   6 C        2.979     0.003    27.950     8.672
    35   6 C        2.925    -0.032    28.799     8.801
    36   6 C        2.921    -0.048    29.187     8.859
    37   6 C        2.925     0.065    26.549     8.450
    38   7 N        2.752    -0.076    22.715     7.078
    39   6 C        2.924     0.065    26.542     8.449
    40   6 C        2.922    -0.047    29.156     8.855
    41   6 C        2.920    -0.029    28.729     8.790
    42   6 C        2.919    -0.039    28.961     8.825
    43   6 C        2.919    -0.029    28.733     8.790
    44   6 C        2.923    -0.048    29.193     8.860
    45   6 C        2.925     0.065    26.546     8.449
    46   6 C        2.923    -0.048    29.184     8.859
    47   6 C        2.919    -0.028    28.703     8.786
    48   6 C        2.919    -0.038    28.954     8.824
    49   6 C        2.920    -0.029    28.734     8.790
    50   6 C        2.922    -0.048    29.180     8.858
    51   6 C        2.922    -0.048    29.180     8.858
    52   6 C        2.923    -0.032    28.786     8.798
    53   6 C        2.919    -0.041    29.024     8.835
    54   6 C        2.991     0.076    26.286     8.410
    55   7 N        1.839    -0.201    26.202     7.586
    56   6 C        3.031     0.057    26.694     8.475
    57   1 H        0.926     0.059     2.211     2.325
    58   1 H        0.926     0.047     2.362     2.404
    59   1 H        0.926     0.047     2.363     2.404
    60   1 H        0.926     0.057     2.231     2.336
    61   1 H        0.926     0.057     2.233     2.337
    62   1 H        0.926     0.033     2.538     2.491
    63   1 H        0.926     0.036     2.498     2.471
    64   1 H        0.926     0.032     2.557     2.500
    65   1 H        0.926     0.031     2.565     2.505
    66   1 H        0.926     0.030     2.581     2.512
    67   1 H        0.926     0.032     2.564     2.504
    68   1 H        0.926     0.031     2.574     2.509
    69   1 H        0.926     0.032     2.554     2.499
    70   1 H        0.926     0.032     2.559     2.501
    71   1 H        0.926     0.030     2.581     2.512
    72   1 H        0.926     0.030     2.583     2.513
    73   1 H        0.926     0.030     2.582     2.513
    74   1 H        0.926     0.036     2.505     2.475
    75   1 H        0.926     0.032     2.555     2.499
    76   1 H        0.926     0.032     2.560     2.502
    77   1 H        0.926     0.036     2.509     2.477
    78   1 H        0.926     0.032     2.563     2.503
    79   1 H        0.926     0.031     2.569     2.507
    80   1 H        0.926     0.030     2.582     2.513
    81   1 H        0.926     0.032     2.557     2.501
    82   1 H        0.926     0.032     2.564     2.504
    83   1 H        0.926     0.030     2.588     2.516
    84   1 H        0.926     0.030     2.589     2.516
    85   1 H        0.926     0.030     2.584     2.514
    86   1 H        0.926     0.032     2.558     2.501
    87   1 H        0.926     0.033     2.551     2.497
    88   1 H        0.926     0.036     2.497     2.471
    89   1 H        0.926     0.034     2.533     2.489
    90   1 H        0.926     0.062     2.180     2.309

molecular dipole:
                 x           y           z       tot (Debye)
 q only:       -0.841      -1.374      -0.292
   full:       -0.762      -1.504      -0.321       4.362

 projected vibrational frequencies (cm⁻¹)
eigval :       -0.00    -0.00     0.00     0.00     0.00     0.00
eigval :       13.42    15.84    17.69    23.95    25.31    31.56
eigval :       40.46    44.16    48.91    50.84    58.94    65.69
eigval :       65.92    69.62    76.33    78.19    82.71    90.09
eigval :      109.09   114.46   115.73   125.60   133.21   149.65
eigval :      156.37   168.44   181.15   207.98   218.13   223.98
eigval :      235.14   236.31   257.42   263.23   291.86   303.20
eigval :      304.40   318.14   324.33   330.04   337.09   346.68
eigval :      358.53   360.12   378.10   378.19   380.65   382.95
eigval :      388.02   389.50   390.88   392.69   417.66   437.51
eigval :      443.41   448.68   461.16   480.65   487.13   491.74
eigval :      493.47   499.06   515.78   520.66   547.00   559.98
eigval :      573.88   582.34   584.77   588.18   589.31   590.08
eigval :      592.93   595.68   598.71   605.12   614.99   621.13
eigval :      634.93   659.18   660.56   660.65   665.99   674.42
eigval :      679.26   688.77   692.97   708.34   714.38   732.46
eigval :      733.23   744.10   749.41   756.68   758.54   759.99
eigval :      763.27   763.52   795.32   815.49   816.81   834.86
eigval :      859.06   868.48   872.05   875.58   876.62   877.58
eigval :      879.75   880.19   882.31   887.73   892.47   893.45
eigval :      893.96   896.18   903.70   910.04   910.54   914.55
eigval :      918.58   919.02   919.09   925.15   927.25   927.92
eigval :      928.00   929.46   929.87   930.33   931.18   931.18
eigval :      934.03   935.85   956.28   983.06   990.20  1005.37
eigval :     1005.79  1012.43  1030.61  1034.05  1063.43  1072.22
eigval :     1083.58  1083.70  1085.65  1086.43  1090.85  1122.69
eigval :     1122.98  1124.93  1126.63  1136.40  1138.91  1150.00
eigval :     1168.21  1180.49  1180.59  1181.09  1181.36  1182.03
eigval :     1186.77  1187.17  1190.27  1192.72  1195.34  1197.39
eigval :     1200.70  1212.17  1212.99  1218.74  1233.27  1248.90
eigval :     1257.97  1265.50  1267.02  1269.16  1279.24  1279.56
eigval :     1283.88  1284.66  1287.05  1311.30  1312.47  1319.61
eigval :     1321.55  1324.26  1324.46  1325.86  1326.50  1328.03
eigval :     1328.48  1339.47  1382.06  1407.08  1407.65  1414.33
eigval :     1428.46  1435.04  1436.39  1436.66  1443.89  1444.51
eigval :     1452.00  1469.42  1472.68  1473.87  1476.68  1477.85
eigval :     1489.17  1501.64  1550.43  1558.29  1558.66  1573.66
eigval :     1577.53  1577.64  1581.56  1581.69  1585.18  1594.14
eigval :     1594.49  1595.62  1596.66  1597.88  1603.41  1603.96
eigval :     1614.81  1758.44  3075.29  3075.58  3076.06  3076.30
eigval :     3076.79  3077.12  3077.51  3077.53  3077.84  3078.92
eigval :     3079.76  3080.98  3081.28  3086.37  3086.57  3087.42
eigval :     3087.63  3089.60  3090.25  3090.50  3090.64  3091.30
eigval :     3092.18  3092.66  3093.73  3095.18  3096.44  3097.83
eigval :     3097.91  3098.41  3099.02  3099.89  3100.38  3106.08

   temp. (K)  partition function   enthalpy   heat capacity  entropy
                                   cal/mol     cal/K/mol   cal/K/mol   J/K/mol
 298.15  VIB  0.250E+21            26258.688    164.971    164.230
         ROT  0.130E+09              888.752      2.981     40.110
         INT  0.325E+29            27147.440    167.952    204.340
         TR   0.186E+29             1481.254      4.968     45.577
         TOT                       28628.6941   172.9200   249.9170  1045.6528

       T/K    H(0)-H(T)+PV         H(T)/Eh          T*S/Eh         G(T)/Eh
   ------------------------------------------------------------------------
    298.15    0.456227E-01    0.732133E+00    0.118744E+00    0.613389E+00
   ------------------------------------------------------------------------

         :::::::::::::::::::::::::::::::::::::::::::::::::::::
         ::                  THERMODYNAMIC                  ::
         :::::::::::::::::::::::::::::::::::::::::::::::::::::
         :: total free energy        -141.699481640115 Eh   ::
         ::.................................................::
         :: total energy             -142.312870581558 Eh   ::
         :: zero point energy           0.686509856540 Eh   ::
         :: G(RRHO) w/o ZPVE           -0.073120915097 Eh   ::
         :: G(RRHO) contrib.            0.613388941443 Eh   ::
         :::::::::::::::::::::::::::::::::::::::::::::::::::::

           -------------------------------------------------
          | TOTAL ENERGY             -142.312870581558 Eh   |
          | TOTAL ENTHALPY           -141.580737997027 Eh   |
          | TOTAL FREE ENERGY        -141.699481640115 Eh   |
          | GRADIENT NORM               0.000034926102 Eh/α |
          | HOMO-LUMO GAP               0.963654701596 eV   |
           -------------------------------------------------

 * finished run on 2025/08/24 at 13:32:56.835
