   * xtb version 6.7.1 (edcfbbe) compiled by 'albert@albert-system' on 2024-07-22

   ID    Z sym.   atoms
    1    8 O      1
    2    6 C      2-9, 11-17, 19-37, 39-54, 56
    3    7 N      10, 18, 38, 55
    4    1 H      57-90

          program call               : xtb data2507/gas/IQ-oTPA/IQ-oTPA_gas_S0_crest.xyz --gfn 2 --ohess vtight --parallel 40 --molden --ceasefiles --namespace data2507/gas/IQ-oTPA/IQ-oTPA_gas_S0_finalOpt
          :  Hamiltonian                  GFN2-xTB          :
 * total energy  :  -142.3144212 Eh     change       -0.9123369E-09 Eh
 * total energy  :  -142.3144236 Eh     change       -0.2318504E-05 Eh
 * total energy  :  -142.3144269 Eh     change       -0.3354717E-05 Eh
 * total energy  :  -142.3144322 Eh     change       -0.5340742E-05 Eh
 * total energy  :  -142.3144346 Eh     change       -0.2320089E-05 Eh
 * total energy  :  -142.3144345 Eh     change        0.1137770E-06 Eh
 * total energy  :  -142.3144365 Eh     change       -0.2080662E-05 Eh
 * total energy  :  -142.3144390 Eh     change       -0.2425838E-05 Eh
 * total energy  :  -142.3144426 Eh     change       -0.3590834E-05 Eh
 * total energy  :  -142.3144474 Eh     change       -0.4842729E-05 Eh
 * total energy  :  -142.3144738 Eh     change       -0.3795485E-06 Eh
 * total energy  :  -142.3144741 Eh     change       -0.2578134E-06 Eh
 * total energy  :  -142.3144743 Eh     change       -0.2405714E-06 Eh
 * total energy  :  -142.3144746 Eh     change       -0.2810762E-06 Eh
 * total energy  :  -142.3144749 Eh     change       -0.3275170E-06 Eh
 * total energy  :  -142.3144752 Eh     change       -0.2986514E-06 Eh
 * total energy  :  -142.3144755 Eh     change       -0.2545748E-06 Eh
 * total energy  :  -142.3144757 Eh     change       -0.2433034E-06 Eh
 * total energy  :  -142.3144757 Eh     change       -0.1544578E-08 Eh
   *** GEOMETRY OPTIMIZATION CONVERGED AFTER 44 ITERATIONS ***

 final structure:
================
90
 xtb: 6.7.1 (edcfbbe)
O            8.27667161530220        3.05146000556546       -0.12526644405280
C            7.96999408979794        1.88563976652413       -0.09456051448192
C            8.87960614160607        0.70865953440000       -0.06662976471306
C           10.26062983551391        0.68087680167577       -0.07165732085219
C           10.89534688056892       -0.55536879850713       -0.04146027559968
C           10.16110533067718       -1.73149418338247       -0.00732038700160
C            8.77103748331609       -1.71237060871866       -0.00221497804222
C            8.13660798605853       -0.48620850330220       -0.03190146972215
C            6.72012720067023       -0.14413445562804       -0.03632966346938
N            5.69023410755880       -0.94284492777654       -0.01254683877938
C            4.48002713592271       -0.32739172207293       -0.02621410126688
C            3.31457898860650       -1.10755823122725       -0.02212063605904
C            2.07109962017968       -0.51996710777261       -0.04250563515962
C            0.85006914997387       -1.33478784472590       -0.10607342975982
C           -0.13123143727682       -1.04696206988551       -1.05511089376652
C           -1.32337290911500       -1.73215997074041       -1.06507967929660
C           -1.57916475742985       -2.72357270398718       -0.11516488011692
N           -2.83373813232911       -3.33262899623913       -0.07502281496615
C           -2.96569807049073       -4.68946306309036        0.23114340752366
C           -4.06153450918073       -5.14891365431557        0.96152145005977
C           -4.18837914294959       -6.49283336453159        1.25362073794176
C           -3.22675334095914       -7.39722181759262        0.83371134487143
C           -2.13428782845310       -6.94527761648767        0.11174771240764
C           -2.00253690910558       -5.60479612083431       -0.19351014710650
C           -3.96722371952266       -2.54100662742665       -0.31217085434865
C           -5.04178335805440       -3.03625002235151       -1.04830193814032
C           -6.14589108949195       -2.23957393657699       -1.28535495032873
C           -6.19639432428620       -0.94451274596658       -0.79637536287795
C           -5.13314566854985       -0.45080718558473       -0.05859007668362
C           -4.02573475182649       -1.23868905385480        0.18394036267017
C           -0.57449098638919       -3.06050413511535        0.79203588396440
C            0.62491072313709       -2.37780384010885        0.78792528173266
C            1.95541699344606        0.89919467337592       -0.02887094411936
C            0.61779269109220        1.51342022735246        0.04686363839266
C            0.18551791314452        2.41528438588049       -0.92068682137811
C           -1.10131897182588        2.91226007214879       -0.89353941144260
C           -1.98087872220732        2.54014665109702        0.12251041111519
N           -3.29898706850596        3.01276589802518        0.12004613371290
C           -4.01148316786219        3.00893817271151       -1.08566978909509
C           -4.90306843349539        4.03567435388425       -1.39244098551478
C           -5.61161098197435        4.00811090314209       -2.57807007380279
C           -5.43899476119591        2.96698668034475       -3.47549986063190
C           -4.54582590788376        1.95028694803577       -3.17949561350762
C           -3.83573620134361        1.96618660811568       -1.99542843066849
C           -3.89724265235004        3.43176719011113        1.31030581222178
C           -3.12753881687531        4.03128339174963        2.30830328206412
C           -3.71236642388092        4.43920407237293        3.49078394260453
C           -5.07090692418913        4.26674837367505        3.69952922091311
C           -5.84151280049174        3.67817363841862        2.71067216327765
C           -5.26489517068457        3.26002107109081        1.52731048217055
C           -1.53127976445655        1.68199210653257        1.12576528790779
C           -0.25303593331705        1.16937097757161        1.07890762322799
C            3.08529835052212        1.67910271113769       -0.05690475863711
C            4.36310873530692        1.09568660909674       -0.06218714308621
N            5.45440346766593        1.89792182843216       -0.08734979012310
C            6.60183759290212        1.28335515847928       -0.07462622561253
H           10.82308208758770        1.60170199826156       -0.09857890140820
H           11.97424034510183       -0.60118906355916       -0.04473803664979
H           10.67871035095801       -2.67932799549147        0.01561610340891
H            8.19548723158010       -2.62430838649668        0.02401277142715
H            3.42017014199699       -2.18179690385113       -0.03198345754716
H            0.05224077298868       -0.28639302519308       -1.79875500606943
H           -2.07815620711721       -1.49940764431599       -1.80182093718447
H           -4.80729655073634       -4.44480320947007        1.30034266384795
H           -5.04108735800352       -6.83499372811599        1.82147457597837
H           -3.32813075954944       -8.44612703523891        1.06698420703651
H           -1.38220645898468       -7.64362708181693       -0.22492044838948
H           -1.15629950927308       -5.25707687160645       -0.76788385557000
H           -5.00085179818227       -4.04388964104999       -1.43560843762258
H           -6.96973518441264       -2.63185766747633       -1.86328749902797
H           -7.05811962485267       -0.32367148327623       -0.98860609843620
H           -5.16784765236930        0.55132558082423        0.33990052892349
H           -3.19708105802786       -0.85120764398930        0.75892653737797
H           -0.75232277017847       -3.84083374874269        1.51728825963780
H            1.38116256086903       -2.62186427385861        1.51984827527326
H            0.85756000443786        2.70473369011346       -1.71563406935519
H           -1.44006405116685        3.58926035508915       -1.66408171126121
H           -5.03302834882613        4.85243039544431       -0.69750084248584
H           -6.29878934928036        4.80982864282117       -2.80549424494913
H           -5.99590103392255        2.94920858758572       -4.39996332828568
H           -4.40816240589338        1.13206214749102       -3.87093468715211
H           -3.14782466012886        1.16732030972056       -1.75999650209388
H           -2.06990295553364        4.17892529173990        2.14604268451644
H           -3.10285633011390        4.90389613561365        4.25182770649856
H           -5.52530331784434        4.58980702747145        4.62364069155970
H           -6.90127247344237        3.53554672405535        2.86353795059024
H           -5.87499601385374        2.79934327828201        0.76389239639477
H           -2.19880437897347        1.40883177368958        1.93012841593632
H            0.07816998622169        0.48788761236230        1.84873655991073
H            3.01889467250279        2.75639474824299       -0.05064179431248

          :  Hamiltonian                  GFN2-xTB          :
         :: gradient norm              0.000030661371 Eh/a0 ::
         :: HOMO-LUMO gap              1.030472165501 eV    ::
         :: SCC energy              -144.922849254294 Eh    ::
         :: -> dispersion             -0.134980097459 Eh    ::
         :: repulsion energy           2.608373529267 Eh    ::

    * Orbital Energies and Occupations

         #    Occupation            Energy/Eh            Energy/eV
      -------------------------------------------------------------
         1        2.0000           -0.7118392             -19.3701
       ...           ...                  ...                  ...
       120        2.0000           -0.4109173             -11.1816
       121        2.0000           -0.4102060             -11.1623
       122        2.0000           -0.4089229             -11.1274
       123        2.0000           -0.4088120             -11.1243
       124        2.0000           -0.4076618             -11.0930
       125        2.0000           -0.4063044             -11.0561
       126        2.0000           -0.4055930             -11.0367
       127        2.0000           -0.4017678             -10.9327
       128        2.0000           -0.4002319             -10.8909
       129        2.0000           -0.3945604             -10.7365
       130        2.0000           -0.3541125              -9.6359
       131        2.0000           -0.3538804              -9.6296
       132        2.0000           -0.3517346              -9.5712 (HOMO)
       133                         -0.3138655              -8.5407 (LUMO)
       134                         -0.2994452              -8.1483
       135                         -0.2563506              -6.9757
       136                         -0.2437585              -6.6330
       137                         -0.2383895              -6.4869
       138                         -0.2337580              -6.3609
       139                         -0.2333534              -6.3499
       140                         -0.2319141              -6.3107
       141                         -0.2308678              -6.2822
       142                         -0.2260240              -6.1504
       143                         -0.2256268              -6.1396
       ...                                ...                  ...
       258                          0.7417075              20.1829
      -------------------------------------------------------------
                  HL-Gap            0.0378692 Eh            1.0305 eV

     #   Z          covCN         q      C6AA      α(0)
     1   8 O        0.856    -0.324    20.226     6.030
     2   6 C        2.854     0.224    23.296     7.911
     3   6 C        3.047    -0.024    28.551     8.764
     4   6 C        2.913    -0.013    28.343     8.730
     5   6 C        2.921    -0.025    28.616     8.772
     6   6 C        2.922    -0.020    28.510     8.756
     7   6 C        2.912    -0.022    28.544     8.761
     8   6 C        3.031     0.002    27.943     8.671
     9   6 C        3.032     0.086    26.064     8.374
    10   7 N        1.839    -0.233    26.955     7.694
    11   6 C        2.989     0.080    26.203     8.397
    12   6 C        2.922    -0.047    29.155     8.855
    13   6 C        2.978     0.014    27.702     8.633
    14   6 C        2.978     0.004    27.934     8.670
    15   6 C        2.924    -0.031    28.762     8.795
    16   6 C        2.922    -0.047    29.175     8.858
    17   6 C        2.927     0.066    26.522     8.446
    18   7 N        2.753    -0.074    22.668     7.071
    19   6 C        2.922     0.065    26.553     8.450
    20   6 C        2.922    -0.048    29.198     8.861
    21   6 C        2.920    -0.029    28.723     8.789
    22   6 C        2.919    -0.038    28.956     8.824
    23   6 C        2.920    -0.029    28.726     8.789
    24   6 C        2.923    -0.049    29.205     8.862
    25   6 C        2.927     0.065    26.555     8.451
    26   6 C        2.922    -0.047    29.155     8.855
    27   6 C        2.920    -0.029    28.718     8.788
    28   6 C        2.919    -0.036    28.905     8.817
    29   6 C        2.920    -0.027    28.687     8.783
    30   6 C        2.923    -0.046    29.140     8.852
    31   6 C        2.920    -0.048    29.197     8.861
    32   6 C        2.923    -0.033    28.818     8.803
    33   6 C        2.977     0.011    27.756     8.642
    34   6 C        2.978     0.006    27.878     8.661
    35   6 C        2.923    -0.033    28.810     8.802
    36   6 C        2.922    -0.046    29.141     8.852
    37   6 C        2.927     0.066    26.521     8.446
    38   7 N        2.752    -0.076    22.715     7.079
    39   6 C        2.925     0.065    26.538     8.448
    40   6 C        2.922    -0.047    29.173     8.857
    41   6 C        2.920    -0.029    28.730     8.790
    42   6 C        2.919    -0.038    28.937     8.821
    43   6 C        2.920    -0.028    28.708     8.786
    44   6 C        2.923    -0.046    29.143     8.853
    45   6 C        2.921     0.065    26.551     8.450
    46   6 C        2.923    -0.049    29.226     8.865
    47   6 C        2.920    -0.029    28.721     8.788
    48   6 C        2.919    -0.039    28.974     8.827
    49   6 C        2.920    -0.029    28.735     8.791
    50   6 C        2.922    -0.049    29.226     8.865
    51   6 C        2.920    -0.046    29.133     8.851
    52   6 C        2.924    -0.031    28.766     8.795
    53   6 C        2.922    -0.043    29.061     8.840
    54   6 C        2.990     0.076    26.291     8.411
    55   7 N        1.839    -0.203    26.246     7.592
    56   6 C        3.032     0.056    26.711     8.477
    57   1 H        0.926     0.058     2.217     2.329
    58   1 H        0.926     0.046     2.371     2.408
    59   1 H        0.926     0.046     2.372     2.408
    60   1 H        0.926     0.057     2.238     2.340
    61   1 H        0.926     0.056     2.242     2.342
    62   1 H        0.926     0.033     2.540     2.492
    63   1 H        0.926     0.033     2.549     2.497
    64   1 H        0.926     0.031     2.566     2.505
    65   1 H        0.926     0.032     2.559     2.502
    66   1 H        0.926     0.031     2.575     2.509
    67   1 H        0.926     0.032     2.557     2.501
    68   1 H        0.926     0.031     2.567     2.506
    69   1 H        0.926     0.033     2.539     2.492
    70   1 H        0.926     0.033     2.542     2.493
    71   1 H        0.926     0.030     2.579     2.512
    72   1 H        0.926     0.033     2.538     2.491
    73   1 H        0.926     0.030     2.590     2.516
    74   1 H        0.926     0.037     2.495     2.470
    75   1 H        0.926     0.037     2.494     2.470
    76   1 H        0.926     0.037     2.494     2.470
    77   1 H        0.926     0.037     2.496     2.470
    78   1 H        0.926     0.034     2.534     2.489
    79   1 H        0.926     0.033     2.550     2.497
    80   1 H        0.926     0.031     2.572     2.508
    81   1 H        0.926     0.030     2.582     2.513
    82   1 H        0.926     0.029     2.604     2.524
    83   1 H        0.926     0.030     2.581     2.512
    84   1 H        0.926     0.032     2.564     2.504
    85   1 H        0.926     0.030     2.588     2.516
    86   1 H        0.926     0.031     2.574     2.509
    87   1 H        0.926     0.029     2.594     2.519
    88   1 H        0.926     0.034     2.524     2.485
    89   1 H        0.926     0.032     2.559     2.501
    90   1 H        0.926     0.060     2.194     2.317

molecular dipole:
                 x           y           z       tot (Debye)
 q only:       -1.119      -1.446      -0.021
   full:       -1.045      -1.583      -0.014       4.821

 projected vibrational frequencies (cm⁻¹)
eigval :       -0.00    -0.00     0.00     0.00     0.00     0.00
eigval :        8.72    13.76    14.08    21.10    21.84    23.38
eigval :       36.39    41.50    48.54    52.62    56.58    58.73
eigval :       65.77    70.10    75.29    78.11    81.84    92.62
eigval :      107.74   112.58   116.64   130.06   134.14   151.72
eigval :      156.77   171.36   187.57   207.28   214.48   230.46
eigval :      233.33   236.20   257.23   264.79   290.40   303.70
eigval :      305.33   314.46   322.38   332.40   339.15   349.21
eigval :      359.97   361.59   378.12   378.97   379.79   382.29
eigval :      388.48   389.39   390.78   396.20   411.42   439.38
eigval :      443.50   451.93   461.50   479.42   484.64   491.43
eigval :      493.39   503.36   512.63   519.48   544.59   560.48
eigval :      574.31   582.56   584.23   588.17   589.75   590.85
eigval :      592.69   594.22   598.70   606.72   613.62   624.45
eigval :      636.93   657.42   659.28   659.82   666.40   668.07
eigval :      675.45   691.85   692.30   709.42   714.53   731.96
eigval :      733.33   745.01   747.59   756.38   756.74   757.37
eigval :      761.87   762.22   794.79   816.38   817.55   837.61
eigval :      860.56   869.52   872.24   873.79   874.44   876.27
eigval :      877.12   880.29   882.65   887.50   891.22   891.89
eigval :      893.48   894.41   904.68   910.24   910.81   917.56
eigval :      918.52   918.74   918.78   926.31   927.35   927.43
eigval :      927.99   928.15   928.65   929.47   929.91   930.22
eigval :      930.96   932.70   957.29   983.20   989.92  1004.78
eigval :     1005.48  1012.86  1030.72  1034.58  1063.48  1072.49
eigval :     1083.12  1083.76  1084.28  1085.17  1091.16  1122.24
eigval :     1122.63  1124.47  1125.95  1137.60  1140.90  1151.36
eigval :     1168.17  1180.36  1180.73  1180.78  1181.16  1183.28
eigval :     1185.69  1187.42  1193.23  1194.82  1195.39  1195.82
eigval :     1197.64  1213.44  1214.79  1219.95  1233.61  1255.39
eigval :     1262.18  1264.81  1268.96  1271.98  1279.02  1279.14
eigval :     1282.46  1283.38  1291.23  1311.84  1312.99  1320.72
eigval :     1322.32  1324.87  1326.78  1327.17  1327.51  1328.26
eigval :     1331.16  1346.59  1382.15  1406.51  1409.61  1414.08
eigval :     1426.93  1434.70  1436.41  1436.97  1443.59  1444.16
eigval :     1452.93  1470.74  1471.95  1473.11  1476.93  1477.75
eigval :     1489.92  1497.84  1536.97  1555.45  1557.79  1570.52
eigval :     1577.17  1577.76  1581.20  1581.74  1584.74  1592.71
eigval :     1593.51  1595.00  1595.42  1596.02  1601.17  1602.22
eigval :     1608.18  1755.46  3074.89  3076.39  3076.42  3076.84
eigval :     3076.95  3077.39  3077.56  3077.72  3078.39  3078.88
eigval :     3080.75  3080.83  3082.63  3085.10  3086.30  3086.81
eigval :     3087.05  3088.73  3089.65  3089.71  3089.98  3090.20
eigval :     3090.76  3091.21  3093.50  3095.44  3096.50  3097.82
eigval :     3098.09  3098.36  3098.45  3100.10  3104.78  3105.78

   temp. (K)  partition function   enthalpy   heat capacity  entropy
                                   cal/mol     cal/K/mol   cal/K/mol   J/K/mol
 298.15  VIB  0.113E+22            26296.881    164.591    165.263
         ROT  0.150E+09              888.752      2.981     40.399
         INT  0.171E+30            27185.633    167.572    205.662
         TR   0.186E+29             1481.254      4.968     45.577
         TOT                       28666.8873   172.5405   251.2390  1051.1840

       T/K    H(0)-H(T)+PV         H(T)/Eh          T*S/Eh         G(T)/Eh
   ------------------------------------------------------------------------
    298.15    0.456836E-01    0.732071E+00    0.119372E+00    0.612699E+00
   ------------------------------------------------------------------------

         :::::::::::::::::::::::::::::::::::::::::::::::::::::
         ::                  THERMODYNAMIC                  ::
         :::::::::::::::::::::::::::::::::::::::::::::::::::::
         :: total free energy        -141.701776464357 Eh   ::
         ::.................................................::
         :: total energy             -142.314475725026 Eh   ::
         :: zero point energy           0.686387430524 Eh   ::
         :: G(RRHO) w/o ZPVE           -0.073688169855 Eh   ::
         :: G(RRHO) contrib.            0.612699260669 Eh   ::
         :::::::::::::::::::::::::::::::::::::::::::::::::::::

           -------------------------------------------------
          | TOTAL ENERGY             -142.314475725026 Eh   |
          | TOTAL ENTHALPY           -141.582404701772 Eh   |
          | TOTAL FREE ENERGY        -141.701776464357 Eh   |
          | GRADIENT NORM               0.000030659497 Eh/α |
          | HOMO-LUMO GAP               1.030472043055 eV   |
           -------------------------------------------------

 * finished run on 2025/08/24 at 13:41:20.516
