   * xtb version 6.7.1 (edcfbbe) compiled by 'albert@albert-system' on 2024-07-22

   ID    Z sym.   atoms
    1    8 O      1
    2    6 C      2-9, 11-17, 19-37, 39-54, 56
    3    7 N      10, 18, 38, 55
    4    1 H      57-90

          program call               : xtb data2507/gas/IQ-oTPA/IQ-oTPA_gas_T1_crest.xyz --gfn 2 --spinpol --tblite --uhf 2 --ohess vtight --parallel 40 --molden --ceasefiles --namespace data2507/gas/IQ-oTPA/IQ-oTPA_gas_T1_finalOpt
 * total energy  :  -142.2753037 Eh     change       -0.7995453E-08 Eh
 * total energy  :  -142.2753382 Eh     change       -0.3451474E-04 Eh
 * total energy  :  -142.2753542 Eh     change       -0.1592236E-04 Eh
 * total energy  :  -142.2753572 Eh     change       -0.3034354E-05 Eh
 * total energy  :  -142.2753591 Eh     change       -0.1898231E-05 Eh
 * total energy  :  -142.2753598 Eh     change       -0.6569814E-06 Eh
 * total energy  :  -142.2753606 Eh     change       -0.8846386E-06 Eh
 * total energy  :  -142.2753616 Eh     change       -0.9480679E-06 Eh
 * total energy  :  -142.2753626 Eh     change       -0.1052303E-05 Eh
 * total energy  :  -142.2753638 Eh     change       -0.1168310E-05 Eh
 * total energy  :  -142.2753677 Eh     change       -0.1193715E-05 Eh
 * total energy  :  -142.2753689 Eh     change       -0.1195837E-05 Eh
 * total energy  :  -142.2753701 Eh     change       -0.1128089E-05 Eh
 * total energy  :  -142.2753711 Eh     change       -0.1086643E-05 Eh
 * total energy  :  -142.2753725 Eh     change       -0.1317604E-05 Eh
 * total energy  :  -142.2753735 Eh     change       -0.1007603E-05 Eh
 * total energy  :  -142.2753742 Eh     change       -0.7555188E-06 Eh
 * total energy  :  -142.2753747 Eh     change       -0.4391144E-06 Eh
 * total energy  :  -142.2753747 Eh     change       -0.7186941E-08 Eh
   *** GEOMETRY OPTIMIZATION CONVERGED AFTER 22 ITERATIONS ***

 final structure:
================
90
 xtb: 6.7.1 (edcfbbe)
O            8.30133708509941        3.01378248992600       -0.24440093692587
C            7.99907038703248        1.82531424128806       -0.16934560622527
C            8.90523149733035        0.65715076321141       -0.09921174360396
C           10.28692817153601        0.61558440365653       -0.10059212504361
C           10.90747391387794       -0.62593397349372       -0.02555622439490
C           10.16727601118362       -1.79645101535059        0.04888594509270
C            8.77653251183111       -1.76494945426639        0.05094028134055
C            8.15685780881143       -0.53433421774709       -0.02321220187616
C            6.75169973462646       -0.18080414019794       -0.04063076131953
N            5.69412020102309       -0.90569354900750        0.00769785239160
C            4.46955168083520       -0.33260837158888       -0.02559264242763
C            3.30983080415336       -1.09568013593930        0.00929927979765
C            2.05572727205563       -0.50820455859043       -0.03350910834174
C            0.83686758320362       -1.32595820376166       -0.06131802262091
C           -0.15855358956965       -1.06099226942199       -1.00324801559048
C           -1.35377711760475       -1.74031419518434       -0.97545019237286
C           -1.59374952952535       -2.70973459006313       -0.00033418592964
N           -2.85536447397156       -3.30852455477565        0.07579316086165
C           -2.98976897750559       -4.67003462658987        0.34577946209042
C           -4.08409378378425       -5.14842976501633        1.06743031243479
C           -4.21019034249125       -6.49926478367008        1.32493922305246
C           -3.24995243044435       -7.39304083948221        0.87939243575772
C           -2.15858020676715       -6.92262121331952        0.16740426272172
C           -2.02694549820190       -5.57500980569269       -0.10332478054831
C           -3.97830917362435       -2.48880136608057       -0.10145969312513
C           -5.08829493847172       -2.93478302423051       -0.81669172298772
C           -6.17575224716306       -2.10156403234954       -0.99843088645781
C           -6.17593415342563       -0.81983177923268       -0.47279882007874
C           -5.07793551035213       -0.37555697616039        0.24550433294961
C           -3.98573493220945       -1.19900071597003        0.43054243633146
C           -0.57525317784234       -3.03238500637851        0.89529064469724
C            0.62415530856037       -2.34999549125689        0.85840226441210
C            1.95215197891480        0.90249773923829       -0.07723185835112
C            0.61878085017973        1.52994799050519       -0.02458114182750
C            0.17562721019493        2.36647397246904       -1.04445000037335
C           -1.11311012233225        2.85973457527645       -1.03786249573600
C           -1.97952099836494        2.55385401813349        0.01054879088383
N           -3.30266054206962        3.01755262636147       -0.01407081067976
C           -4.03663347211837        2.87331654304248       -1.19699170538845
C           -4.95372606942197        3.84542429630264       -1.59432289532267
C           -5.68280819600411        3.67730534730516       -2.75552963727053
C           -5.50613601808127        2.54828116662370       -3.53882572801908
C           -4.58647863174901        1.58618168913747       -3.15437587177758
C           -3.85485945519395        1.74280563432564       -1.99409609525243
C           -3.87915618484718        3.54956311743994        1.13948153310425
C           -3.08825018153352        4.23453641187662        2.06381864819244
C           -3.64970010940242        4.75576524626975        3.21244379254766
C           -5.00516519492800        4.61220794880157        3.46030640689464
C           -5.79635541346490        3.93751985835281        2.54523604907139
C           -5.24385463846153        3.40692691726560        1.39604632326113
C           -1.51742832554818        1.76908019308231        1.06615145724395
C           -0.23897532948499        1.25498003256648        1.03850646900091
C            3.08730092649046        1.68133008891465       -0.13110704005313
C            4.36714650991927        1.10846618157592       -0.11433074326121
N            5.47590020084871        1.83006913429728       -0.16234759282690
C            6.66426845157943        1.26438127209932       -0.13032396284692
H           10.85970815023438        1.52796305954953       -0.15890443834450
H           11.98626031548810       -0.68024885985378       -0.02539396138709
H           10.67614105723964       -2.74708208341068        0.10618027123471
H            8.19385587277146       -2.67135437765913        0.10861008699167
H            3.40703127396423       -2.17027195249498        0.04333598647254
H            0.01525300044823       -0.32102929253097       -1.76938071648226
H           -2.12213359050294       -1.52259218547211       -1.70296111720636
H           -4.82777440828872       -4.45338246825863        1.42863790817065
H           -5.06138975212086       -6.85576205873189        1.88614848283775
H           -3.35128165296686       -8.44756764434556        1.08546508574026
H           -1.40720531772842       -7.61205365428635       -0.18854297214515
H           -1.18204506990511       -5.21314097644118       -0.67076197733787
H           -5.08645228241282       -3.93135963484482       -1.23355642921341
H           -7.02686677896166       -2.45448398803071       -1.56194705810531
H           -7.02573865959680       -0.17140581566983       -0.62215144296306
H           -5.07364953398962        0.61461258479593        0.67464674183581
H           -3.12889904204336       -0.85090002662793        0.98904794176510
H           -0.74304901715743       -3.79863906871940        1.63792410191828
H            1.39117676170233       -2.57985111794718        1.58367422790394
H            0.83914865243986        2.60380394077832       -1.86340692494809
H           -1.46379833511260        3.48121303481631       -1.84880612069836
H           -5.08588576528776        4.73093535708236       -0.98998766075978
H           -6.38957069002504        4.43745847533444       -3.05420880696957
H           -6.07995984063065        2.42059316895625       -4.44401635794759
H           -4.44493664173287        0.70113796469115       -3.75691850984360
H           -3.14627551254004        0.98737755391766       -1.68796193056453
H           -2.03318718644171        4.35970015108293        1.86955583743382
H           -3.02448711460300        5.28617212531897        3.91541754952838
H           -5.44126862617986        5.02373432350163        4.35757641242846
H           -6.85354216460163        3.81574950614133        2.73021732154413
H           -5.86924304208504        2.87854451962308        0.69122533364253
H           -2.17625365947883        1.55081139443224        1.89407114264253
H            0.10254084793152        0.62411800927801        1.84595836860187
H            3.01302239334726        2.75749585989833       -0.16113948065371

 projected vibrational frequencies (cm⁻¹)
eigval :       -0.00    -0.00    -0.00    -0.00     0.00     0.00
eigval :        8.95    13.66    14.70    21.79    22.02    23.87
eigval :       37.22    42.03    48.13    52.76    56.95    59.42
eigval :       66.50    69.58    77.35    78.47    81.75    95.69
eigval :      106.75   114.63   127.12   129.59   134.52   154.19
eigval :      158.91   174.52   188.45   208.52   213.33   229.29
eigval :      233.21   236.48   257.28   265.25   289.88   303.52
eigval :      307.34   316.32   320.25   332.95   338.73   355.37
eigval :      360.59   363.15   377.63   378.26   379.22   381.97
eigval :      388.63   390.36   396.92   399.08   411.91   427.93
eigval :      439.49   446.42   463.24   478.11   483.08   492.26
eigval :      493.54   503.94   510.67   514.22   537.83   554.32
eigval :      572.09   579.03   580.68   583.71   587.27   588.43
eigval :      590.63   593.41   594.78   602.96   607.09   618.23
eigval :      633.52   639.07   656.10   658.82   658.98   664.17
eigval :      665.50   674.18   686.53   690.92   702.93   705.40
eigval :      706.29   723.53   734.32   741.67   756.02   756.17
eigval :      760.86   761.58   775.90   815.21   816.49   830.12
eigval :      839.77   847.88   869.14   871.33   872.61   873.21
eigval :      873.74   875.69   876.11   878.48   890.63   891.38
eigval :      892.38   894.92   901.10   907.17   910.24   910.82
eigval :      916.86   918.00   918.59   923.26   925.71   926.96
eigval :      927.06   927.68   928.18   928.47   928.95   929.36
eigval :      930.07   933.79   952.96   972.52   984.09   989.52
eigval :     1004.60  1005.36  1013.73  1030.05  1040.39  1063.32
eigval :     1073.92  1080.88  1083.45  1084.00  1084.34  1085.10
eigval :     1122.63  1123.00  1125.12  1126.36  1136.40  1139.51
eigval :     1143.88  1167.76  1180.25  1180.38  1180.54  1181.32
eigval :     1183.89  1185.17  1187.85  1193.11  1194.22  1195.58
eigval :     1197.17  1207.81  1212.99  1215.05  1227.84  1242.36
eigval :     1247.98  1259.25  1267.29  1269.89  1276.55  1278.52
eigval :     1278.94  1281.69  1283.13  1286.01  1310.02  1312.13
eigval :     1319.05  1320.65  1324.13  1325.35  1326.47  1327.81
eigval :     1328.36  1329.69  1351.99  1403.53  1405.66  1407.15
eigval :     1412.22  1424.53  1435.48  1436.14  1443.22  1443.37
eigval :     1444.04  1469.93  1470.98  1472.11  1474.49  1475.17
eigval :     1486.26  1492.30  1495.81  1534.84  1554.48  1557.55
eigval :     1568.24  1575.58  1575.97  1578.26  1579.72  1580.05
eigval :     1592.15  1592.57  1593.16  1593.24  1600.19  1601.18
eigval :     1612.14  1631.97  3076.20  3077.01  3077.44  3077.54
eigval :     3077.69  3077.98  3078.41  3078.56  3078.69  3079.55
eigval :     3079.97  3080.13  3082.14  3086.18  3086.91  3087.78
eigval :     3088.19  3089.37  3089.46  3089.67  3090.45  3090.55
eigval :     3090.88  3091.27  3091.91  3093.72  3097.06  3097.74
eigval :     3098.80  3099.04  3099.30  3099.64  3103.13  3104.25

   temp. (K)  partition function   enthalpy   heat capacity  entropy
                                   cal/mol     cal/K/mol   cal/K/mol   J/K/mol
 298.15  VIB  0.886E+21            26380.277    165.750    165.312
         ROT  0.150E+09              888.752      2.981     40.392
         INT  0.133E+30            27269.029    168.731    205.704
         TR   0.186E+29             1481.254      4.968     45.577
         TOT                       28750.2834   173.6989   251.2810  1051.3598

       T/K    H(0)-H(T)+PV         H(T)/Eh          T*S/Eh         G(T)/Eh
   ------------------------------------------------------------------------
    298.15    0.458165E-01    0.729713E+00    0.119392E+00    0.610321E+00
   ------------------------------------------------------------------------

         :::::::::::::::::::::::::::::::::::::::::::::::::::::
         ::                  THERMODYNAMIC                  ::
         :::::::::::::::::::::::::::::::::::::::::::::::::::::
         :: total free energy        -141.665053678442 Eh   ::
         ::.................................................::
         :: total energy             -142.275374676752 Eh   ::
         :: zero point energy           0.683896227528 Eh   ::
         :: G(RRHO) w/o ZPVE           -0.073575229219 Eh   ::
         :: G(RRHO) contrib.            0.610320998309 Eh   ::
         :::::::::::::::::::::::::::::::::::::::::::::::::::::

           -------------------------------------------------
          | TOTAL ENERGY             -142.275374676752 Eh   |
          | TOTAL ENTHALPY           -141.545661956326 Eh   |
          | TOTAL FREE ENERGY        -141.665053678442 Eh   |
          | GRADIENT NORM               0.000084452905 Eh/α |
           -------------------------------------------------

 * finished run on 2025/08/24 at 13:53:50.683
