   * xtb version 6.7.1 (edcfbbe) compiled by 'albert@albert-system' on 2024-07-22

   ID    Z sym.   atoms
    1    8 O      1
    2    6 C      2-9, 11-17, 19-37, 39-54, 56
    3    7 N      10, 18, 38, 55
    4    1 H      57-90

          program call               : xtb data2507/gas/IQ-oTPA/IQ-oTPA_gas_S0_finalOpt.xtbopt.xyz --gfn 2 --spinpol --tblite --uhf 2 --ohess vtight --parallel 40 --molden --ceasefiles --namespace data2507/gas/IQ-oTPA/IQ-oTPA_gas_T1_preOpt
 * total energy  :  -142.2697697 Eh     change        0.1930033E-07 Eh
 * total energy  :  -142.2734425 Eh     change       -0.3672754E-02 Eh
 * total energy  :  -142.2750264 Eh     change       -0.1583929E-02 Eh
 * total energy  :  -142.2752165 Eh     change       -0.1901227E-03 Eh
 * total energy  :  -142.2753138 Eh     change       -0.9727431E-04 Eh
 * total energy  :  -142.2753217 Eh     change       -0.7915334E-05 Eh
 * total energy  :  -142.2753261 Eh     change       -0.4400899E-05 Eh
 * total energy  :  -142.2753276 Eh     change       -0.1510815E-05 Eh
 * total energy  :  -142.2753268 Eh     change        0.8454083E-06 Eh
 * total energy  :  -142.2753283 Eh     change       -0.1562482E-05 Eh
 * total energy  :  -142.2753318 Eh     change       -0.1243039E-05 Eh
 * total energy  :  -142.2753332 Eh     change       -0.1412327E-05 Eh
 * total energy  :  -142.2753343 Eh     change       -0.1095496E-05 Eh
 * total energy  :  -142.2753353 Eh     change       -0.9216947E-06 Eh
 * total energy  :  -142.2753360 Eh     change       -0.7204330E-06 Eh
 * total energy  :  -142.2753366 Eh     change       -0.6233988E-06 Eh
 * total energy  :  -142.2753373 Eh     change       -0.6952742E-06 Eh
 * total energy  :  -142.2753378 Eh     change       -0.5174379E-06 Eh
 * total energy  :  -142.2753379 Eh     change       -0.4942922E-07 Eh
   *** GEOMETRY OPTIMIZATION CONVERGED AFTER 22 ITERATIONS ***

 final structure:
================
90
 xtb: 6.7.1 (edcfbbe)
O            8.28084244773540        3.05569862762420       -0.13240052032951
C            7.98615818071666        1.86331065348170       -0.09505591658884
C            8.89955734715688        0.69934636323539       -0.06570355053139
C           10.28153059358532        0.66652397543981       -0.07373134201204
C           10.91001562018392       -0.57276959321361       -0.04151507091099
C           10.17733102386197       -1.74977298255069       -0.00222408818498
C            8.78648482580469       -1.72716261304126        0.00609015150909
C            8.15879685086550       -0.49873012984292       -0.02578721065286
C            6.75154754130262       -0.15371825342456       -0.02801648602309
N            5.69830774811261       -0.88597592491890       -0.00161897509826
C            4.47033506871915       -0.31998449270902       -0.01570648734393
C            3.31504591104970       -1.09089111461223       -0.00739371569884
C            2.05800344527047       -0.50967959076529       -0.03375213793575
C            0.84374093191188       -1.33249170188738       -0.09845329509389
C           -0.13722609255704       -1.04941250250437       -1.04995463970315
C           -1.32815241696165       -1.73675389173705       -1.06095908131285
C           -1.58164847468789       -2.72808581771003       -0.11105812040800
N           -2.83762829904808       -3.33937761579365       -0.07143646302499
C           -2.96540132314377       -4.69931217043987        0.21644746500418
C           -4.06308642582366       -5.17306003060659        0.93572664586440
C           -4.18315745833252       -6.52044667252938        1.21363253444974
C           -3.21348287342929       -7.41478765273575        0.79026915945793
C           -2.11954391933138       -6.94899558169669        0.07915516203007
C           -1.99393552381002       -5.60487325573151       -0.21158843301469
C           -3.96913588426802       -2.54378582374037       -0.29732222792182
C           -5.04918132069271       -3.02951822222686       -1.03257171037273
C           -6.14899738654616       -2.22524445070691       -1.26308578959795
C           -6.19076066541237       -0.93205192211390       -0.76803746593936
C           -5.12278852386404       -0.44803940589813       -0.03035899448427
C           -4.01922489311431       -1.24308842919237        0.20518162826999
C           -0.57786424698660       -3.06300660215275        0.79722001815492
C            0.61986400957853       -2.37693313717552        0.79483452743393
C            1.94478276061288        0.90098236107493       -0.02935482921564
C            0.60836517778720        1.51822925142722        0.04349872555726
C            0.17594799928194        2.41855077794707       -0.92547754938838
C           -1.11091691107498        2.91577891944760       -0.89906297514170
C           -1.98976801224543        2.54549804593721        0.11821778331081
N           -3.30812545503697        3.01891795952465        0.11646640778047
C           -4.02259415175101        3.01267884942645       -1.08747977929207
C           -4.91604943500544        4.03840118190927       -1.39336459928669
C           -5.62601418735536        4.00933083630851       -2.57798092107181
C           -5.45347444230803        2.96749074882935       -3.47477913562158
C           -4.55895152304934        1.95165743984928       -3.17939781355231
C           -3.84685684332165        1.96912188264640       -1.99660303225492
C           -3.90381187614268        3.44025688782152        1.30664048697457
C           -3.13175450798617        4.04119713305924        2.30229623156771
C           -3.71435213087723        4.45070462985175        3.48521781635029
C           -5.07249201145583        4.27759271795991        3.69698202459992
C           -5.84528153840697        3.68724876748987        2.71070207987189
C           -5.27127831255648        3.26822413329711        1.52647872155346
C           -1.54054697074709        1.68903031273058        1.12300516396018
C           -0.26231474860199        1.17653786590576        1.07670619484553
C            3.07560365308849        1.68800520985689       -0.05528729670215
C            4.35870118727424        1.12264697484103       -0.05740294917414
N            5.46316684263000        1.85207098635453       -0.08245843284689
C            6.65501334551482        1.29327703518569       -0.07064248834339
H           10.84837273041812        1.58394536040313       -0.10455286439977
H           11.98911327565056       -0.62026893240562       -0.04736055532708
H           10.69230303153807       -2.69852981915118        0.02210339479625
H            8.20974731011204       -2.63868754204585        0.03629277801052
H            3.41825660275955       -2.16548493372038       -0.00857259233652
H            0.04539475648136       -0.28818820064227       -1.79311987758397
H           -2.08276481606819       -1.50678428514492       -1.79890258929714
H           -4.81426124449230       -4.47684187875111        1.27881562928104
H           -5.03673734559601       -6.87346649777386        1.77339162080367
H           -3.30961206396692       -8.46647346173168        1.01274133247384
H           -1.36131012656541       -7.63937339441988       -0.25996700145029
H           -1.14675116095419       -5.24632860324067       -0.77773443767474
H           -5.01449866773964       -4.03483805320169       -1.42635826928846
H           -6.97631954677149       -2.60976007390769       -1.84117872461550
H           -7.04915716948677       -0.30527274598162       -0.95570600331512
H           -5.15094853209046        0.55228220252559        0.37330747851067
H           -3.18689730703048       -0.86331808137529        0.77988429905972
H           -0.75539782805745       -3.84336610279765        1.52264995934161
H            1.37555362302949       -2.61995736277509        1.52772307755961
H            0.84759679286306        2.70646150201198       -1.72121492116152
H           -1.44967867747131        3.59208714194936       -1.67021782199888
H           -5.04490729246089        4.85600524010089       -0.69926862082455
H           -6.31406133125680        4.81024531818719       -2.80521939183852
H           -6.01146973668757        2.94862397433438       -4.39848863719108
H           -4.42157704771072        1.13323827356378       -3.87052620792906
H           -3.15822557322135        1.17095722938599       -1.76109497361510
H           -2.07471459809451        4.18937655138488        2.13712591205228
H           -3.10367166263428        4.91685537647571        4.24427976043187
H           -5.52496262456603        4.60148571176179        4.62166448056995
H           -6.90446447770335        3.54401886672008        2.86641312511600
H           -5.88237772992156        2.80536149959065        0.76521932909078
H           -2.20838280824720        1.41695088597212        1.92748699885398
H            0.06936283428419        0.49635931103767        1.84726471485753
H            2.99511617722519        2.76411697444329       -0.04828379167996

 projected vibrational frequencies (cm⁻¹)
eigval :       -0.00    -0.00    -0.00     0.00     0.00     0.00
eigval :        8.42    13.72    14.16    21.33    21.60    23.77
eigval :       37.02    41.38    48.34    52.54    56.77    58.82
eigval :       65.79    69.99    78.02    78.17    81.62    95.78
eigval :      108.57   114.54   127.14   129.51   134.59   153.96
eigval :      158.58   174.50   188.16   208.63   214.22   230.28
eigval :      233.34   236.36   257.02   265.60   290.72   303.44
eigval :      305.86   315.19   321.83   332.40   339.63   355.72
eigval :      360.26   361.85   377.72   378.56   379.43   381.90
eigval :      388.40   390.71   396.17   398.77   411.74   427.70
eigval :      439.42   446.22   463.21   478.48   483.83   492.45
eigval :      493.84   503.46   511.42   514.19   537.81   554.17
eigval :      572.29   579.14   580.66   583.82   587.32   588.55
eigval :      590.38   593.52   594.75   603.23   607.10   618.25
eigval :      633.16   638.70   655.91   659.14   659.24   664.00
eigval :      665.75   674.18   686.17   690.03   702.74   705.21
eigval :      706.13   724.44   734.17   741.66   756.23   756.40
eigval :      761.07   761.52   775.63   815.33   816.45   829.90
eigval :      839.78   847.69   869.04   871.85   873.15   873.35
eigval :      873.90   876.02   876.77   878.19   891.53   891.85
eigval :      892.78   894.69   901.18   906.90   910.10   910.69
eigval :      917.24   918.15   918.62   922.99   926.21   927.12
eigval :      927.47   927.82   927.93   928.47   929.31   929.71
eigval :      930.07   932.63   952.29   969.21   983.46   989.30
eigval :     1004.49  1005.10  1013.35  1029.61  1040.06  1063.06
eigval :     1074.79  1080.72  1082.93  1083.49  1083.98  1084.72
eigval :     1122.22  1122.49  1124.52  1125.83  1137.38  1139.99
eigval :     1143.37  1168.46  1180.08  1180.42  1180.46  1180.85
eigval :     1184.82  1186.24  1188.55  1193.29  1194.49  1195.29
eigval :     1196.87  1207.94  1213.38  1214.70  1228.25  1241.77
eigval :     1248.38  1259.77  1267.79  1270.48  1274.06  1278.47
eigval :     1278.65  1281.22  1282.69  1286.04  1310.72  1312.53
eigval :     1319.75  1320.35  1324.27  1324.56  1325.98  1327.44
eigval :     1327.96  1329.38  1352.06  1403.65  1406.27  1407.53
eigval :     1412.93  1424.34  1435.95  1436.32  1443.34  1443.61
eigval :     1444.23  1470.17  1470.67  1472.00  1474.44  1475.16
eigval :     1486.88  1492.57  1496.00  1534.66  1554.40  1557.19
eigval :     1567.95  1575.78  1576.05  1577.89  1579.81  1580.06
eigval :     1592.47  1592.61  1593.26  1593.27  1599.74  1600.54
eigval :     1612.58  1632.21  3075.93  3077.06  3077.47  3077.59
eigval :     3077.80  3078.01  3078.46  3078.51  3078.72  3079.62
eigval :     3080.02  3080.32  3082.51  3085.99  3086.89  3087.66
eigval :     3087.93  3089.23  3089.72  3089.79  3090.60  3090.64
eigval :     3090.92  3091.33  3091.78  3093.93  3096.05  3097.06
eigval :     3098.82  3098.97  3099.29  3099.55  3104.08  3104.23

   temp. (K)  partition function   enthalpy   heat capacity  entropy
                                   cal/mol     cal/K/mol   cal/K/mol   J/K/mol
 298.15  VIB  0.103E+22            26382.959    165.715    165.413
         ROT  0.151E+09              888.752      2.981     40.407
         INT  0.156E+30            27271.711    168.696    205.819
         TR   0.186E+29             1481.254      4.968     45.577
         TOT                       28752.9651   173.6644   251.3961  1051.8411

       T/K    H(0)-H(T)+PV         H(T)/Eh          T*S/Eh         G(T)/Eh
   ------------------------------------------------------------------------
    298.15    0.458208E-01    0.729708E+00    0.119446E+00    0.610262E+00
   ------------------------------------------------------------------------

         :::::::::::::::::::::::::::::::::::::::::::::::::::::
         ::                  THERMODYNAMIC                  ::
         :::::::::::::::::::::::::::::::::::::::::::::::::::::
         :: total free energy        -141.665076031818 Eh   ::
         ::.................................................::
         :: total energy             -142.275337821187 Eh   ::
         :: zero point energy           0.683887401312 Eh   ::
         :: G(RRHO) w/o ZPVE           -0.073625611943 Eh   ::
         :: G(RRHO) contrib.            0.610261789369 Eh   ::
         :::::::::::::::::::::::::::::::::::::::::::::::::::::

           -------------------------------------------------
          | TOTAL ENERGY             -142.275337821187 Eh   |
          | TOTAL ENTHALPY           -141.545629653366 Eh   |
          | TOTAL FREE ENERGY        -141.665076031818 Eh   |
          | GRADIENT NORM               0.000169979218 Eh/α |
           -------------------------------------------------

 * finished run on 2025/08/24 at 13:41:32.391
