   * xtb version 6.7.1 (edcfbbe) compiled by 'albert@albert-system' on 2024-07-22

   ID    Z sym.   atoms
    1    8 O      1, 3
    2   16 S      2
    3    6 C      4-65
    4    1 H      66-103

          program call               : xtb data2507/toluene/SF-DPSO/SF-DPSO_toluene_T1_crest.xyz --gfn 2 --uhf 2 --gbsa toluene --ohess vtight --parallel 40 --molden --ceasefiles --namespace data2507/toluene/SF-DPSO/SF-DPSO_toluene_T1_finalOpt
      * Solvation model:               GBSA
        Solvent                        toluene
        Solvent mass                       9.2140E+01 g/mol
          :  Hamiltonian                  GFN2-xTB          :
 * total energy  :  -163.5225422 Eh     change       -0.2206889E-08 Eh
 * total energy  :  -163.5227473 Eh     change       -0.2050541E-03 Eh
 * total energy  :  -163.5228985 Eh     change       -0.1512130E-03 Eh
 * total energy  :  -163.5229465 Eh     change       -0.4797553E-04 Eh
 * total energy  :  -163.5229905 Eh     change       -0.4400300E-04 Eh
 * total energy  :  -163.5230477 Eh     change       -0.5721899E-04 Eh
 * total energy  :  -163.5230829 Eh     change       -0.3523165E-04 Eh
 * total energy  :  -163.5231170 Eh     change       -0.3404918E-04 Eh
 * total energy  :  -163.5231646 Eh     change       -0.4767750E-04 Eh
 * total energy  :  -163.5231853 Eh     change       -0.2065664E-04 Eh
 * total energy  :  -163.5233236 Eh     change       -0.7787390E-06 Eh
 * total energy  :  -163.5233243 Eh     change       -0.7012880E-06 Eh
 * total energy  :  -163.5233249 Eh     change       -0.6333913E-06 Eh
 * total energy  :  -163.5233255 Eh     change       -0.6112862E-06 Eh
 * total energy  :  -163.5233262 Eh     change       -0.6599638E-06 Eh
 * total energy  :  -163.5233270 Eh     change       -0.8245666E-06 Eh
 * total energy  :  -163.5233278 Eh     change       -0.8228323E-06 Eh
 * total energy  :  -163.5233287 Eh     change       -0.8147934E-06 Eh
 * total energy  :  -163.5233287 Eh     change       -0.7873126E-08 Eh
   *** GEOMETRY OPTIMIZATION CONVERGED AFTER 44 ITERATIONS ***

 final structure:
================
103
 xtb: 6.7.1 (edcfbbe)
O            4.26067219222753       -5.90310282429365       -1.16322294204765
S            3.43518287066017       -5.53262237669660       -0.02942845293484
O            3.21583122146916       -6.54850132201808        0.98222028982266
C            1.86772095574649       -4.88267320219148       -0.59934156137371
C            1.82481057467141       -4.18291868510541       -1.79493634376782
C            0.70245877402918       -3.44694721149698       -2.11671510354184
C           -0.38551137574333       -3.38503577262729       -1.24072777897411
C           -1.55666385530071       -2.55780538607762       -1.55210403844079
C           -2.04258573906103       -2.47270147633103       -2.86052403027762
C           -3.15632808852875       -1.71447989734421       -3.17159741818072
C           -3.79980704471088       -1.01970498808902       -2.15748403153301
C           -3.30815021368529       -1.08826667343446       -0.84326382545521
C           -2.20384528541092       -1.84638697249042       -0.53441389747210
C           -4.17354720464530       -0.27068733884238        0.08902637871594
C           -4.72862920182986       -1.09622036934916        1.22667571548294
C           -5.53154556769635       -2.21410462311077        1.16055231731943
C           -5.91913335145119       -2.82147458121081        2.34808435908802
C           -5.50496877698962       -2.31712304183262        3.57245269288120
C           -4.69481562314655       -1.19480269960071        3.64239846792173
C           -4.30679859043953       -0.58149953406128        2.46183059779872
C           -3.49297034898440        0.59879776824292        2.21613911341862
C           -2.85851240727614        1.46884056689246        3.08842237538268
C           -2.16370658844627        2.54675341449236        2.56272490787809
C           -2.10875984262946        2.75900691504998        1.19341324756159
C           -2.73894614191360        1.88865030887540        0.31270088457621
C           -3.41887341030588        0.80804841473087        0.83052477072683
C           -5.22247473337079        0.26505302942785       -0.85469993764026
C           -6.29675356263964        1.07844628040492       -0.56763730203772
C           -7.14188744692261        1.45023563567611       -1.60551367266001
C           -6.90965179455105        1.01511745200708       -2.90284855335200
C           -5.83017177181382        0.19798969629787       -3.19663544835272
C           -4.98263990215796       -0.17839286348002       -2.16562229431124
C           -0.33113140037828       -4.12002087089737       -0.05186686879687
C            0.78993625754159       -4.85726928454470        0.27119509042306
C            4.00197310379797       -4.02498012930734        0.69850691771524
C            3.57990019807228       -3.68733687143405        1.99029708720487
C            3.57726377985040       -2.38320155221353        2.39553876603959
C            3.92303244002330       -1.33047448115666        1.49173140118494
C            3.57669488412858        0.01361674272227        1.75690920642908
C            3.24710480143522        0.48161717208845        3.07996768618760
C            2.66247941453737        1.68677469483301        3.30453317562585
C            2.34654027933136        2.52367621750211        2.20496529710880
C            2.76754331072441        2.11636681546161        0.89294064382020
C            3.38773843824382        0.93580958415492        0.67216494400346
C            2.31511894828574        3.13150406761238       -0.12872197454911
C            1.49776714457258        2.49717197119128       -1.23008159923956
C            0.39112434234220        1.68515559481967       -1.11091905021181
C           -0.18190061728992        1.17355935454273       -2.26759865011821
C            0.34786161522554        1.47362899517731       -3.51455597549039
C            1.46885604513624        2.27955715757855       -3.63781933975231
C            2.05156967520118        2.78644214862153       -2.48671441270317
C            3.24195784896628        3.59822760644215       -2.28965427729648
C            4.14052086121369        4.13765217839204       -3.19635670144945
C            5.21712489419139        4.86352915297051       -2.71213711789701
C            5.39563778353808        5.05071957906927       -1.34862740675681
C            4.49764272380520        4.51678426441454       -0.43381469890744
C            3.42694463744251        3.79207366382424       -0.91128949355831
C            1.56402813483043        4.11981380901385        0.73046805455344
C            0.89969253532185        5.25600256783799        0.34873513970928
C            0.28700301171410        6.03698099437185        1.33061254943648
C            0.35160683172441        5.67372207137320        2.67833720103383
C            1.01398451356560        4.53678216335898        3.07894194918819
C            1.63339716628949        3.73391856380240        2.10267666058650
C            4.49330252900808       -1.72582136159074        0.23997253128830
C            4.51764545400195       -3.03346452446523       -0.14601713878118
H            2.67894862987705       -4.22695480566165       -2.45263299060115
H            0.68196344314077       -2.88288475969594       -3.03670525773038
H           -1.55336253070771       -3.03872934050914       -3.63908601683479
H           -3.52273470960183       -1.67388129467092       -4.18648940417870
H           -1.82611731921225       -1.87957603111101        0.47673360143532
H           -5.85444646671022       -2.60824960431488        0.20761180260670
H           -6.55098424126763       -3.69725617337959        2.31752239217788
H           -5.81932672782176       -2.80675151993991        4.48301353987029
H           -4.37592119350187       -0.80599027669646        4.59816330036843
H           -2.90772186776662        1.31332979920006        4.15597227865908
H           -1.66030139529214        3.23575138054741        3.22466317808504
H           -1.56521908810438        3.60866408964571        0.80737113844799
H           -2.69529886882584        2.05834702038772       -0.75303420378574
H           -6.47883363584284        1.41808087678277        0.44183512380039
H           -7.99094013452319        2.08568779874868       -1.39971742543085
H           -7.58146540438292        1.31722435668893       -3.69335226190513
H           -5.65481946294447       -0.13912563249816       -4.20745850273469
H           -1.17819154864349       -4.11632910079778        0.61756523989658
H            0.85108923973978       -5.42210909439000        1.18864225671852
H            3.24293442482211       -4.48250387027698        2.63786642249346
H            3.21939132017900       -2.14326118981884        3.38336615378403
H            3.49670318925003       -0.14784834758866        3.91953796659068
H            2.42694758243289        2.00881656448108        4.30785537110729
H            3.64594363341367        0.64421160102708       -0.33273880296047
H           -0.01891079926108        1.44677295856316       -0.14099671041876
H           -1.04467166321601        0.52834103957329       -2.19289746509587
H           -0.11645423759980        1.06533993822494       -4.40066798989223
H            1.88476129320408        2.49844351879082       -4.61013528483737
H            4.00683604847989        3.99498334606519       -4.25840063767923
H            5.92820815267992        5.29027496917920       -3.40473652747966
H            6.24358829069794        5.61871947934957       -0.99479399644725
H            4.63744637638191        4.66498055101051        0.62723189665735
H            0.84784085161642        5.54449275957870       -0.69126684165245
H           -0.24233888204127        6.93361697005978        1.04565780586284
H           -0.13066563724156        6.30174377881905        3.41362672117627
H            1.06479909300641        4.25863531009122        4.12062365281331
H            4.91788636132262       -0.97624079076037       -0.40847993269113
H            4.91712316839769       -3.33682083888137       -1.10176222325718

          :  Hamiltonian                  GFN2-xTB          :
         :: gradient norm              0.000057934783 Eh/a0 ::
         :: HOMO-LUMO gap              0.514872140579 eV    ::
         :: SCC energy              -166.541523611546 Eh    ::
         :: -> dispersion             -0.164742712833 Eh    ::
         :: -> Gsolv                  -0.072100887892 Eh    ::
         :: repulsion energy           3.018194940140 Eh    ::

    * Orbital Energies and Occupations

         #    Occupation            Energy/Eh            Energy/eV
      -------------------------------------------------------------
         1        2.0000           -0.7660965             -20.8465
       ...           ...                  ...                  ...
       141        2.0000           -0.4097865             -11.1509
       142        2.0000           -0.4045829             -11.0093
       143        2.0000           -0.4038944             -10.9905
       144        2.0000           -0.4032799             -10.9738
       145        2.0000           -0.3998057             -10.8793
       146        2.0000           -0.3988670             -10.8537
       147        2.0000           -0.3983171             -10.8388
       148        2.0000           -0.3970202             -10.8035
       149        1.9999           -0.3841825             -10.4541
       150        1.9998           -0.3837971             -10.4436
       151        1.9651           -0.3788569             -10.3092
       152        1.0353           -0.3725595             -10.1379
       153        1.0000           -0.2894595              -7.8766 (HOMO)
       154        0.0000           -0.2705388              -7.3617 (LUMO)
       155                         -0.2558766              -6.9628
       156                         -0.2543087              -6.9201
       157                         -0.2479916              -6.7482
       158                         -0.2386013              -6.4927
       159                         -0.2345938              -6.3836
       160                         -0.2315293              -6.3002
       161                         -0.2302095              -6.2643
       162                         -0.2297458              -6.2517
       163                         -0.2290073              -6.2316
       164                         -0.2276978              -6.1960
       ...                                ...                  ...
       303                          1.1675204              31.7698
      -------------------------------------------------------------
                  HL-Gap            0.0189208 Eh            0.5149 eV

     #   Z          covCN         q      C6AA      α(0)
     1   8 O        0.860    -0.581    25.664     6.792
     2  16 S        3.836     0.917   109.077    17.578
     3   8 O        0.860    -0.581    25.646     6.790
     4   6 C        2.970    -0.080    29.992     8.983
     5   6 C        2.956    -0.030    28.750     8.795
     6   6 C        2.925    -0.030    28.751     8.793
     7   6 C        2.976     0.017    27.629     8.622
     8   6 C        2.977     0.011    27.774     8.645
     9   6 C        2.924    -0.035    28.883     8.813
    10   6 C        2.912    -0.033    28.826     8.804
    11   6 C        3.035     0.002    27.942     8.670
    12   6 C        3.051     0.008    27.781     8.644
    13   6 C        2.918    -0.037    28.914     8.818
    14   6 C        3.977     0.010    20.337     6.407
    15   6 C        3.055     0.006    27.838     8.653
    16   6 C        2.913    -0.034    28.836     8.806
    17   6 C        2.923    -0.032    28.795     8.800
    18   6 C        2.920    -0.033    28.815     8.803
    19   6 C        2.914    -0.034    28.853     8.808
    20   6 C        3.035     0.001    27.966     8.674
    21   6 C        3.035     0.001    27.973     8.675
    22   6 C        2.914    -0.034    28.847     8.807
    23   6 C        2.921    -0.033    28.815     8.803
    24   6 C        2.922    -0.031    28.763     8.795
    25   6 C        2.914    -0.032    28.807     8.801
    26   6 C        3.054     0.006    27.832     8.652
    27   6 C        3.055     0.007    27.804     8.648
    28   6 C        2.913    -0.033    28.812     8.802
    29   6 C        2.922    -0.030    28.760     8.794
    30   6 C        2.920    -0.032    28.798     8.800
    31   6 C        2.914    -0.033    28.833     8.805
    32   6 C        3.035     0.002    27.939     8.670
    33   6 C        2.925    -0.030    28.746     8.792
    34   6 C        2.955    -0.030    28.748     8.794
    35   6 C        2.968    -0.092    30.306     9.030
    36   6 C        2.952    -0.033    28.825     8.806
    37   6 C        2.919    -0.032    28.802     8.801
    38   6 C        2.970     0.008    27.840     8.655
    39   6 C        2.971     0.018    27.612     8.619
    40   6 C        2.915    -0.034    28.854     8.808
    41   6 C        2.903    -0.030    28.739     8.790
    42   6 C        3.031     0.004    27.904     8.665
    43   6 C        3.044     0.013    27.692     8.631
    44   6 C        2.911    -0.041    29.023     8.834
    45   6 C        3.972     0.010    20.344     6.408
    46   6 C        3.055     0.005    27.848     8.654
    47   6 C        2.913    -0.032    28.802     8.800
    48   6 C        2.922    -0.030    28.739     8.791
    49   6 C        2.921    -0.031    28.781     8.798
    50   6 C        2.914    -0.034    28.840     8.806
    51   6 C        3.034     0.002    27.945     8.671
    52   6 C        3.035     0.003    27.930     8.668
    53   6 C        2.914    -0.034    28.835     8.805
    54   6 C        2.921    -0.031    28.781     8.798
    55   6 C        2.922    -0.031    28.771     8.796
    56   6 C        2.913    -0.033    28.822     8.803
    57   6 C        3.054     0.006    27.830     8.652
    58   6 C        3.055     0.014    27.651     8.624
    59   6 C        2.908    -0.031    28.770     8.795
    60   6 C        2.921    -0.026    28.658     8.779
    61   6 C        2.915    -0.027    28.665     8.780
    62   6 C        2.909    -0.032    28.790     8.798
    63   6 C        3.029     0.011    27.743     8.640
    64   6 C        2.919    -0.032    28.801     8.801
    65   6 C        2.957    -0.033    28.825     8.806
    66   1 H        0.926     0.047     2.351     2.398
    67   1 H        0.926     0.058     2.224     2.332
    68   1 H        0.926     0.041     2.441     2.443
    69   1 H        0.926     0.040     2.443     2.444
    70   1 H        0.926     0.034     2.530     2.487
    71   1 H        0.926     0.028     2.611     2.527
    72   1 H        0.926     0.033     2.546     2.495
    73   1 H        0.926     0.033     2.539     2.492
    74   1 H        0.926     0.035     2.513     2.479
    75   1 H        0.926     0.035     2.512     2.479
    76   1 H        0.926     0.034     2.531     2.488
    77   1 H        0.926     0.031     2.568     2.506
    78   1 H        0.926     0.031     2.570     2.507
    79   1 H        0.926     0.030     2.592     2.518
    80   1 H        0.926     0.035     2.521     2.483
    81   1 H        0.926     0.035     2.517     2.481
    82   1 H        0.926     0.037     2.492     2.469
    83   1 H        0.926     0.055     2.254     2.348
    84   1 H        0.926     0.047     2.356     2.400
    85   1 H        0.926     0.043     2.407     2.426
    86   1 H        0.926     0.056     2.242     2.342
    87   1 H        0.926     0.046     2.372     2.408
    88   1 H        0.926     0.045     2.378     2.412
    89   1 H        0.926     0.038     2.472     2.459
    90   1 H        0.926     0.030     2.586     2.515
    91   1 H        0.926     0.033     2.544     2.494
    92   1 H        0.926     0.035     2.512     2.479
    93   1 H        0.926     0.037     2.491     2.468
    94   1 H        0.926     0.037     2.493     2.469
    95   1 H        0.926     0.035     2.511     2.478
    96   1 H        0.926     0.035     2.511     2.478
    97   1 H        0.926     0.031     2.570     2.507
    98   1 H        0.926     0.034     2.534     2.489
    99   1 H        0.926     0.040     2.447     2.446
   100   1 H        0.926     0.040     2.448     2.447
   101   1 H        0.926     0.042     2.428     2.437
   102   1 H        0.926     0.054     2.272     2.357
   103   1 H        0.926     0.042     2.417     2.431

molecular dipole:
                 x           y           z       tot (Debye)
 q only:       -2.509       5.447       0.296
   full:       -2.432       5.156       0.276      14.507

 projected vibrational frequencies (cm⁻¹)
eigval :       -0.00     0.00     0.00     0.00     0.00     0.00
eigval :        4.46    12.77    19.09    20.34    22.56    25.65
eigval :       33.65    35.77    37.90    44.06    48.14    52.41
eigval :       57.29    64.64    70.06    81.61    84.67    92.70
eigval :      100.11   108.84   115.30   124.30   130.21   136.63
eigval :      141.59   145.96   154.49   156.83   167.42   172.27
eigval :      189.79   207.47   221.81   225.34   232.17   233.41
eigval :      235.01   238.33   261.35   268.48   290.33   293.17
eigval :      304.57   314.03   330.47   334.25   346.04   348.30
eigval :      363.70   366.48   368.99   379.30   387.26   390.42
eigval :      392.27   404.45   411.62   413.70   414.25   415.24
eigval :      419.77   430.18   445.39   451.83   456.35   461.41
eigval :      468.03   472.39   474.59   481.47   494.80   501.97
eigval :      505.06   516.55   520.69   525.96   529.63   536.18
eigval :      539.53   544.73   570.47   584.27   587.71   589.67
eigval :      594.92   596.42   599.64   604.57   609.84   617.02
eigval :      625.36   630.86   638.37   654.73   668.17   675.90
eigval :      685.53   688.09   689.21   691.35   696.33   703.64
eigval :      708.52   716.88   727.19   731.45   740.30   749.67
eigval :      750.92   752.49   763.65   769.35   772.94   774.70
eigval :      783.91   788.26   790.84   792.74   799.96   804.78
eigval :      810.85   830.23   835.82   851.22   867.43   873.91
eigval :      878.85   881.42   883.84   885.38   887.16   892.47
eigval :      897.48   898.97   899.96   902.95   904.60   906.68
eigval :      909.44   909.57   911.90   913.56   914.18   914.42
eigval :      916.91   917.33   918.86   920.31   924.06   926.60
eigval :      927.28   930.53   931.77   937.72   939.12   954.04
eigval :      979.23   988.39  1005.78  1007.23  1008.76  1012.40
eigval :     1048.22  1056.64  1064.66  1068.63  1072.49  1073.30
eigval :     1074.08  1076.48  1078.73  1079.65  1084.28  1101.38
eigval :     1116.09  1122.21  1126.82  1132.63  1138.33  1142.06
eigval :     1142.77  1152.10  1157.63  1162.36  1168.16  1174.36
eigval :     1175.73  1176.14  1178.81  1179.96  1180.25  1181.67
eigval :     1184.37  1194.12  1194.83  1206.34  1207.28  1215.57
eigval :     1223.28  1224.32  1226.66  1240.33  1244.09  1248.08
eigval :     1252.64  1254.13  1259.82  1260.02  1260.29  1275.87
eigval :     1275.92  1282.87  1283.71  1291.50  1304.90  1322.32
eigval :     1324.37  1325.12  1325.38  1327.09  1331.95  1343.75
eigval :     1356.27  1361.80  1363.32  1363.56  1381.91  1389.12
eigval :     1407.30  1414.51  1415.94  1420.55  1424.33  1425.22
eigval :     1426.12  1426.26  1434.38  1441.07  1451.26  1451.97
eigval :     1458.17  1459.21  1460.38  1466.36  1467.61  1476.05
eigval :     1498.65  1509.64  1538.22  1552.32  1559.95  1563.99
eigval :     1573.72  1579.12  1581.71  1583.75  1587.19  1589.60
eigval :     1591.69  1595.35  1597.41  1599.05  1599.25  1601.19
eigval :     1612.98  3069.60  3070.74  3071.49  3072.95  3073.52
eigval :     3074.19  3074.46  3075.53  3075.72  3076.52  3079.59
eigval :     3079.75  3080.48  3081.12  3082.19  3082.49  3083.35
eigval :     3083.92  3085.41  3085.91  3086.72  3086.84  3087.42
eigval :     3088.45  3088.87  3088.96  3089.72  3090.52  3092.04
eigval :     3094.40  3095.20  3095.91  3097.71  3098.03  3098.64
eigval :     3101.19  3108.31  3109.05

   temp. (K)  partition function   enthalpy   heat capacity  entropy
                                   cal/mol     cal/K/mol   cal/K/mol   J/K/mol
 298.15  VIB  0.428E+24            30302.253    192.438    188.247
         ROT  0.145E+09              888.752      2.981     40.333
         INT  0.623E+32            31191.005    195.418    228.580
         TR   0.239E+29             1481.254      4.968     46.066
         TOT                       32672.2592   200.3866   274.6453  1149.1159

       T/K    H(0)-H(T)+PV         H(T)/Eh          T*S/Eh         G(T)/Eh
   ------------------------------------------------------------------------
    298.15    0.520666E-01    0.828606E+00    0.130493E+00    0.698113E+00
   ------------------------------------------------------------------------

         :::::::::::::::::::::::::::::::::::::::::::::::::::::
         ::                  THERMODYNAMIC                  ::
         :::::::::::::::::::::::::::::::::::::::::::::::::::::
         :: total free energy        -162.825215699775 Eh   ::
         ::.................................................::
         :: total energy             -163.523328667429 Eh   ::
         :: zero point energy           0.776539252987 Eh   ::
         :: G(RRHO) w/o ZPVE           -0.078426285332 Eh   ::
         :: G(RRHO) contrib.            0.698112967654 Eh   ::
         :::::::::::::::::::::::::::::::::::::::::::::::::::::

           -------------------------------------------------
          | TOTAL ENERGY             -163.523328667429 Eh   |
          | TOTAL ENTHALPY           -162.694722855278 Eh   |
          | TOTAL FREE ENERGY        -162.825215699775 Eh   |
          | GRADIENT NORM               0.000057979310 Eh/α |
          | HOMO-LUMO GAP               0.514860101145 eV   |
           -------------------------------------------------

 * finished run on 2025/07/21 at 03:03:05.045
