   * xtb version 6.7.1 (edcfbbe) compiled by 'albert@albert-system' on 2024-07-22

   ID    Z sym.   atoms
    1    8 O      1, 3
    2   16 S      2
    3    6 C      4-65
    4    1 H      66-103

          program call               : xtb data2507/toluene/SF-DPSO/SF-DPSO_toluene_S0_crest.xyz --gfn 2 --gbsa toluene --ohess vtight --parallel 40 --molden --ceasefiles --namespace data2507/toluene/SF-DPSO/SF-DPSO_toluene_S0_finalOpt
      * Solvation model:               GBSA
        Solvent                        toluene
        Solvent mass                       9.2140E+01 g/mol
          :  Hamiltonian                  GFN2-xTB          :
 * total energy  :  -163.6229559 Eh     change       -0.4743583E-09 Eh
 * total energy  :  -163.6230813 Eh     change       -0.1254209E-03 Eh
 * total energy  :  -163.6231442 Eh     change       -0.6295022E-04 Eh
 * total energy  :  -163.6231539 Eh     change       -0.9609570E-05 Eh
 * total energy  :  -163.6231631 Eh     change       -0.9211342E-05 Eh
 * total energy  :  -163.6231660 Eh     change       -0.2965880E-05 Eh
 * total energy  :  -163.6231718 Eh     change       -0.5802944E-05 Eh
 * total energy  :  -163.6231749 Eh     change       -0.3092246E-05 Eh
 * total energy  :  -163.6231841 Eh     change       -0.9127752E-05 Eh
 * total energy  :  -163.6231890 Eh     change       -0.4962398E-05 Eh
 * total energy  :  -163.6232681 Eh     change       -0.7333679E-06 Eh
 * total energy  :  -163.6232691 Eh     change       -0.9257559E-06 Eh
 * total energy  :  -163.6232699 Eh     change       -0.8431676E-06 Eh
 * total energy  :  -163.6232706 Eh     change       -0.6577570E-06 Eh
 * total energy  :  -163.6232711 Eh     change       -0.5028972E-06 Eh
 * total energy  :  -163.6232716 Eh     change       -0.5390638E-06 Eh
 * total energy  :  -163.6232724 Eh     change       -0.7655014E-06 Eh
 * total energy  :  -163.6232735 Eh     change       -0.1159298E-05 Eh
 * total energy  :  -163.6232736 Eh     change       -0.1348090E-07 Eh
   *** GEOMETRY OPTIMIZATION CONVERGED AFTER 68 ITERATIONS ***

 final structure:
================
103
 xtb: 6.7.1 (edcfbbe)
O            0.15232426350601        4.02111621643725        1.34687840287898
S            0.00648745653661        3.25867820041044        0.12280153517879
O           -0.12015259437470        4.02078798373827       -1.10390450170861
C           -1.41503682838246        2.17679027557420        0.27558326262545
C           -1.53466657827795        1.39742430331394        1.41146435078043
C           -2.61295002835855        0.54170354143602        1.53454487202444
C           -3.57504319423106        0.46091388438252        0.52548601017890
C           -4.72461070533439       -0.44586610512406        0.65708057802759
C           -4.55706110264529       -1.72770032304089        1.18442535919196
C           -5.62173303616803       -2.60253131474716        1.30847765355677
C           -6.88048740058797       -2.18511893907287        0.90564777615650
C           -7.05514534869907       -0.89591214251205        0.37934647346560
C           -5.99523228060185       -0.02959237591147        0.24919174041831
C           -8.49993711611246       -0.66551684645380        0.00646980110786
C           -9.12739887790126        0.52224715104675        0.69742263139605
C           -9.25006399824826        0.75934914257694        2.04921903964335
C           -9.88006307846292        1.92635351705925        2.46194292121364
C          -10.37436606254523        2.83257376565189        1.53550403370280
C          -10.25190719410697        2.59770217024980        0.17489853817105
C           -9.62437529445253        1.43568255381191       -0.24404668929513
C           -9.35210668804080        0.91903757881809       -1.57680627631343
C           -9.63379600082639        1.43371661564609       -2.83206317522861
C           -9.24923356681468        0.70813428190073       -3.94878829727722
C           -8.59552443997668       -0.50820360815266       -3.81736053397575
C           -8.30993454106807       -1.03038197026961       -2.56233945457604
C           -8.69182046449734       -0.31196013751032       -1.45019189352403
C           -9.13116233916785       -1.98353208861760        0.38991736288041
C          -10.45072496154928       -2.36487465670792        0.28023330511842
C          -10.80798470555450       -3.64034395707562        0.69822407542559
C           -9.85945340777652       -4.51116560749116        1.21460931947785
C           -8.53142958736992       -4.13119965907531        1.32696431127478
C           -8.16784041127616       -2.85960981489331        0.91274742495364
C           -3.43097207913855        1.25757744983527       -0.61140342311966
C           -2.35112898315127        2.11199689826876       -0.73833721739385
C            1.40496184269413        2.14653167194474       -0.03189661193074
C            1.44723631636395        1.28585905248305       -1.11332623719568
C            2.51449641340678        0.41774379411093       -1.24608507943637
C            3.54384951138986        0.40823492716352       -0.30255458132232
C            4.68420964209598       -0.50837658293553       -0.44654878163616
C            4.48328260103799       -1.82952824295337       -0.85030312569927
C            5.53990882851104       -2.71336359267141       -0.98027502664780
C            6.82338771049458       -2.26540636922136       -0.71003129711484
C            7.03127031151045       -0.93592896180982       -0.31148076001637
C            5.97979549975209       -0.06065195497631       -0.17321342471230
C            8.49985627799011       -0.67386910857048       -0.07971863451837
C            8.81092602831572       -0.17707077928645        1.31271220822126
C            8.52327693373089       -0.77693571573028        2.51945755989043
C            8.90774148780143       -0.13137090547427        3.68771772340511
C            9.56636296756566        1.08850947269025        3.64143538261124
C            9.85690403970000        1.69488434721274        2.42926568055958
C            9.47535035138745        1.05716716324549        1.25988144367279
C            9.63247409919478        1.43727140235528       -0.13584970587588
C           10.21762707492927        2.54918696749685       -0.71969646017175
C           10.22139406615897        2.64848606386669       -2.10221073656205
C            9.65202905069308        1.65798160194583       -2.88876673596997
C            9.06455510936930        0.54015690208559       -2.31046531393409
C            9.06040299718972        0.43761382891199       -0.93634583364686
C            9.10603310272986       -2.02299550126657       -0.38834262109656
C           10.43208316092775       -2.39509881710031       -0.34688645859062
C           10.76332090084134       -3.70221434944858       -0.67984120990626
C            9.78274517769347       -4.61292341048818       -1.04555741227898
C            8.44802337835709       -4.24250029467948       -1.08846321117790
C            8.11005619483706       -2.93975243615683       -0.75772448566642
C            3.47658563343406        1.28502075622466        0.78108420141915
C            2.40690727010967        2.15068874677941        0.91891453647525
H           -0.79161566661376        1.48291039539012        2.18907804065382
H           -2.72440402726042       -0.05384825220170        2.42763603422658
H           -3.56888636915681       -2.04987669288307        1.47716352594543
H           -5.47087852399887       -3.59301571696442        1.71095179290149
H           -6.14459985325686        0.96656316715407       -0.14037069362750
H           -8.86689727070758        0.05354508099371        2.77210712903572
H           -9.98682763397023        2.13014169710472        3.51752043379678
H          -10.86152178691700        3.73352273508446        1.88000807053922
H          -10.63887491434660        3.30661620708295       -0.54217800269033
H          -10.14218509725732        2.38046053393033       -2.93991793624480
H           -9.46141857174056        1.09455114912747       -4.93539866745024
H           -8.30532269829604       -1.05668538842742       -4.70174831873141
H           -7.80138982859555       -1.97840676962848       -2.46076257360746
H          -11.19050765460295       -1.68763900113474       -0.12186658626800
H          -11.83772435521233       -3.95748617069404        0.62009992654663
H          -10.16145885690371       -5.49883985826735        1.53223231055506
H           -7.79678222484911       -4.81237018613082        1.73002889981349
H           -4.15897421724835        1.19302943821722       -1.40590647630682
H           -2.21869291771241        2.73775462272048       -1.60769439084721
H            0.65268591497942        1.31554182566045       -1.84266630557275
H            2.56479392394818       -0.24321291526036       -2.09779001801090
H            3.47723033671272       -2.17276188275676       -1.04038193188056
H            5.36390569114584       -3.73409354360473       -1.28512554532135
H            6.15253494803402        0.96478387916286        0.11858783421938
H            8.01086716656577       -1.72752871621189        2.55667747358449
H            8.69123583900986       -0.58521180778415        4.64393134749398
H            9.85644770697171        1.57218391002284        4.56321552965098
H           10.36957251712185        2.64499411549999        2.39874365393098
H           10.66227521907097        3.32333701797088       -0.11185456521813
H           10.67405146480099        3.50868794268172       -2.57439726055726
H            9.66580761937736        1.75664261359569       -3.96451883688884
H            8.62286949158087       -0.23149785171095       -2.92451607708366
H           11.19676007735231       -1.68636770982919       -0.06301778518044
H           11.79773606365007       -4.01268677159789       -0.65409001743866
H           10.06497280076100       -5.62433912711642       -1.30052679528094
H            7.68850228684753       -4.95502168749549       -1.37416885608756
H            4.25777894252181        1.27572028994831        1.52611723179759
H            2.33200048577097        2.83657436782977        1.74883324187978

          :  Hamiltonian                  GFN2-xTB          :
         :: gradient norm              0.000069979597 Eh/a0 ::
         :: HOMO-LUMO gap              2.818374790135 eV    ::
         :: SCC energy              -166.661657282544 Eh    ::
         :: -> dispersion             -0.153298822026 Eh    ::
         :: -> Gsolv                  -0.076054412292 Eh    ::
         :: repulsion energy           3.038383726732 Eh    ::

    * Orbital Energies and Occupations

         #    Occupation            Energy/Eh            Energy/eV
      -------------------------------------------------------------
         1        2.0000           -0.7725287             -21.0216
       ...           ...                  ...                  ...
       140        2.0000           -0.4133649             -11.2482
       141        2.0000           -0.4130961             -11.2409
       142        2.0000           -0.4058744             -11.0444
       143        2.0000           -0.4026189             -10.9558
       144        2.0000           -0.4023493             -10.9485
       145        2.0000           -0.3975907             -10.8190
       146        2.0000           -0.3975334             -10.8174
       147        2.0000           -0.3962215             -10.7817
       148        2.0000           -0.3961078             -10.7786
       149        2.0000           -0.3837673             -10.4428
       150        2.0000           -0.3834139             -10.4332
       151        2.0000           -0.3786281             -10.3030
       152        2.0000           -0.3782881             -10.2937 (HOMO)
       153                         -0.2747148              -7.4754 (LUMO)
       154                         -0.2686489              -7.3103
       155                         -0.2531674              -6.8890
       156                         -0.2531242              -6.8879
       157                         -0.2443755              -6.6498
       158                         -0.2433762              -6.6226
       159                         -0.2430800              -6.6145
       160                         -0.2380434              -6.4775
       161                         -0.2290289              -6.2322
       162                         -0.2289653              -6.2305
       163                         -0.2267960              -6.1714
       ...                                ...                  ...
       303                          1.1651192              31.7045
      -------------------------------------------------------------
                  HL-Gap            0.1035734 Eh            2.8184 eV

     #   Z          covCN         q      C6AA      α(0)
     1   8 O        0.860    -0.582    25.670     6.793
     2  16 S        3.819     0.930   108.674    17.545
     3   8 O        0.860    -0.583    25.693     6.796
     4   6 C        2.972    -0.074    29.844     8.961
     5   6 C        2.959    -0.028    28.687     8.785
     6   6 C        2.926    -0.028    28.705     8.786
     7   6 C        2.976     0.023    27.484     8.599
     8   6 C        2.979     0.008    27.824     8.653
     9   6 C        2.925    -0.036    28.905     8.817
    10   6 C        2.913    -0.034    28.837     8.806
    11   6 C        3.036     0.002    27.939     8.670
    12   6 C        3.052     0.008    27.802     8.647
    13   6 C        2.918    -0.037    28.912     8.817
    14   6 C        3.977     0.009    20.348     6.409
    15   6 C        3.055     0.006    27.845     8.654
    16   6 C        2.913    -0.034    28.841     8.806
    17   6 C        2.923    -0.032    28.808     8.802
    18   6 C        2.921    -0.033    28.826     8.804
    19   6 C        2.914    -0.035    28.861     8.809
    20   6 C        3.035     0.000    27.987     8.677
    21   6 C        3.035     0.000    27.984     8.677
    22   6 C        2.914    -0.035    28.859     8.809
    23   6 C        2.921    -0.033    28.826     8.804
    24   6 C        2.923    -0.032    28.810     8.802
    25   6 C        2.913    -0.034    28.844     8.807
    26   6 C        3.055     0.006    27.843     8.654
    27   6 C        3.056     0.007    27.815     8.649
    28   6 C        2.913    -0.033    28.822     8.803
    29   6 C        2.923    -0.031    28.785     8.798
    30   6 C        2.921    -0.033    28.816     8.803
    31   6 C        2.914    -0.034    28.845     8.807
    32   6 C        3.035     0.001    27.967     8.674
    33   6 C        2.926    -0.028    28.703     8.786
    34   6 C        2.951    -0.025    28.616     8.774
    35   6 C        2.972    -0.074    29.843     8.961
    36   6 C        2.959    -0.028    28.697     8.787
    37   6 C        2.926    -0.028    28.705     8.786
    38   6 C        2.977     0.023    27.486     8.600
    39   6 C        2.979     0.008    27.824     8.652
    40   6 C        2.925    -0.036    28.905     8.817
    41   6 C        2.913    -0.034    28.836     8.806
    42   6 C        3.036     0.002    27.941     8.670
    43   6 C        3.053     0.008    27.802     8.647
    44   6 C        2.918    -0.037    28.911     8.817
    45   6 C        3.977     0.009    20.348     6.409
    46   6 C        3.055     0.006    27.845     8.654
    47   6 C        2.913    -0.034    28.844     8.807
    48   6 C        2.923    -0.033    28.810     8.802
    49   6 C        2.921    -0.033    28.826     8.804
    50   6 C        2.914    -0.035    28.860     8.809
    51   6 C        3.035     0.000    27.984     8.677
    52   6 C        3.035     0.000    27.987     8.677
    53   6 C        2.914    -0.035    28.861     8.809
    54   6 C        2.921    -0.033    28.826     8.804
    55   6 C        2.923    -0.032    28.807     8.802
    56   6 C        2.913    -0.034    28.842     8.806
    57   6 C        3.055     0.006    27.843     8.654
    58   6 C        3.056     0.007    27.815     8.649
    59   6 C        2.913    -0.033    28.823     8.804
    60   6 C        2.923    -0.031    28.785     8.798
    61   6 C        2.921    -0.033    28.817     8.803
    62   6 C        2.914    -0.034    28.845     8.807
    63   6 C        3.035     0.001    27.967     8.674
    64   6 C        2.926    -0.028    28.701     8.786
    65   6 C        2.950    -0.024    28.606     8.772
    66   1 H        0.926     0.050     2.316     2.380
    67   1 H        0.926     0.063     2.169     2.303
    68   1 H        0.926     0.043     2.412     2.429
    69   1 H        0.926     0.041     2.433     2.439
    70   1 H        0.926     0.034     2.528     2.486
    71   1 H        0.926     0.029     2.606     2.524
    72   1 H        0.926     0.033     2.548     2.496
    73   1 H        0.926     0.033     2.550     2.497
    74   1 H        0.926     0.034     2.534     2.489
    75   1 H        0.926     0.034     2.536     2.490
    76   1 H        0.926     0.033     2.545     2.495
    77   1 H        0.926     0.033     2.540     2.492
    78   1 H        0.926     0.029     2.599     2.521
    79   1 H        0.926     0.028     2.613     2.528
    80   1 H        0.926     0.034     2.537     2.491
    81   1 H        0.926     0.034     2.525     2.485
    82   1 H        0.926     0.037     2.495     2.470
    83   1 H        0.926     0.060     2.201     2.320
    84   1 H        0.926     0.055     2.254     2.348
    85   1 H        0.926     0.050     2.324     2.384
    86   1 H        0.926     0.063     2.168     2.303
    87   1 H        0.926     0.043     2.413     2.429
    88   1 H        0.926     0.041     2.432     2.439
    89   1 H        0.926     0.034     2.531     2.488
    90   1 H        0.926     0.029     2.599     2.521
    91   1 H        0.926     0.033     2.541     2.493
    92   1 H        0.926     0.033     2.546     2.495
    93   1 H        0.926     0.034     2.536     2.491
    94   1 H        0.926     0.034     2.534     2.489
    95   1 H        0.926     0.033     2.549     2.497
    96   1 H        0.926     0.033     2.548     2.496
    97   1 H        0.926     0.029     2.606     2.524
    98   1 H        0.926     0.028     2.613     2.528
    99   1 H        0.926     0.034     2.537     2.491
   100   1 H        0.926     0.034     2.525     2.485
   101   1 H        0.926     0.037     2.495     2.470
   102   1 H        0.926     0.060     2.203     2.321
   103   1 H        0.926     0.055     2.257     2.349

molecular dipole:
                 x           y           z       tot (Debye)
 q only:       -0.043      -3.569      -0.005
   full:       -0.042      -3.273      -0.008       8.320

 projected vibrational frequencies (cm⁻¹)
eigval :       -0.00    -0.00    -0.00     0.00     0.00     0.00
eigval :       -2.04     3.01     4.58    15.83    16.85    20.10
eigval :       24.91    34.24    35.34    39.50    44.35    47.61
eigval :       49.68    59.03    61.17    72.58    78.60    80.00
eigval :       83.81   115.75   119.91   122.28   125.62   130.49
eigval :      133.88   146.08   153.22   156.11   167.66   172.20
eigval :      187.75   213.08   226.23   232.22   232.68   233.22
eigval :      234.40   243.04   260.04   282.33   284.88   305.96
eigval :      313.06   332.33   336.75   340.03   349.93   361.84
eigval :      368.29   370.48   371.75   386.43   387.29   393.77
eigval :      400.90   412.08   413.51   413.77   413.97   418.32
eigval :      419.83   449.93   453.19   465.38   468.73   473.34
eigval :      474.16   483.68   483.89   497.81   498.69   505.89
eigval :      506.18   523.81   525.64   532.54   537.83   537.97
eigval :      547.29   572.18   572.88   589.82   590.09   596.85
eigval :      597.78   604.15   604.47   615.19   621.87   627.57
eigval :      628.78   638.77   643.48   683.20   683.88   687.06
eigval :      687.92   690.81   691.23   701.57   704.72   708.19
eigval :      708.65   725.92   734.13   740.55   740.68   753.45
eigval :      753.62   765.33   766.59   775.02   778.77   784.23
eigval :      785.43   800.12   806.16   806.25   809.40   838.97
eigval :      841.50   870.55   873.36   875.36   877.50   879.23
eigval :      879.64   880.77   882.14   887.87   889.74   900.86
eigval :      901.31   906.35   907.39   908.70   910.15   910.46
eigval :      912.68   913.02   916.30   918.19   919.04   920.30
eigval :      921.79   925.46   926.47   926.67   926.94   927.21
eigval :      928.51   929.64   931.66   941.04   942.40   989.83
eigval :      995.77  1007.52  1007.60  1009.77  1010.03  1064.70
eigval :     1070.10  1070.95  1072.35  1072.82  1075.07  1075.75
eigval :     1076.45  1076.93  1078.67  1079.04  1114.93  1118.33
eigval :     1119.71  1122.56  1132.61  1133.25  1141.86  1141.88
eigval :     1152.66  1153.30  1169.38  1170.09  1175.38  1176.15
eigval :     1176.18  1177.32  1179.22  1179.94  1182.55  1183.23
eigval :     1184.38  1196.97  1197.14  1207.12  1207.57  1222.68
eigval :     1223.05  1225.14  1225.70  1244.62  1244.84  1251.07
eigval :     1253.53  1257.84  1258.26  1259.51  1259.62  1274.80
eigval :     1275.34  1283.51  1283.68  1301.61  1301.63  1321.41
eigval :     1321.77  1324.48  1324.57  1324.76  1324.77  1360.03
eigval :     1360.09  1364.48  1364.49  1388.45  1388.83  1420.16
eigval :     1420.46  1427.32  1427.38  1429.54  1429.70  1429.89
eigval :     1429.99  1445.72  1446.08  1460.15  1460.21  1461.15
eigval :     1461.52  1470.14  1470.15  1481.14  1481.74  1569.50
eigval :     1569.68  1571.93  1572.27  1578.80  1579.00  1583.72
eigval :     1583.77  1591.50  1591.50  1594.10  1594.16  1595.98
eigval :     1596.06  1601.79  1601.84  1602.42  1602.43  1602.67
eigval :     1602.83  3068.63  3069.03  3069.58  3070.06  3070.11
eigval :     3070.49  3072.77  3073.21  3073.43  3073.96  3073.97
eigval :     3074.50  3079.79  3080.01  3080.19  3080.48  3080.91
eigval :     3081.21  3081.84  3082.24  3082.82  3083.39  3087.65
eigval :     3088.27  3088.39  3089.14  3089.48  3089.59  3089.76
eigval :     3090.27  3090.36  3090.92  3092.12  3092.71  3098.87
eigval :     3099.09  3100.41  3101.07

   temp. (K)  partition function   enthalpy   heat capacity  entropy
                                   cal/mol     cal/K/mol   cal/K/mol   J/K/mol
 298.15  VIB  0.943E+26            30156.429    189.315    191.963
         ROT  0.313E+09              888.752      2.981     41.853
         INT  0.295E+35            31045.182    192.296    233.816
         TR   0.239E+29             1481.254      4.968     46.066
         TOT                       32526.4358   197.2637   279.8820  1171.0262

       T/K    H(0)-H(T)+PV         H(T)/Eh          T*S/Eh         G(T)/Eh
   ------------------------------------------------------------------------
    298.15    0.518342E-01    0.832059E+00    0.132981E+00    0.699078E+00
   ------------------------------------------------------------------------

         :::::::::::::::::::::::::::::::::::::::::::::::::::::
         ::                  THERMODYNAMIC                  ::
         :::::::::::::::::::::::::::::::::::::::::::::::::::::
         :: total free energy        -162.924195370826 Eh   ::
         ::.................................................::
         :: total energy             -163.623273554752 Eh   ::
         :: zero point energy           0.780224964826 Eh   ::
         :: G(RRHO) w/o ZPVE           -0.081146780900 Eh   ::
         :: G(RRHO) contrib.            0.699078183926 Eh   ::
         :::::::::::::::::::::::::::::::::::::::::::::::::::::

           -------------------------------------------------
          | TOTAL ENERGY             -163.623273554752 Eh   |
          | TOTAL ENTHALPY           -162.791214415159 Eh   |
          | TOTAL FREE ENERGY        -162.924195370826 Eh   |
          | GRADIENT NORM               0.000069958049 Eh/α |
          | HOMO-LUMO GAP               2.818374680872 eV   |
           -------------------------------------------------

 * finished run on 2025/07/21 at 02:49:15.903
