   * xtb version 6.7.1 (edcfbbe) compiled by 'albert@albert-system' on 2024-07-22

   ID    Z sym.   atoms
    1    8 O      1, 3
    2   16 S      2
    3    6 C      4-65
    4    1 H      66-103

          program call               : xtb data2507/toluene/SF-DPSO/SF-DPSO_toluene_S0_finalOpt.xtbopt.xyz --gfn 2 --uhf 2 --gbsa toluene --ohess vtight --parallel 40 --molden --ceasefiles --namespace data2507/toluene/SF-DPSO/SF-DPSO_toluene_T1_preOpt
      * Solvation model:               GBSA
        Solvent                        toluene
        Solvent mass                       9.2140E+01 g/mol
          :  Hamiltonian                  GFN2-xTB          :
 * total energy  :  -163.5165191 Eh     change       -0.1507399E-07 Eh
 * total energy  :  -163.5208971 Eh     change       -0.4377974E-02 Eh
 * total energy  :  -163.5222292 Eh     change       -0.1332041E-02 Eh
 * total energy  :  -163.5225431 Eh     change       -0.3139433E-03 Eh
 * total energy  :  -163.5233034 Eh     change       -0.7603294E-03 Eh
 * total energy  :  -163.5240167 Eh     change       -0.7132266E-03 Eh
 * total energy  :  -163.5247001 Eh     change       -0.6834365E-03 Eh
 * total energy  :  -163.5255451 Eh     change       -0.8450186E-03 Eh
 * total energy  :  -163.5256647 Eh     change       -0.1195609E-03 Eh
 * total energy  :  -163.5258467 Eh     change       -0.1820680E-03 Eh
 * total energy  :  -163.5268128 Eh     change       -0.1262172E-05 Eh
 * total energy  :  -163.5268138 Eh     change       -0.1050870E-05 Eh
 * total energy  :  -163.5268144 Eh     change       -0.6079808E-06 Eh
 * total energy  :  -163.5268149 Eh     change       -0.4268121E-06 Eh
 * total energy  :  -163.5268152 Eh     change       -0.3457357E-06 Eh
 * total energy  :  -163.5268156 Eh     change       -0.3347713E-06 Eh
 * total energy  :  -163.5268159 Eh     change       -0.3111537E-06 Eh
 * total energy  :  -163.5268162 Eh     change       -0.3052349E-06 Eh
 * total energy  :  -163.5268162 Eh     change       -0.3218759E-08 Eh
   *** GEOMETRY OPTIMIZATION CONVERGED AFTER 152 ITERATIONS ***

 final structure:
================
103
 xtb: 6.7.1 (edcfbbe)
O            0.27862424874951        4.35152269563997        1.34787101338636
S            0.01114232969019        3.58187000653784        0.14550786484163
O           -0.19893235438102        4.33944921419940       -1.07497598039151
C           -1.38516517957000        2.52419475447253        0.41677511716758
C           -1.42111120540721        1.72985706123828        1.56497598792583
C           -2.45969573078697        0.86390218566537        1.76756793510366
C           -3.53546001852621        0.75479260057821        0.83378792664677
C           -4.62489470724676       -0.12524586178601        1.04543162649192
C           -4.52918510886919       -1.24037812885759        1.95608010414311
C           -5.55254955463380       -2.10467238088962        2.17000686919543
C           -6.78808133509561       -1.90887851341750        1.49746894537216
C           -6.90527337906134       -0.79258331509918        0.59427395190158
C           -5.87746815070449        0.05361310478721        0.36282270601510
C           -8.30022961965577       -0.75655099299612        0.01313500846723
C           -9.03543023802002        0.52987308029630        0.31231457536990
C           -9.32002964394463        1.08819624781938        1.53983473276800
C          -10.00983541358182        2.29282877044508        1.57431137022043
C          -10.40422274444044        2.92033832020602        0.40081180988800
C          -10.12028841819991        2.36201572187756       -0.83525072673506
C           -9.43219088373844        1.15959676226453       -0.87781262930320
C           -8.99485029062488        0.34422858003683       -1.99930826105419
C           -9.13659134976444        0.51989865781856       -3.36683144201947
C           -8.60806919533680       -0.43850954468813       -4.21679173909221
C           -7.94921638178016       -1.55205532903513       -3.71442295096782
C           -7.80342931605297       -1.73515617725707       -2.34569395810202
C           -8.32826895665148       -0.78456216424939       -1.49665855035226
C           -8.93565595778550       -1.96739806632859        0.65165791933706
C          -10.20442459364910       -2.45481507251449        0.48913424022315
C          -10.57903886834860       -3.60150436273632        1.19414865282626
C           -9.67817396481058       -4.24185937269368        2.05191851490094
C           -8.40121286821352       -3.76739958687869        2.22882178014580
C           -8.00278298814217       -2.61123062799639        1.52449050056854
C           -3.45942746914032        1.58572215409190       -0.32556321646064
C           -2.40488095728029        2.43235671363319       -0.53090064888604
C            1.37988751176666        2.45082517364183       -0.10492139992855
C            1.41170082689198        1.67820778806092       -1.25221095610993
C            2.43894968318307        0.77193086004310       -1.43165567877821
C            3.43995896062456        0.63098288106329       -0.46720608725693
C            4.53366958872716       -0.33261973169739       -0.65048712319634
C            4.27843089433098       -1.60413618056116       -1.16994156602016
C            5.28749767291651       -2.53738885433907       -1.32450716412814
C            6.58040844869758       -2.19152748627251       -0.96156051889514
C            6.84438696008757       -0.91005680317622       -0.45220996831714
C            5.83977795788598        0.01415793313202       -0.29101987719584
C            8.31254266374712       -0.75782570826338       -0.13194928657590
C            8.57037608937597       -0.35921881162942        1.30184867415345
C            8.19484506292175       -1.01597630042897        2.45360435053162
C            8.53769637943212       -0.45469635795562        3.67702205005865
C            9.23944297843954        0.74054539809313        3.73909816599530
C            9.61764591182558        1.40455187211825        2.58281030406680
C            9.27995150072379        0.85001798207441        1.35849776836667
C            9.53241200811720        1.30108306993647       -0.00116521818661
C           10.19076943177138        2.42000354233062       -0.48585780069157
C           10.28475817816744        2.59235027025288       -1.85783516015895
C            9.73361680278278        1.66632110834744       -2.73161657137941
C            9.07088637154183        0.54341436845573       -2.25320571465054
C            8.97450368769145        0.36972024815494       -0.88975130974534
C            8.85103565182115       -2.11984209733982       -0.49995405517094
C           10.14574949005019       -2.58227045245285       -0.40887856738811
C           10.41415633980193       -3.88306629965039       -0.81559362145540
C            9.40324822911414       -4.69873404157466       -1.30407485725345
C            8.09978544329591       -4.23818121448509       -1.39663449732523
C            7.82386043797561       -2.94124131523499       -0.99171784747455
C            3.38561250205440        1.42145106304872        0.68243368773281
C            2.35523258379681        2.32374054582021        0.86644509043730
H           -0.62516984295737        1.83245739751585        2.28678386231729
H           -2.48677771824766        0.29022614830082        2.67954660823157
H           -3.58684574311777       -1.41588193529970        2.44946742990870
H           -5.43821514828716       -2.94216753904529        2.84178935493718
H           -6.01250041136592        0.89533336411369       -0.29752942087338
H           -9.01262325437495        0.60168945889150        2.45422482912790
H          -10.24203082062120        2.74741239119594        2.52635252569207
H          -10.93965626671475        3.85736831496952        0.45323291680350
H          -10.42917255865404        2.85474016804556       -1.74517298802698
H           -9.64754726444590        1.38483081626925       -3.76303851377875
H           -8.70960427688147       -0.31818171619167       -5.28580162904339
H           -7.54466517360367       -2.28529784223649       -4.39676872033473
H           -7.29036941187063       -2.60248119056707       -1.95609160170350
H          -10.90623749395841       -1.96497709513782       -0.17019358494735
H          -11.57606278201785       -3.99762007586834        1.07638906435077
H          -10.00020362595069       -5.12647289116680        2.58230840633500
H           -7.70803295060187       -4.26329307282782        2.89076918235284
H           -4.22418369590719        1.51467441828182       -1.08192971526458
H           -2.33642113171491        3.05167995094906       -1.41257214045624
H            0.63980075174918        1.80984761513469       -1.99465452299391
H            2.48068346032409        0.18223221052226       -2.33474318082766
H            3.26423408875261       -1.87027238284421       -1.42826967056062
H            5.06823386498118       -3.51927169908859       -1.71642640590198
H            6.05679575526973        1.00163556965662        0.08866683154232
H            7.64688762236431       -1.94605573727344        2.40662186482789
H            8.25325960957011       -0.95463518198272        4.59151120771447
H            9.49472073717149        1.15834425682153        4.70238549181162
H           10.16354592033850        2.33483658598014        2.63648965195453
H           10.62272979223384        3.14335594904743        0.18980894439717
H           10.79458276569020        3.45916512095233       -2.25330041133727
H            9.82071306217312        1.82045520782160       -3.79736071398368
H            8.64225951650217       -0.17729143068055       -2.93463577520252
H           10.93410927343134       -1.94830050380366       -0.02934506621131
H           11.42304580786271       -4.26387831248723       -0.75117775169606
H            9.63714165586445       -5.70687359414105       -1.61466587533065
H            7.31620243675605       -4.87670193978886       -1.77649173553391
H            4.14394279145594        1.31250925503749        1.44314726544240
H            2.29242533597843        2.94517553563535        1.74672061304313

          :  Hamiltonian                  GFN2-xTB          :
         :: gradient norm              0.000040304481 Eh/a0 ::
         :: HOMO-LUMO gap              0.457031163569 eV    ::
         :: SCC energy              -166.544980684254 Eh    ::
         :: -> dispersion             -0.153181885924 Eh    ::
         :: -> Gsolv                  -0.078137480138 Eh    ::
         :: repulsion energy           3.018164509355 Eh    ::

    * Orbital Energies and Occupations

         #    Occupation            Energy/Eh            Energy/eV
      -------------------------------------------------------------
         1        2.0000           -0.7653552             -20.8264
       ...           ...                  ...                  ...
       141        2.0000           -0.4109630             -11.1829
       142        2.0000           -0.4052177             -11.0265
       143        2.0000           -0.4034248             -10.9777
       144        2.0000           -0.4032101             -10.9719
       145        2.0000           -0.4005736             -10.9002
       146        2.0000           -0.3985748             -10.8458
       147        2.0000           -0.3981743             -10.8349
       148        2.0000           -0.3967454             -10.7960
       149        1.9999           -0.3844181             -10.4605
       150        1.9998           -0.3839152             -10.4469
       151        1.9631           -0.3787810             -10.3072
       152        1.0372           -0.3725897             -10.1387
       153        0.9999           -0.2869591              -7.8086 (HOMO)
       154        0.0001           -0.2701637              -7.3515 (LUMO)
       155                         -0.2561199              -6.9694
       156                         -0.2539936              -6.9115
       157                         -0.2453044              -6.6751
       158                         -0.2399798              -6.5302
       159                         -0.2373829              -6.4595
       160                         -0.2308418              -6.2815
       161                         -0.2297018              -6.2505
       162                         -0.2293737              -6.2416
       163                         -0.2292776              -6.2390
       164                         -0.2273170              -6.1856
       ...                                ...                  ...
       303                          1.1591755              31.5428
      -------------------------------------------------------------
                  HL-Gap            0.0167954 Eh            0.4570 eV

     #   Z          covCN         q      C6AA      α(0)
     1   8 O        0.860    -0.588    25.824     6.813
     2  16 S        3.819     0.911   109.238    17.591
     3   8 O        0.860    -0.587    25.790     6.809
     4   6 C        2.968    -0.086    30.149     9.007
     5   6 C        2.952    -0.032    28.805     8.803
     6   6 C        2.920    -0.033    28.828     8.805
     7   6 C        2.967     0.008    27.826     8.653
     8   6 C        2.969     0.015    27.664     8.627
     9   6 C        2.914    -0.035    28.875     8.812
    10   6 C        2.902    -0.031    28.766     8.794
    11   6 C        3.030     0.002    27.946     8.671
    12   6 C        3.039     0.013    27.697     8.632
    13   6 C        2.908    -0.042    29.031     8.835
    14   6 C        3.971     0.009    20.348     6.409
    15   6 C        3.055     0.006    27.836     8.653
    16   6 C        2.913    -0.033    28.822     8.803
    17   6 C        2.923    -0.031    28.765     8.795
    18   6 C        2.921    -0.031    28.783     8.798
    19   6 C        2.914    -0.034    28.835     8.805
    20   6 C        3.035     0.002    27.938     8.670
    21   6 C        3.035     0.003    27.934     8.669
    22   6 C        2.914    -0.034    28.835     8.805
    23   6 C        2.921    -0.031    28.781     8.798
    24   6 C        2.922    -0.031    28.767     8.796
    25   6 C        2.913    -0.033    28.820     8.803
    26   6 C        3.054     0.006    27.838     8.653
    27   6 C        3.053     0.012    27.687     8.629
    28   6 C        2.908    -0.031    28.784     8.797
    29   6 C        2.921    -0.027    28.681     8.782
    30   6 C        2.914    -0.027    28.677     8.781
    31   6 C        2.909    -0.034    28.843     8.806
    32   6 C        3.027     0.010    27.766     8.643
    33   6 C        2.920    -0.033    28.822     8.804
    34   6 C        2.944    -0.029    28.728     8.791
    35   6 C        2.971    -0.074    29.836     8.960
    36   6 C        2.956    -0.028    28.699     8.787
    37   6 C        2.926    -0.029    28.734     8.791
    38   6 C        2.976     0.020    27.553     8.610
    39   6 C        2.979     0.010    27.792     8.648
    40   6 C        2.925    -0.036    28.896     8.815
    41   6 C        2.913    -0.033    28.826     8.804
    42   6 C        3.035     0.003    27.933     8.669
    43   6 C        3.053     0.008    27.786     8.645
    44   6 C        2.918    -0.037    28.914     8.818
    45   6 C        3.977     0.009    20.345     6.409
    46   6 C        3.054     0.006    27.834     8.652
    47   6 C        2.913    -0.034    28.837     8.806
    48   6 C        2.923    -0.032    28.794     8.800
    49   6 C        2.921    -0.033    28.814     8.803
    50   6 C        2.914    -0.034    28.850     8.808
    51   6 C        3.035     0.001    27.967     8.674
    52   6 C        3.035     0.001    27.971     8.675
    53   6 C        2.914    -0.034    28.851     8.808
    54   6 C        2.921    -0.033    28.814     8.803
    55   6 C        2.923    -0.032    28.790     8.799
    56   6 C        2.913    -0.034    28.835     8.805
    57   6 C        3.055     0.006    27.827     8.651
    58   6 C        3.055     0.007    27.801     8.647
    59   6 C        2.913    -0.033    28.814     8.802
    60   6 C        2.923    -0.031    28.765     8.795
    61   6 C        2.920    -0.032    28.801     8.801
    62   6 C        2.914    -0.034    28.835     8.805
    63   6 C        3.035     0.002    27.939     8.670
    64   6 C        2.926    -0.029    28.725     8.789
    65   6 C        2.952    -0.026    28.648     8.779
    66   1 H        0.926     0.039     2.459     2.452
    67   1 H        0.926     0.055     2.255     2.348
    68   1 H        0.926     0.046     2.376     2.411
    69   1 H        0.926     0.044     2.398     2.422
    70   1 H        0.926     0.036     2.508     2.476
    71   1 H        0.926     0.031     2.578     2.511
    72   1 H        0.926     0.035     2.514     2.479
    73   1 H        0.926     0.035     2.512     2.479
    74   1 H        0.926     0.037     2.494     2.470
    75   1 H        0.926     0.036     2.497     2.471
    76   1 H        0.926     0.036     2.508     2.476
    77   1 H        0.926     0.036     2.503     2.474
    78   1 H        0.926     0.031     2.567     2.506
    79   1 H        0.926     0.034     2.536     2.490
    80   1 H        0.926     0.040     2.447     2.446
    81   1 H        0.926     0.040     2.448     2.447
    82   1 H        0.926     0.042     2.427     2.436
    83   1 H        0.926     0.052     2.289     2.366
    84   1 H        0.926     0.044     2.392     2.419
    85   1 H        0.926     0.047     2.352     2.398
    86   1 H        0.926     0.060     2.201     2.320
    87   1 H        0.926     0.043     2.413     2.429
    88   1 H        0.926     0.042     2.422     2.434
    89   1 H        0.926     0.034     2.530     2.487
    90   1 H        0.926     0.030     2.588     2.516
    91   1 H        0.926     0.034     2.528     2.487
    92   1 H        0.926     0.034     2.534     2.489
    93   1 H        0.926     0.034     2.524     2.484
    94   1 H        0.926     0.035     2.521     2.483
    95   1 H        0.926     0.034     2.536     2.490
    96   1 H        0.926     0.034     2.534     2.489
    97   1 H        0.926     0.029     2.594     2.519
    98   1 H        0.926     0.029     2.596     2.520
    99   1 H        0.926     0.035     2.519     2.482
   100   1 H        0.926     0.035     2.510     2.477
   101   1 H        0.926     0.038     2.482     2.464
   102   1 H        0.926     0.057     2.233     2.337
   103   1 H        0.926     0.052     2.295     2.369

molecular dipole:
                 x           y           z       tot (Debye)
 q only:       -1.082      -4.490       0.034
   full:       -1.056      -4.184       0.029      10.969

 projected vibrational frequencies (cm⁻¹)
eigval :       -0.00    -0.00    -0.00    -0.00    -0.00     0.00
eigval :       -0.68     5.20     6.52    15.07    19.59    22.93
eigval :       27.27    32.80    36.49    40.79    45.44    50.03
eigval :       54.20    59.81    60.74    69.00    77.83    83.27
eigval :       86.32   105.99   118.72   122.72   124.93   131.39
eigval :      134.51   145.12   148.19   156.26   170.16   174.48
eigval :      179.16   209.31   221.57   226.03   229.74   233.56
eigval :      234.09   237.81   254.63   265.73   286.37   290.22
eigval :      307.06   324.21   331.80   335.59   343.46   348.98
eigval :      361.18   367.18   369.88   379.29   386.28   389.39
eigval :      391.16   403.92   410.90   412.57   413.40   413.72
eigval :      419.09   438.58   442.40   451.60   457.39   461.84
eigval :      468.63   469.10   473.46   483.24   497.56   501.23
eigval :      505.43   516.12   519.63   526.43   529.66   537.76
eigval :      539.42   540.80   571.73   587.45   588.53   589.99
eigval :      597.32   598.88   603.17   604.41   605.92   618.16
eigval :      627.13   635.65   640.49   646.59   668.98   681.47
eigval :      685.60   688.93   689.68   690.42   693.77   701.49
eigval :      709.17   715.43   729.45   731.93   741.43   742.51
eigval :      750.59   752.54   761.95   765.15   776.54   778.85
eigval :      781.38   784.45   784.85   790.22   801.42   807.77
eigval :      815.60   833.20   836.90   842.01   873.08   876.26
eigval :      876.94   877.86   878.02   878.67   888.29   890.65
eigval :      894.86   897.42   900.76   901.91   903.41   907.24
eigval :      909.68   910.12   911.41   911.70   912.29   912.86
eigval :      913.54   913.64   918.08   919.00   926.22   926.34
eigval :      927.23   928.83   929.55   932.70   939.93   957.38
eigval :      977.59   991.65  1005.43  1007.30  1008.40  1009.38
eigval :     1052.37  1054.03  1062.91  1069.86  1071.46  1072.42
eigval :     1075.32  1076.32  1076.71  1078.43  1086.99  1111.04
eigval :     1118.88  1120.60  1127.34  1132.17  1137.09  1141.35
eigval :     1142.07  1152.07  1157.00  1161.67  1168.42  1173.62
eigval :     1174.69  1175.15  1176.63  1177.22  1179.42  1179.78
eigval :     1183.30  1196.02  1199.01  1206.10  1207.25  1212.74
eigval :     1222.55  1222.97  1225.42  1241.15  1244.23  1251.30
eigval :     1252.14  1254.14  1258.65  1258.77  1259.72  1273.91
eigval :     1275.37  1283.16  1283.57  1298.55  1306.98  1322.52
eigval :     1324.14  1324.90  1325.48  1326.27  1333.81  1343.30
eigval :     1357.59  1361.16  1362.59  1363.02  1380.44  1388.44
eigval :     1404.66  1412.78  1415.79  1419.38  1424.60  1425.17
eigval :     1426.28  1427.69  1431.03  1443.35  1456.06  1458.46
eigval :     1459.05  1460.02  1461.43  1466.01  1468.01  1479.60
eigval :     1496.72  1520.45  1550.19  1562.07  1564.76  1571.89
eigval :     1572.51  1578.65  1581.48  1586.68  1588.54  1588.96
eigval :     1591.77  1595.17  1597.78  1598.66  1600.49  1601.08
eigval :     1617.21  3069.45  3070.15  3070.86  3071.41  3071.92
eigval :     3073.49  3074.22  3075.00  3075.13  3075.38  3075.91
eigval :     3077.89  3080.05  3080.72  3080.74  3082.00  3082.50
eigval :     3083.06  3083.58  3083.87  3087.17  3087.53  3088.13
eigval :     3088.48  3088.82  3089.59  3089.82  3090.31  3090.63
eigval :     3091.41  3091.88  3096.75  3097.70  3097.73  3099.36
eigval :     3103.54  3107.34  3110.67

   temp. (K)  partition function   enthalpy   heat capacity  entropy
                                   cal/mol     cal/K/mol   cal/K/mol   J/K/mol
 298.15  VIB  0.385E+24            29904.519    190.697    186.242
         ROT  0.310E+09              888.752      2.981     41.839
         INT  0.119E+33            30793.271    193.678    228.080
         TR   0.239E+29             1481.254      4.968     46.066
         TOT                       32274.5253   198.6465   274.1461  1147.0272

       T/K    H(0)-H(T)+PV         H(T)/Eh          T*S/Eh         G(T)/Eh
   ------------------------------------------------------------------------
    298.15    0.514327E-01    0.827628E+00    0.130256E+00    0.697372E+00
   ------------------------------------------------------------------------

         :::::::::::::::::::::::::::::::::::::::::::::::::::::
         ::                  THERMODYNAMIC                  ::
         :::::::::::::::::::::::::::::::::::::::::::::::::::::
         :: total free energy        -162.829443736804 Eh   ::
         ::.................................................::
         :: total energy             -163.526816174973 Eh   ::
         :: zero point energy           0.776195355978 Eh   ::
         :: G(RRHO) w/o ZPVE           -0.078822917809 Eh   ::
         :: G(RRHO) contrib.            0.697372438169 Eh   ::
         :::::::::::::::::::::::::::::::::::::::::::::::::::::

           -------------------------------------------------
          | TOTAL ENERGY             -163.526816174973 Eh   |
          | TOTAL ENTHALPY           -162.699188089066 Eh   |
          | TOTAL FREE ENERGY        -162.829443736804 Eh   |
          | GRADIENT NORM               0.000040321905 Eh/α |
          | HOMO-LUMO GAP               0.457027183268 eV   |
           -------------------------------------------------

 * finished run on 2025/07/21 at 02:49:40.903
