   * xtb version 6.7.1 (edcfbbe) compiled by 'albert@albert-system' on 2024-07-22

   ID    Z sym.   atoms
    1    8 O      1, 3
    2   16 S      2
    3    6 C      4-65
    4    1 H      66-103

          program call               : xtb data2507/toluene/SF-DPSO/SF-DPSO.xyz --gfn 2 --gbsa toluene --ohess vtight --parallel 40 --molden --ceasefiles --namespace data2507/toluene/SF-DPSO/SF-DPSO_toluene_S0_preOpt
      * Solvation model:               GBSA
        Solvent                        toluene
        Solvent mass                       9.2140E+01 g/mol
          :  Hamiltonian                  GFN2-xTB          :
 * total energy  :  -163.6077060 Eh     change       -0.7169376E-09 Eh
 * total energy  :  -163.6190786 Eh     change       -0.1137261E-01 Eh
 * total energy  :  -163.6212845 Eh     change       -0.2205870E-02 Eh
 * total energy  :  -163.6218612 Eh     change       -0.5767607E-03 Eh
 * total energy  :  -163.6221875 Eh     change       -0.3263260E-03 Eh
 * total energy  :  -163.6223146 Eh     change       -0.1270105E-03 Eh
 * total energy  :  -163.6224617 Eh     change       -0.1471651E-03 Eh
 * total energy  :  -163.6225894 Eh     change       -0.1277167E-03 Eh
 * total energy  :  -163.6227147 Eh     change       -0.1252833E-03 Eh
 * total energy  :  -163.6228285 Eh     change       -0.1138049E-03 Eh
 * total energy  :  -163.6231057 Eh     change       -0.4173594E-06 Eh
 * total energy  :  -163.6231064 Eh     change       -0.6852555E-06 Eh
 * total energy  :  -163.6231070 Eh     change       -0.6337461E-06 Eh
 * total energy  :  -163.6231076 Eh     change       -0.5661098E-06 Eh
 * total energy  :  -163.6231081 Eh     change       -0.5965833E-06 Eh
 * total energy  :  -163.6231090 Eh     change       -0.8181497E-06 Eh
 * total energy  :  -163.6231099 Eh     change       -0.9699969E-06 Eh
 * total energy  :  -163.6231108 Eh     change       -0.9072404E-06 Eh
 * total energy  :  -163.6231109 Eh     change       -0.9254080E-08 Eh
   *** GEOMETRY OPTIMIZATION CONVERGED AFTER 68 ITERATIONS ***

 final structure:
================
103
 xtb: 6.7.1 (edcfbbe)
O            0.09932556099008        3.48622726220053        3.66933620224244
S            0.01986632009826        3.14875045227913        2.26155221785473
O           -0.00451697645740        4.25452165713560        1.32522868111626
C           -1.43507945575310        2.13402071878605        2.00072750579894
C           -1.99088608376599        1.45148485455574        3.06636588090243
C           -3.09387475033586        0.64554069880265        2.85492714917328
C           -3.64844502587762        0.52236478762192        1.57998941005625
C           -4.82884835287229       -0.32586767319407        1.35883782861397
C           -4.92183067690257       -1.57745111989802        1.97023775651091
C           -6.02076142531255       -2.39537097562226        1.77676220331220
C           -7.05093829292054       -1.94940722712383        0.96384824367326
C           -6.96412693559320       -0.69016680882066        0.35042933624600
C           -5.86673574391357        0.11813595054472        0.53471388219602
C           -8.19678649667151       -0.41721342566067       -0.47811683375063
C           -8.93794752627770        0.83235163954634       -0.06257002782192
C           -9.46840465990474        1.14222684450238        1.17080663984441
C          -10.11956037964128        2.35941520962855        1.32423294252061
C          -10.23410642644706        3.24263532694965        0.26081789499068
C           -9.70187136769850        2.93389296848393       -0.98124986745919
C           -9.05108265767683        1.72127618712388       -1.14164380909471
C           -8.40302366062454        1.12549393583289       -2.30018878576528
C           -8.23922995320487        1.59002306612225       -3.59522788701694
C           -7.56544379318951        0.79210854297134       -4.50671052918907
C           -7.06429018432949       -0.44665722862144       -4.13478497204198
C           -7.22546583927178       -0.91918125249440       -2.83857645904896
C           -7.89498126404294       -0.12851170230158       -1.93001706950798
C           -8.99650835634508       -1.68152789588028       -0.26723633269546
C          -10.23021799407955       -2.01097266162853       -0.78503876034869
C          -10.78261215056117       -3.24002788129025       -0.44813369771697
C          -10.10951827957228       -4.11621062628681        0.39081773002017
C           -8.86865826046702       -3.78862157746474        0.91369987653635
C           -8.31120087915784       -2.56410182202955        0.58144777600107
C           -3.07046253975959        1.22341300622048        0.52003898384658
C           -1.96193959869719        2.02299386755858        0.72751432116302
C            1.40081660124953        2.07912107127189        1.85485612653697
C            2.09943852329750        2.26736244981001        0.67791929082227
C            3.15708274069255        1.42956162477882        0.37480279208178
C            3.51251361559618        0.39461151490154        1.24087476854911
C            4.63882870062109       -0.49422110101712        0.91997548368221
C            4.54045517372754       -1.86784780510921        1.14908918592153
C            5.58492698658514       -2.72572361739873        0.85365795202297
C            6.75428197346207       -2.19894299612214        0.32823398302104
C            6.85977685555322       -0.81825193146704        0.10078271757535
C            5.81735702744543        0.03273782427106        0.38436542419537
C            8.21879773799914       -0.47485963994860       -0.46145537145172
C            8.98078471562838        0.51706023659852        0.38636683279958
C            9.34546785622271        0.40861761314217        1.71070432751489
C           10.04797943189953        1.45669217770958        2.29141282011497
C           10.37458366467575        2.58678715518031        1.55638005473581
C           10.00948266968967        2.69895937106265        0.22394051497360
C            9.30970755071004        1.65665466656741       -0.36233755385805
C            8.79893426513311        1.48403428257711       -1.71386740135436
C            8.86043980123231        2.30814946290198       -2.82600545214902
C            8.27506539391271        1.87579364627544       -4.00577110547829
C            7.64085719714472        0.64422548558029       -4.07651216107813
C            7.57578087158686       -0.18732273910057       -2.96580408112866
C            8.15651041974051        0.23944125559209       -1.79126329091001
C            8.87479620417188       -1.83353792224284       -0.53390064772107
C           10.14094554818830       -2.15088782677076       -0.97548306952483
C           10.53684928464360       -3.48198007023894       -0.94930601737302
C            9.67854053894159       -4.47018845298156       -0.48959098353133
C            8.40445096231029       -4.15525233338084       -0.04454028146196
C            8.00292122393030       -2.82903786201053       -0.06706513038973
C            2.78627092978354        0.22020859019712        2.42060329090243
C            1.73367541243159        1.06084985451521        2.72897748663592
H           -1.56360152075060        1.58134085700428        4.04854970277526
H           -3.54506640428785        0.12611036993587        3.68653093514502
H           -4.10559826697210       -1.92137026324160        2.58797242039524
H           -6.07174993690357       -3.36369645903827        2.25170513548194
H           -5.81726856574592        1.09280332458926        0.07195405624537
H           -9.38097811188138        0.45426950441916        1.99946840232992
H          -10.54254529753561        2.62075337240841        2.28335438813966
H          -10.74504462084038        4.18407113168651        0.40351821212298
H           -9.79442028399689        3.62509589243926       -1.80596547368454
H           -8.62817384827046        2.55349227705400       -3.89003511073006
H           -7.42872956123419        1.13893100285539       -5.52098567880867
H           -6.54247627797735       -1.05164660563140       -4.86203542334497
H           -6.83518646315369       -1.88458233985631       -2.55000454427088
H          -10.75633128707998       -1.32934600948398       -1.43788646246754
H          -11.74903771898372       -3.51633670591268       -0.84400532010123
H          -10.55990651397214       -5.06653564858575        0.63897799911771
H           -8.34892789704377       -4.47365782629268        1.56696482321772
H           -3.48420924089196        1.12657718273406       -0.47233811659268
H           -1.50625391483886        2.57771146765760       -0.07776681499606
H            1.80989094623480        3.07643594318443        0.02519813450657
H            3.70253635905396        1.56660839860166       -0.54668050732624
H            3.61875102934288       -2.26914445961184        1.54353809459331
H            5.48750284755466       -3.78642998520658        1.03038995823528
H            5.91544783010922        1.09598799508707        0.22187397832442
H            9.09108623723861       -0.47073891440534        2.28483663605265
H           10.34355637509503        1.39030452626154        3.32842516762545
H           10.92110498333605        3.38996079160975        2.02972407527711
H           10.26657264370531        3.58088373891261       -0.34406552987511
H            9.35352638873438        3.26777546261328       -2.77629127727631
H            8.31360652326176        2.50568072809728       -4.88300437489537
H            7.19209114640770        0.32733488523874       -5.00675974458043
H            7.08249607778137       -1.14703481020805       -3.02262655340236
H           10.81053493918377       -1.38219258910453       -1.33375359981471
H           11.52602309563456       -3.75052826768167       -1.29077951207763
H           10.00895891969740       -5.49890491549088       -0.47900658072364
H            7.74009967060031       -4.92801583026211        0.31270924874318
H            3.06535302832791       -0.56343795051513        3.10829110103306
H            1.17821091912471        0.95307064444290        3.64712921971636

          :  Hamiltonian                  GFN2-xTB          :
         :: gradient norm              0.000070233815 Eh/a0 ::
         :: HOMO-LUMO gap              2.791327270407 eV    ::
         :: SCC energy              -166.661611578589 Eh    ::
         :: -> dispersion             -0.152984928528 Eh    ::
         :: -> Gsolv                  -0.075947475387 Eh    ::
         :: repulsion energy           3.038500724849 Eh    ::

    * Orbital Energies and Occupations

         #    Occupation            Energy/Eh            Energy/eV
      -------------------------------------------------------------
         1        2.0000           -0.7723491             -21.0167
       ...           ...                  ...                  ...
       140        2.0000           -0.4133166             -11.2469
       141        2.0000           -0.4129970             -11.2382
       142        2.0000           -0.4052819             -11.0283
       143        2.0000           -0.4025997             -10.9553
       144        2.0000           -0.4022631             -10.9461
       145        2.0000           -0.3975504             -10.8179
       146        2.0000           -0.3974959             -10.8164
       147        2.0000           -0.3962021             -10.7812
       148        2.0000           -0.3960677             -10.7776
       149        2.0000           -0.3837407             -10.4421
       150        2.0000           -0.3833686             -10.4320
       151        2.0000           -0.3785947             -10.3021
       152        2.0000           -0.3782366             -10.2923 (HOMO)
       153                         -0.2756572              -7.5010 (LUMO)
       154                         -0.2676155              -7.2822
       155                         -0.2531385              -6.8882
       156                         -0.2531077              -6.8874
       157                         -0.2454224              -6.6783
       158                         -0.2432986              -6.6205
       159                         -0.2423551              -6.5948
       160                         -0.2368956              -6.4463
       161                         -0.2290214              -6.2320
       162                         -0.2289597              -6.2303
       163                         -0.2266666              -6.1679
       ...                                ...                  ...
       303                          1.1608972              31.5896
      -------------------------------------------------------------
                  HL-Gap            0.1025794 Eh            2.7913 eV

     #   Z          covCN         q      C6AA      α(0)
     1   8 O        0.860    -0.582    25.680     6.794
     2  16 S        3.818     0.929   108.721    17.549
     3   8 O        0.860    -0.580    25.637     6.789
     4   6 C        2.971    -0.075    29.865     8.964
     5   6 C        2.954    -0.026    28.643     8.778
     6   6 C        2.926    -0.029    28.719     8.788
     7   6 C        2.977     0.023    27.486     8.600
     8   6 C        2.979     0.008    27.824     8.653
     9   6 C        2.925    -0.036    28.905     8.817
    10   6 C        2.913    -0.034    28.837     8.806
    11   6 C        3.036     0.002    27.942     8.670
    12   6 C        3.052     0.008    27.802     8.647
    13   6 C        2.918    -0.037    28.911     8.817
    14   6 C        3.977     0.009    20.348     6.409
    15   6 C        3.055     0.006    27.843     8.654
    16   6 C        2.913    -0.034    28.842     8.806
    17   6 C        2.923    -0.032    28.808     8.802
    18   6 C        2.921    -0.033    28.826     8.804
    19   6 C        2.914    -0.035    28.861     8.809
    20   6 C        3.035     0.000    27.987     8.677
    21   6 C        3.035     0.000    27.983     8.677
    22   6 C        2.914    -0.035    28.859     8.809
    23   6 C        2.921    -0.033    28.825     8.804
    24   6 C        2.922    -0.032    28.810     8.802
    25   6 C        2.913    -0.034    28.843     8.807
    26   6 C        3.054     0.006    27.844     8.654
    27   6 C        3.056     0.007    27.816     8.649
    28   6 C        2.913    -0.033    28.822     8.803
    29   6 C        2.923    -0.032    28.786     8.798
    30   6 C        2.921    -0.033    28.817     8.803
    31   6 C        2.914    -0.034    28.846     8.807
    32   6 C        3.035     0.001    27.967     8.674
    33   6 C        2.926    -0.028    28.698     8.785
    34   6 C        2.955    -0.026    28.661     8.781
    35   6 C        2.971    -0.075    29.865     8.964
    36   6 C        2.951    -0.025    28.627     8.776
    37   6 C        2.926    -0.028    28.702     8.786
    38   6 C        2.977     0.023    27.490     8.600
    39   6 C        2.979     0.008    27.824     8.653
    40   6 C        2.925    -0.036    28.906     8.817
    41   6 C        2.913    -0.034    28.837     8.806
    42   6 C        3.036     0.002    27.942     8.670
    43   6 C        3.053     0.008    27.800     8.647
    44   6 C        2.918    -0.037    28.911     8.817
    45   6 C        3.977     0.009    20.348     6.409
    46   6 C        3.055     0.006    27.843     8.654
    47   6 C        2.913    -0.034    28.842     8.806
    48   6 C        2.923    -0.032    28.808     8.802
    49   6 C        2.921    -0.033    28.826     8.804
    50   6 C        2.914    -0.035    28.861     8.809
    51   6 C        3.035     0.000    27.988     8.677
    52   6 C        3.035     0.000    27.984     8.677
    53   6 C        2.914    -0.035    28.860     8.809
    54   6 C        2.921    -0.033    28.825     8.804
    55   6 C        2.923    -0.032    28.810     8.802
    56   6 C        2.913    -0.034    28.843     8.807
    57   6 C        3.054     0.006    27.844     8.654
    58   6 C        3.055     0.007    27.818     8.650
    59   6 C        2.913    -0.033    28.822     8.803
    60   6 C        2.923    -0.031    28.786     8.798
    61   6 C        2.921    -0.033    28.817     8.803
    62   6 C        2.914    -0.034    28.846     8.807
    63   6 C        3.035     0.001    27.967     8.674
    64   6 C        2.926    -0.029    28.716     8.788
    65   6 C        2.958    -0.027    28.684     8.785
    66   1 H        0.926     0.055     2.254     2.348
    67   1 H        0.926     0.062     2.177     2.307
    68   1 H        0.926     0.042     2.417     2.431
    69   1 H        0.926     0.041     2.434     2.440
    70   1 H        0.926     0.034     2.529     2.487
    71   1 H        0.926     0.028     2.608     2.525
    72   1 H        0.926     0.033     2.549     2.497
    73   1 H        0.926     0.033     2.549     2.497
    74   1 H        0.926     0.034     2.532     2.489
    75   1 H        0.926     0.034     2.536     2.490
    76   1 H        0.926     0.033     2.544     2.494
    77   1 H        0.926     0.033     2.540     2.492
    78   1 H        0.926     0.029     2.599     2.521
    79   1 H        0.926     0.028     2.613     2.528
    80   1 H        0.926     0.033     2.537     2.491
    81   1 H        0.926     0.034     2.526     2.486
    82   1 H        0.926     0.036     2.497     2.471
    83   1 H        0.926     0.060     2.200     2.320
    84   1 H        0.926     0.053     2.284     2.363
    85   1 H        0.926     0.055     2.257     2.349
    86   1 H        0.926     0.059     2.206     2.323
    87   1 H        0.926     0.043     2.415     2.430
    88   1 H        0.926     0.041     2.433     2.439
    89   1 H        0.926     0.034     2.532     2.488
    90   1 H        0.926     0.029     2.607     2.525
    91   1 H        0.926     0.033     2.548     2.496
    92   1 H        0.926     0.033     2.549     2.497
    93   1 H        0.926     0.034     2.533     2.489
    94   1 H        0.926     0.034     2.536     2.490
    95   1 H        0.926     0.033     2.545     2.495
    96   1 H        0.926     0.033     2.541     2.493
    97   1 H        0.926     0.029     2.600     2.521
    98   1 H        0.926     0.028     2.613     2.528
    99   1 H        0.926     0.033     2.537     2.491
   100   1 H        0.926     0.034     2.526     2.485
   101   1 H        0.926     0.036     2.496     2.471
   102   1 H        0.926     0.062     2.172     2.305
   103   1 H        0.926     0.052     2.289     2.366

molecular dipole:
                 x           y           z       tot (Debye)
 q only:       -0.124      -3.372      -1.081
   full:       -0.115      -3.093      -1.035       8.294

 projected vibrational frequencies (cm⁻¹)
eigval :       -0.00    -0.00    -0.00     0.00     0.00     0.00
eigval :        3.69     5.84     6.93    16.77    21.88    22.03
eigval :       22.29    32.56    38.64    40.28    44.66    47.62
eigval :       50.27    57.68    63.37    74.61    81.73    85.18
eigval :       87.67   114.64   118.79   124.92   127.64   132.12
eigval :      135.18   148.18   151.81   159.15   166.00   171.90
eigval :      186.72   211.87   223.81   232.44   233.36   233.86
eigval :      234.82   244.43   263.12   282.83   291.33   306.41
eigval :      313.78   332.23   338.66   343.01   346.33   357.59
eigval :      365.84   370.07   371.69   387.17   388.66   393.74
eigval :      400.43   411.64   413.79   413.95   415.12   417.92
eigval :      420.61   448.89   453.29   465.08   468.57   471.90
eigval :      473.42   481.41   484.91   496.18   498.92   505.94
eigval :      506.16   523.73   524.45   533.96   538.66   538.81
eigval :      548.26   572.24   572.56   589.74   590.14   596.84
eigval :      597.94   604.31   604.51   615.10   621.98   627.96
eigval :      628.36   638.82   643.60   682.93   683.78   687.17
eigval :      688.29   690.50   691.15   701.53   704.38   708.00
eigval :      708.70   726.08   734.00   740.36   740.97   753.28
eigval :      753.59   767.10   767.68   770.75   774.02   785.64
eigval :      787.04   800.33   806.04   806.38   811.61   837.63
eigval :      838.76   872.50   874.43   874.49   877.20   877.77
eigval :      879.11   879.12   880.18   884.58   887.09   899.55
eigval :      899.86   907.73   908.28   909.18   910.53   910.94
eigval :      911.04   912.33   915.76   918.74   919.33   919.62
eigval :      920.46   924.32   925.98   926.46   927.93   928.23
eigval :      928.83   929.52   931.06   940.98   942.10   989.67
eigval :      995.52  1007.43  1007.61  1009.66  1009.92  1064.38
eigval :     1069.95  1070.90  1072.36  1072.86  1075.45  1075.69
eigval :     1076.57  1077.06  1078.83  1079.31  1114.56  1117.68
eigval :     1120.05  1122.57  1133.10  1133.29  1141.96  1142.80
eigval :     1153.08  1153.21  1169.80  1170.09  1175.77  1176.15
eigval :     1176.98  1177.12  1180.03  1181.22  1181.97  1183.99
eigval :     1184.57  1196.16  1196.29  1207.52  1207.94  1222.50
eigval :     1222.81  1224.89  1225.27  1244.67  1244.98  1250.26
eigval :     1253.74  1257.89  1258.69  1259.51  1260.15  1275.20
eigval :     1275.44  1283.77  1283.79  1301.62  1301.92  1321.26
eigval :     1322.15  1324.36  1324.44  1324.72  1324.76  1359.99
eigval :     1360.18  1364.58  1364.59  1387.87  1389.45  1420.23
eigval :     1420.34  1427.39  1427.42  1429.61  1429.89  1429.97
eigval :     1430.31  1445.85  1445.96  1460.15  1460.61  1460.96
eigval :     1461.17  1470.17  1470.21  1481.32  1481.48  1569.39
eigval :     1569.87  1572.01  1572.42  1578.23  1579.44  1583.67
eigval :     1583.80  1591.47  1591.51  1594.23  1594.27  1595.91
eigval :     1595.92  1601.74  1601.75  1602.42  1602.53  1602.62
eigval :     1602.71  3068.91  3069.52  3069.95  3070.03  3070.15
eigval :     3070.17  3073.26  3073.32  3073.68  3073.81  3073.93
eigval :     3074.12  3079.07  3079.64  3080.11  3080.53  3081.02
eigval :     3081.34  3081.82  3081.95  3082.49  3082.68  3087.92
eigval :     3088.34  3088.93  3089.12  3089.24  3089.73  3089.90
eigval :     3090.10  3090.51  3090.79  3091.89  3092.47  3100.08
eigval :     3101.21  3102.52  3104.85

   temp. (K)  partition function   enthalpy   heat capacity  entropy
                                   cal/mol     cal/K/mol   cal/K/mol   J/K/mol
 298.15  VIB  0.104E+26            30106.985    189.489    189.653
         ROT  0.314E+09              888.752      2.981     41.863
         INT  0.327E+34            30995.738    192.470    231.515
         TR   0.239E+29             1481.254      4.968     46.066
         TOT                       32476.9915   197.4383   277.5809  1161.3984

       T/K    H(0)-H(T)+PV         H(T)/Eh          T*S/Eh         G(T)/Eh
   ------------------------------------------------------------------------
    298.15    0.517554E-01    0.832063E+00    0.131888E+00    0.700175E+00
   ------------------------------------------------------------------------

         :::::::::::::::::::::::::::::::::::::::::::::::::::::
         ::                  THERMODYNAMIC                  ::
         :::::::::::::::::::::::::::::::::::::::::::::::::::::
         :: total free energy        -162.922935598694 Eh   ::
         ::.................................................::
         :: total energy             -163.623110853338 Eh   ::
         :: zero point energy           0.780307512132 Eh   ::
         :: G(RRHO) w/o ZPVE           -0.080132257489 Eh   ::
         :: G(RRHO) contrib.            0.700175254643 Eh   ::
         :::::::::::::::::::::::::::::::::::::::::::::::::::::

           -------------------------------------------------
          | TOTAL ENERGY             -163.623110853338 Eh   |
          | TOTAL ENTHALPY           -162.791047960819 Eh   |
          | TOTAL FREE ENERGY        -162.922935598694 Eh   |
          | GRADIENT NORM               0.000070218398 Eh/α |
          | HOMO-LUMO GAP               2.791326677196 eV   |
           -------------------------------------------------

 * finished run on 2025/07/21 at 02:29:45.686
