   * xtb version 6.7.1 (edcfbbe) compiled by 'albert@albert-system' on 2024-07-22

   ID    Z sym.   atoms
    1    6 C      1-5, 7-10, 12-17, 19-26, 28-33, 36
    2    7 N      6, 11, 27, 34, 35
    3    8 O      18
    4    1 H      37-55

          program call               : xtb data2507/gas/DPQ-PXZ/DPQ-PXZ_gas_S0_finalOpt.xtbopt.xyz --gfn 2 --spinpol --tblite --uhf 2 --ohess vtight --parallel 40 --molden --ceasefiles --namespace data2507/gas/DPQ-PXZ/DPQ-PXZ_gas_T1_preOpt
 * total energy  :   -92.5733554 Eh     change       -0.5615462E-08 Eh
 * total energy  :   -92.5765057 Eh     change       -0.3150363E-02 Eh
 * total energy  :   -92.5774002 Eh     change       -0.8944184E-03 Eh
 * total energy  :   -92.5775501 Eh     change       -0.1499384E-03 Eh
 * total energy  :   -92.5776412 Eh     change       -0.9106623E-04 Eh
 * total energy  :   -92.5776691 Eh     change       -0.2790717E-04 Eh
 * total energy  :   -92.5777036 Eh     change       -0.3451186E-04 Eh
 * total energy  :   -92.5777492 Eh     change       -0.4562517E-04 Eh
 * total energy  :   -92.5777947 Eh     change       -0.4548311E-04 Eh
 * total energy  :   -92.5778273 Eh     change       -0.3259864E-04 Eh
 * total energy  :   -92.5779187 Eh     change       -0.7251319E-06 Eh
 * total energy  :   -92.5779192 Eh     change       -0.4687633E-06 Eh
 * total energy  :   -92.5779195 Eh     change       -0.3530428E-06 Eh
 * total energy  :   -92.5779199 Eh     change       -0.4084529E-06 Eh
 * total energy  :   -92.5779204 Eh     change       -0.4676445E-06 Eh
 * total energy  :   -92.5779209 Eh     change       -0.5136687E-06 Eh
 * total energy  :   -92.5779212 Eh     change       -0.3348935E-06 Eh
 * total energy  :   -92.5779214 Eh     change       -0.1745274E-06 Eh
 * total energy  :   -92.5779215 Eh     change       -0.9114720E-07 Eh
   *** GEOMETRY OPTIMIZATION CONVERGED AFTER 43 ITERATIONS ***

 final structure:
================
55
 xtb: 6.7.1 (edcfbbe)
C            6.91803060339765       -1.43929638622351        1.64028548369372
C            6.05919906329745       -2.52110310280112        1.50219194429343
C            4.75166985476504       -2.29552620990797        1.12053341965773
C            4.34515549795810       -0.98031108872027        0.87565906700322
C            2.96577309297137       -0.70838965766153        0.48583427632897
N            1.99699077238753       -1.45166223715335        1.00848688820303
C            0.70849477892142       -1.17573092675578        0.79360706741591
C           -0.32150752776024       -1.94544575207490        1.32944842589375
C           -1.64851625401926       -1.60342461068935        1.12407724498104
C           -1.97109709667492       -0.48519957010415        0.36845565874757
N           -3.32991459623577       -0.13900513073280        0.16169714665435
C           -4.15840032115240       -0.95839341661792       -0.59551212994485
C           -3.69035871243704       -2.10784414041522       -1.22427197924161
C           -4.54453741771803       -2.90295963494362       -1.96965012884624
C           -5.87715457304250       -2.56242837316226       -2.10743946637158
C           -6.35529741522612       -1.40767441947101       -1.50764363646618
C           -5.50732965100629       -0.60758453644813       -0.76329544784394
O           -6.04001129945860        0.53142478941074       -0.21861733890248
C           -5.20498151025010        1.33668668020051        0.51100648793391
C           -5.75159377257302        2.48577606145965        1.05314638583633
C           -4.96983888852250        3.33482999019859        1.82120934901547
C           -3.64391897980732        3.02057027368034        2.05306835738567
C           -3.08942848957482        1.87249672105915        1.51250457489273
C           -3.85327333484938        1.02063611962987        0.72093674724181
C           -0.96573245737187        0.30091292770300       -0.19583091621362
C            0.37116235211379       -0.01852966025652       -0.00207691928348
N            1.36457641535145        0.68565977465534       -0.55966512320416
C            2.63550586357103        0.35347398262984       -0.37857856531736
C            3.66156785709999        1.08082783114749       -1.12255559611332
C            3.51784501551333        2.45205664246864       -1.34973021786703
C            4.49640163995559        3.10558813558340       -2.07277710114178
C            5.57587393918918        2.37953662801364       -2.55612173525993
C            5.60954509752601        1.01593236080352       -2.30100597140888
N            4.68324909991962        0.38490212617871       -1.61115863531214
N            5.16473140305696        0.05431070130934        1.03727434503003
C            6.40887667303297       -0.17064430342404        1.40243788039156
H            7.94782704882581       -1.57442563363365        1.93180223076505
H            6.40820114540003       -3.52656151464863        1.69079229402440
H            4.04326753298541       -3.09996747571290        1.00316962448515
H           -0.06152107093117       -2.80353846690300        1.92802689102306
H           -2.43629609218051       -2.20254462762964        1.55520515456445
H           -2.64947405175470       -2.37391970566976       -1.13070632498526
H           -4.15793998394601       -3.79126527135172       -2.44473512302359
H           -6.54515486061912       -3.18235775978371       -2.68407564294170
H           -7.38561512119676       -1.10621664351267       -1.60830072178171
H           -6.79257346003313        2.69478564299132        0.86541914976175
H           -5.40303383461860        4.22962089990600        2.23929019625771
H           -3.02979501783332        3.66681165536308        2.66089181770165
H           -2.05719884353874        1.62919459831585        1.70720773449269
H           -1.21772971069737        1.15253786338986       -0.80771986358595
H            2.65660507887124        2.96864082489347       -0.95719618776757
H            4.42118297979753        4.16759053895423       -2.25937390583023
H            6.36320492059448        2.85429242479402       -3.12049445576614
H            6.41559800718827        0.39562603618410       -2.67230505645835
H            7.02599849468014        0.71177335281130        1.51637962444562

 projected vibrational frequencies (cm⁻¹)
eigval :       -0.00     0.00     0.00     0.00     0.00     0.00
eigval :        9.41    14.21    19.07    25.19    39.08    47.31
eigval :       55.80    60.16    77.80    82.67   111.48   139.13
eigval :      139.66   160.14   178.17   208.58   221.78   246.82
eigval :      254.00   256.63   268.16   289.77   296.37   332.36
eigval :      354.94   371.63   378.79   382.03   395.71   403.09
eigval :      427.31   429.35   446.07   451.25   454.12   505.89
eigval :      511.08   514.92   523.62   542.76   551.92   554.33
eigval :      576.28   585.55   592.24   597.57   616.88   620.57
eigval :      632.35   663.16   665.73   668.58   683.03   693.77
eigval :      703.65   704.64   728.78   764.38   765.01   777.34
eigval :      778.12   789.16   797.94   809.92   834.96   850.59
eigval :      855.42   864.41   865.00   879.08   879.72   880.46
eigval :      898.02   899.23   911.88   912.33   915.62   915.98
eigval :      916.23   927.47   927.94   933.49   983.15   994.10
eigval :     1011.61  1087.32  1087.73  1088.31  1089.07  1105.73
eigval :     1110.73  1115.54  1117.83  1126.74  1134.86  1159.23
eigval :     1160.84  1166.03  1175.06  1182.23  1201.32  1204.24
eigval :     1220.49  1234.30  1237.79  1240.16  1241.76  1257.00
eigval :     1264.54  1274.47  1281.21  1290.65  1293.68  1304.28
eigval :     1313.30  1314.87  1330.31  1344.20  1357.10  1386.30
eigval :     1403.41  1411.36  1419.70  1421.88  1434.50  1437.57
eigval :     1443.28  1466.14  1471.53  1489.17  1513.82  1526.46
eigval :     1539.20  1546.00  1562.37  1568.11  1569.66  1571.61
eigval :     1583.57  1594.03  3048.64  3049.52  3068.65  3068.72
eigval :     3089.41  3092.02  3092.18  3094.84  3095.29  3101.34
eigval :     3101.39  3101.93  3103.33  3103.60  3105.87  3109.58
eigval :     3111.15  3113.86  3114.28

   temp. (K)  partition function   enthalpy   heat capacity  entropy
                                   cal/mol     cal/K/mol   cal/K/mol   J/K/mol
 298.15  VIB  0.345E+13            15802.975    100.716     98.037
         ROT  0.365E+08              888.752      2.981     37.585
         INT  0.126E+21            16691.727    103.697    135.622
         TR   0.972E+28             1481.254      4.968     44.282
         TOT                       18172.9809   108.6650   179.9042   752.7190

       T/K    H(0)-H(T)+PV         H(T)/Eh          T*S/Eh         G(T)/Eh
   ------------------------------------------------------------------------
    298.15    0.289605E-01    0.432748E+00    0.854783E-01    0.347270E+00
   ------------------------------------------------------------------------

         :::::::::::::::::::::::::::::::::::::::::::::::::::::
         ::                  THERMODYNAMIC                  ::
         :::::::::::::::::::::::::::::::::::::::::::::::::::::
         :: total free energy         -92.230651946042 Eh   ::
         ::.................................................::
         :: total energy              -92.577921457277 Eh   ::
         :: zero point energy           0.403787294443 Eh   ::
         :: G(RRHO) w/o ZPVE           -0.056517783209 Eh   ::
         :: G(RRHO) contrib.            0.347269511234 Eh   ::
         :::::::::::::::::::::::::::::::::::::::::::::::::::::

           -------------------------------------------------
          | TOTAL ENERGY              -92.577921457277 Eh   |
          | TOTAL ENTHALPY            -92.145173674408 Eh   |
          | TOTAL FREE ENERGY         -92.230651946042 Eh   |
          | GRADIENT NORM               0.000073643881 Eh/α |
           -------------------------------------------------

 * finished run on 2025/07/20 at 18:22:40.090
