   * xtb version 6.7.1 (edcfbbe) compiled by 'albert@albert-system' on 2024-07-22

   ID    Z sym.   atoms
    1    6 C      1-5, 7-10, 12-17, 19-26, 28-33, 36
    2    7 N      6, 11, 27, 34, 35
    3    8 O      18
    4    1 H      37-55

          program call               : xtb data2507/gas/DPQ-PXZ/DPQ-PXZ_gas_S0_crest.xyz --gfn 2 --ohess vtight --parallel 40 --molden --ceasefiles --namespace data2507/gas/DPQ-PXZ/DPQ-PXZ_gas_S0_finalOpt
          :  Hamiltonian                  GFN2-xTB          :
 * total energy  :   -92.6250244 Eh     change       -0.1490079E-08 Eh
 * total energy  :   -92.6250250 Eh     change       -0.6684373E-06 Eh
 * total energy  :   -92.6250257 Eh     change       -0.7007508E-06 Eh
 * total energy  :   -92.6250264 Eh     change       -0.6233863E-06 Eh
 * total energy  :   -92.6250270 Eh     change       -0.6457550E-06 Eh
 * total energy  :   -92.6250275 Eh     change       -0.5280076E-06 Eh
 * total energy  :   -92.6250278 Eh     change       -0.2609508E-06 Eh
 * total energy  :   -92.6250280 Eh     change       -0.2009202E-06 Eh
 * total energy  :   -92.6250282 Eh     change       -0.2430083E-06 Eh
 * total energy  :   -92.6250285 Eh     change       -0.2407920E-06 Eh
 * total energy  :   -92.6250287 Eh     change       -0.2470104E-06 Eh
 * total energy  :   -92.6250290 Eh     change       -0.2255488E-06 Eh
 * total energy  :   -92.6250291 Eh     change       -0.1910430E-06 Eh
 * total energy  :   -92.6250293 Eh     change       -0.1682406E-06 Eh
 * total energy  :   -92.6250295 Eh     change       -0.1648019E-06 Eh
 * total energy  :   -92.6250296 Eh     change       -0.1608047E-06 Eh
 * total energy  :   -92.6250298 Eh     change       -0.1258962E-06 Eh
 * total energy  :   -92.6250298 Eh     change       -0.7370838E-07 Eh
   *** GEOMETRY OPTIMIZATION CONVERGED AFTER 18 ITERATIONS ***

 final structure:
================
55
 xtb: 6.7.1 (edcfbbe)
C            6.88996133366623       -1.36100675882734        1.63402277016303
C            6.10266104011403       -2.47432869366225        1.38323264508627
C            4.78529483257159       -2.28824614162093        1.00563765113842
C            4.30863039294042       -0.98462860217599        0.88158392208440
C            2.92194617264864       -0.73244532564970        0.47471588060333
N            1.98492723306532       -1.51549491968636        0.95029987121081
C            0.70279663144774       -1.20844480923518        0.68249746797164
C           -0.33870647515423       -2.03050631246474        1.15854254043598
C           -1.63868285134402       -1.66599619899518        0.96013976199401
C           -1.96210265861912       -0.47011199157041        0.27787293005602
N           -3.31732110521717       -0.12359900448779        0.11947702496227
C           -4.18234310406289       -0.97707930992012       -0.57127758156911
C           -3.72989502896771       -2.11305304521969       -1.23133443031022
C           -4.61367423466340       -2.94266195678089       -1.90448741735058
C           -5.96030725491915       -2.64302862652248       -1.94344228670933
C           -6.42210962916671       -1.49122642225973       -1.32408964737758
C           -5.54481133781567       -0.66076867949080       -0.65157710604387
O           -6.06931079887693        0.47656657132625       -0.09231063051304
C           -5.20015274646393        1.32969540110896        0.54067883820566
C           -5.74174366436050        2.48378145834014        1.07618569501478
C           -4.93943348527242        3.37999558312614        1.76581143706948
C           -3.59734239775277        3.10268878653406        1.92809252504562
C           -3.04841303189593        1.94936631606631        1.38875988425739
C           -3.83167167037914        1.05561542896045        0.66937205861849
C           -0.96530447987601        0.33873921507092       -0.21595078993832
C            0.38006149123767       -0.02111527905459       -0.03278808886376
N            1.35705938320409        0.72491459705429       -0.58798939219554
C            2.59926991293590        0.36407301849200       -0.38740407546806
C            3.65556526769182        1.08914066075595       -1.10399556268259
C            3.58881615626031        2.47269912426863       -1.25405942002997
C            4.61392630620072        3.11168608793073       -1.92780172005226
C            5.65586384752304        2.35142452682711       -2.43594132025218
C            5.61320617238369        0.97656585773925       -2.25272082136419
N            4.64573789951679        0.35684565329599       -1.60738304867373
N            5.05855788368162        0.08374486545616        1.14025215936386
C            6.31052541214617       -0.10680396759280        1.50450489980743
H            7.92324928144108       -1.46126523127997        1.92828449925843
H            6.51069111566339       -3.47026020001690        1.48183580439378
H            4.12743445217688       -3.11705818996890        0.79994884051943
H           -0.07794984330471       -2.92944363195005        1.69464843154336
H           -2.44490352695564       -2.27681635435309        1.33939673745036
H           -2.67715093062373       -2.34862617599901       -1.22647515805627
H           -4.23503943549259       -3.82235987664711       -2.40169343889140
H           -6.65261798775208       -3.28749375752813       -2.46164782151400
H           -7.46399308220769       -1.21526762321429       -1.35467120039183
H           -6.79816484140589        2.65756334279820        0.94794911486842
H           -5.37021072226470        4.27855297591052        2.17832581480932
H           -2.96227405278030        3.77934141854474        2.47878945377106
H           -2.00135212636344        1.74014235195631        1.53965920659489
H           -1.19166599871721        1.24264640246294       -0.75994713071685
H            2.75306380527551        3.01361282752253       -0.84061050156678
H            4.60178072560084        4.18467929596605       -2.05667243807868
H            6.47649316670279        2.80998824102089       -2.96568430529039
H            6.39247454799179        0.33508247860429       -2.64477602295155
H            6.87596212058807        0.79455117173505        1.70543553185449

          :  Hamiltonian                  GFN2-xTB          :
         :: gradient norm              0.000022928538 Eh/a0 ::
         :: HOMO-LUMO gap              1.215205405150 eV    ::
         :: SCC energy               -94.207432845825 Eh    ::
         :: -> dispersion             -0.075199284456 Eh    ::
         :: repulsion energy           1.582403004947 Eh    ::

    * Orbital Energies and Occupations

         #    Occupation            Energy/Eh            Energy/eV
      -------------------------------------------------------------
         1        2.0000           -0.7275421             -19.7974
       ...           ...                  ...                  ...
        73        2.0000           -0.4286362             -11.6638
        74        2.0000           -0.4239997             -11.5376
        75        2.0000           -0.4210609             -11.4576
        76        2.0000           -0.4191681             -11.4061
        77        2.0000           -0.4152918             -11.3007
        78        2.0000           -0.4124683             -11.2238
        79        2.0000           -0.4066864             -11.0665
        80        2.0000           -0.4011678             -10.9163
        81        2.0000           -0.3895467             -10.6001
        82        2.0000           -0.3721655             -10.1271
        83        2.0000           -0.3697177             -10.0605
        84        2.0000           -0.3534929              -9.6190
        85        2.0000           -0.3433475              -9.3430 (HOMO)
        86                         -0.2986894              -8.1278 (LUMO)
        87                         -0.2728808              -7.4255
        88                         -0.2465412              -6.7087
        89                         -0.2451074              -6.6697
        90                         -0.2379080              -6.4738
        91                         -0.2320154              -6.3135
        92                         -0.2297971              -6.2531
        93                         -0.2283896              -6.2148
        94                         -0.2158231              -5.8728
        95                         -0.2122723              -5.7762
        96                         -0.1953075              -5.3146
       ...                                ...                  ...
       163                          0.6912384              18.8096
      -------------------------------------------------------------
                  HL-Gap            0.0446581 Eh            1.2152 eV

     #   Z          covCN         q      C6AA      α(0)
     1   6 C        2.915    -0.038    28.951     8.823
     2   6 C        2.928    -0.009    28.244     8.716
     3   6 C        2.919    -0.033    28.810     8.802
     4   6 C        2.972     0.101    25.762     8.326
     5   6 C        2.960     0.093    25.940     8.354
     6   7 N        1.849    -0.226    26.784     7.670
     7   6 C        2.969     0.078    26.253     8.404
     8   6 C        2.916    -0.039    28.961     8.825
     9   6 C        2.919    -0.039    28.961     8.825
    10   6 C        2.918     0.067    26.492     8.440
    11   7 N        2.752    -0.067    22.533     7.050
    12   6 C        2.923     0.042    27.052     8.529
    13   6 C        2.924    -0.059    29.463     8.901
    14   6 C        2.919    -0.038    28.956     8.824
    15   6 C        2.919    -0.040    28.982     8.828
    16   6 C        2.920    -0.056    29.394     8.891
    17   6 C        2.884     0.125    25.249     8.238
    18   8 O        1.709    -0.254    18.199     5.760
    19   6 C        2.885     0.125    25.252     8.238
    20   6 C        2.920    -0.056    29.385     8.889
    21   6 C        2.919    -0.040    28.983     8.828
    22   6 C        2.919    -0.038    28.941     8.822
    23   6 C        2.924    -0.059    29.472     8.903
    24   6 C        2.921     0.042    27.055     8.530
    25   6 C        2.920    -0.054    29.353     8.885
    26   6 C        2.968     0.080    26.207     8.397
    27   7 N        1.849    -0.228    26.838     7.678
    28   6 C        2.959     0.096    25.879     8.344
    29   6 C        2.973     0.101    25.753     8.324
    30   6 C        2.919    -0.032    28.801     8.801
    31   6 C        2.928    -0.009    28.240     8.715
    32   6 C        2.915    -0.038    28.947     8.823
    33   6 C        2.910     0.064    26.577     8.453
    34   7 N        1.843    -0.228    26.842     7.678
    35   7 N        1.843    -0.229    26.863     7.681
    36   6 C        2.910     0.063    26.577     8.453
    37   1 H        0.926     0.038     2.481     2.463
    38   1 H        0.926     0.039     2.456     2.451
    39   1 H        0.926     0.052     2.290     2.366
    40   1 H        0.926     0.059     2.206     2.323
    41   1 H        0.926     0.050     2.324     2.384
    42   1 H        0.926     0.035     2.512     2.479
    43   1 H        0.926     0.037     2.490     2.468
    44   1 H        0.926     0.039     2.464     2.455
    45   1 H        0.926     0.051     2.306     2.375
    46   1 H        0.926     0.051     2.305     2.374
    47   1 H        0.926     0.039     2.463     2.454
    48   1 H        0.926     0.037     2.483     2.464
    49   1 H        0.926     0.037     2.490     2.467
    50   1 H        0.926     0.061     2.182     2.310
    51   1 H        0.926     0.052     2.291     2.367
    52   1 H        0.926     0.040     2.453     2.449
    53   1 H        0.926     0.038     2.478     2.462
    54   1 H        0.925     0.037     2.489     2.467
    55   1 H        0.925     0.037     2.494     2.469

molecular dipole:
                 x           y           z       tot (Debye)
 q only:        0.448      -0.088       0.051
   full:        0.781      -0.075       0.045       1.998

 projected vibrational frequencies (cm⁻¹)
eigval :       -0.00    -0.00     0.00     0.00     0.00     0.00
eigval :       15.08    19.33    24.38    28.25    38.48    45.67
eigval :       60.54    61.99    76.52    79.63   115.52   138.87
eigval :      140.11   156.61   180.47   214.46   226.01   247.41
eigval :      254.27   262.39   271.46   292.34   310.76   333.26
eigval :      356.26   370.76   375.22   387.75   395.22   403.06
eigval :      427.23   430.47   444.85   455.74   461.66   508.35
eigval :      509.85   517.74   523.73   552.15   556.97   562.68
eigval :      579.42   594.60   597.26   604.55   623.82   628.52
eigval :      660.13   661.90   671.27   683.75   707.53   710.70
eigval :      715.86   730.60   756.50   770.16   778.92   779.43
eigval :      783.38   793.85   825.23   842.54   855.81   857.32
eigval :      863.46   866.33   886.75   887.67   887.81   897.52
eigval :      901.17   914.34   916.24   916.47   916.63   917.46
eigval :      927.37   933.38   933.40   965.06   987.30   998.41
eigval :     1028.78  1088.47  1090.09  1090.49  1091.15  1103.65
eigval :     1108.77  1115.64  1120.66  1126.11  1145.35  1161.55
eigval :     1161.97  1165.51  1175.55  1184.02  1199.46  1202.48
eigval :     1219.23  1238.44  1243.68  1244.89  1251.49  1262.08
eigval :     1269.68  1285.38  1288.72  1293.16  1298.03  1310.98
eigval :     1331.25  1339.51  1351.11  1379.01  1399.97  1407.78
eigval :     1416.53  1421.47  1427.50  1440.18  1443.71  1455.96
eigval :     1480.45  1486.83  1502.38  1518.32  1533.51  1558.96
eigval :     1560.97  1567.82  1576.19  1579.32  1580.18  1589.44
eigval :     1595.66  1603.03  3049.92  3050.33  3070.34  3070.54
eigval :     3086.11  3089.58  3090.09  3093.40  3093.76  3098.70
eigval :     3099.96  3102.50  3104.03  3105.67  3108.24  3108.34
eigval :     3108.62  3113.14  3113.66

   temp. (K)  partition function   enthalpy   heat capacity  entropy
                                   cal/mol     cal/K/mol   cal/K/mol   J/K/mol
 298.15  VIB  0.963E+12            15616.464     99.668     96.198
         ROT  0.362E+08              888.752      2.981     37.568
         INT  0.348E+20            16505.217    102.649    133.765
         TR   0.972E+28             1481.254      4.968     44.282
         TOT                       17986.4706   107.6169   178.0473   744.9499

       T/K    H(0)-H(T)+PV         H(T)/Eh          T*S/Eh         G(T)/Eh
   ------------------------------------------------------------------------
    298.15    0.286633E-01    0.435163E+00    0.845960E-01    0.350567E+00
   ------------------------------------------------------------------------

         :::::::::::::::::::::::::::::::::::::::::::::::::::::
         ::                  THERMODYNAMIC                  ::
         :::::::::::::::::::::::::::::::::::::::::::::::::::::
         :: total free energy         -92.274462906379 Eh   ::
         ::.................................................::
         :: total energy              -92.625029840876 Eh   ::
         :: zero point energy           0.406499686765 Eh   ::
         :: G(RRHO) w/o ZPVE           -0.055932752268 Eh   ::
         :: G(RRHO) contrib.            0.350566934497 Eh   ::
         :::::::::::::::::::::::::::::::::::::::::::::::::::::

           -------------------------------------------------
          | TOTAL ENERGY              -92.625029840876 Eh   |
          | TOTAL ENTHALPY            -92.189866888733 Eh   |
          | TOTAL FREE ENERGY         -92.274462906379 Eh   |
          | GRADIENT NORM               0.000022944626 Eh/α |
          | HOMO-LUMO GAP               1.215209370675 eV   |
           -------------------------------------------------

 * finished run on 2025/07/20 at 18:22:34.563
