   * xtb version 6.7.1 (edcfbbe) compiled by 'albert@albert-system' on 2024-07-22

   ID    Z sym.   atoms
    1    6 C      1-5, 7-10, 12-17, 19-26, 28-33, 36
    2    7 N      6, 11, 27, 34, 35
    3    8 O      18
    4    1 H      37-55

          program call               : xtb data2507/gas/DPQ-PXZ/DPQ-PXZ_gas_T1_crest.xyz --gfn 2 --spinpol --tblite --uhf 2 --ohess vtight --parallel 40 --molden --ceasefiles --namespace data2507/gas/DPQ-PXZ/DPQ-PXZ_gas_T1_finalOpt
 * total energy  :   -92.5778671 Eh     change       -0.3128093E-08 Eh
 * total energy  :   -92.5778936 Eh     change       -0.2651994E-04 Eh
 * total energy  :   -92.5779009 Eh     change       -0.7335116E-05 Eh
 * total energy  :   -92.5779036 Eh     change       -0.2708743E-05 Eh
 * total energy  :   -92.5779064 Eh     change       -0.2798461E-05 Eh
 * total energy  :   -92.5779085 Eh     change       -0.2093730E-05 Eh
 * total energy  :   -92.5779101 Eh     change       -0.1539679E-05 Eh
 * total energy  :   -92.5779109 Eh     change       -0.8510253E-06 Eh
 * total energy  :   -92.5779117 Eh     change       -0.7606008E-06 Eh
 * total energy  :   -92.5779126 Eh     change       -0.8574645E-06 Eh
 * total energy  :   -92.5779186 Eh     change       -0.1123193E-05 Eh
 * total energy  :   -92.5779193 Eh     change       -0.7403698E-06 Eh
 * total energy  :   -92.5779198 Eh     change       -0.4669284E-06 Eh
 * total energy  :   -92.5779202 Eh     change       -0.3418185E-06 Eh
 * total energy  :   -92.5779205 Eh     change       -0.3304289E-06 Eh
 * total energy  :   -92.5779208 Eh     change       -0.2675352E-06 Eh
 * total energy  :   -92.5779210 Eh     change       -0.2077752E-06 Eh
 * total energy  :   -92.5779212 Eh     change       -0.2119020E-06 Eh
 * total energy  :   -92.5779212 Eh     change       -0.1906882E-07 Eh
   *** GEOMETRY OPTIMIZATION CONVERGED AFTER 22 ITERATIONS ***

 final structure:
================
55
 xtb: 6.7.1 (edcfbbe)
C            6.91600080063546       -1.43411497509639        1.63070089003265
C            6.06076477177232       -2.51769479094498        1.48375329582174
C            4.75308964775306       -2.29362178874459        1.10206601990366
C            4.34237145053686       -0.97790323186632        0.86615020392848
C            2.96293673742449       -0.70803688126247        0.47685375670986
N            1.99693584224840       -1.46711560959100        0.98244242889662
C            0.70755609641315       -1.19410912039096        0.77014029256727
C           -0.31935737551238       -1.98104294539119        1.28688985193882
C           -1.64770874924365       -1.64061224870668        1.08784568545275
C           -1.97456998666231       -0.50607592369050        0.35899962014336
N           -3.33500795161263       -0.15946020659925        0.16224081515542
C           -4.15854139166587       -0.95651176715912       -0.62317808678336
C           -3.68313875712032       -2.08011731437064       -1.29180282941569
C           -4.53215667076796       -2.85306090886323       -2.06582006584890
C           -5.86669416371310       -2.51556252215440       -2.19232012196125
C           -6.35238893300817       -1.38629094977475       -1.55138929804008
C           -5.50969114865448       -0.60832872202736       -0.77819315990681
O           -6.04940789609714        0.50645642030776       -0.19181322440202
C           -5.21847751672434        1.29153584102907        0.56411248962972
C           -5.77129387576893        2.41769730400669        1.14655273870673
C           -4.99319384856448        3.24515225505386        1.94149118829919
C           -3.66445533672966        2.93249800975517        2.15904671051217
C           -3.10378038267909        1.80717651753997        1.57854105226454
C           -3.86433891578195        0.97732382504714        0.76088883395207
C           -0.97264047499715        0.29671314047537       -0.18745267355625
C            0.36543256981209       -0.02201253535887       -0.00124658256901
N            1.35608040242792        0.69724452916520       -0.54474545911670
C            2.62804066301277        0.36766003886021       -0.36864749351872
C            3.65134502417181        1.11210749739768       -1.09991695660432
C            3.50478660152802        2.48723180251809       -1.29931604475088
C            4.48036789107817        3.15657455041433       -2.01197418606106
C            5.55955717510492        2.44197823772068       -2.51257080185892
C            5.59597069198734        1.07357715276313       -2.28485286725856
N            4.67254631780236        0.42752874848301       -1.60516377883530
N            5.15850592470609        0.05815711155682        1.03676223071061
C            6.40291254314749       -0.16541027534767        1.40166654167418
H            7.94589794842141       -1.56804018441068        1.92236698636636
H            6.41283914812285       -3.52332827580863        1.66556834109012
H            4.04715202441130       -3.09922744343065        0.97804226590623
H           -0.05583945805793       -2.85130298631572        1.86602664491693
H           -2.43329238367920       -2.25337733401249        1.50353283399753
H           -2.64071863913341       -2.34301376237681       -1.20635984969922
H           -4.14011287877290       -3.72143854129810       -2.57225709503245
H           -6.53055632491970       -3.11818490718679       -2.79164589893646
H           -7.38462843509008       -1.08810443623649       -1.64155498604145
H           -6.81407374807248        2.62619105472235        0.96850262261025
H           -5.43129408976045        4.12210703476565        2.39106674241947
H           -3.05300526717913        3.56212492496855        2.78669524341721
H           -2.06932035910945        1.56438747227742        1.76180457876398
H           -1.22826205649910        1.16129889450756       -0.77930996227560
H            2.64375729444314        2.99453690520778       -0.89440623013624
H            4.40296487249734        4.22192991237049       -2.17736523263219
H            6.34465721551879        2.92912444820052       -3.06944874420961
H            6.40186829464382        0.46202587040256       -2.67071836501723
H            7.01695430935557        0.71817577289985        1.52300589487957

 projected vibrational frequencies (cm⁻¹)
eigval :       -0.00    -0.00    -0.00     0.00     0.00     0.00
eigval :        4.06    14.02    19.30    25.18    39.09    47.24
eigval :       55.37    59.89    77.77    82.81   111.33   138.81
eigval :      139.23   160.15   177.98   208.59   221.66   246.84
eigval :      254.05   256.39   268.11   290.52   296.36   332.48
eigval :      354.84   371.70   378.86   382.18   395.80   403.30
eigval :      427.33   429.20   446.08   451.14   453.97   505.86
eigval :      511.00   514.81   523.55   542.85   551.73   554.32
eigval :      576.26   585.41   591.37   597.90   616.89   620.58
eigval :      632.43   663.20   665.68   668.55   683.16   693.74
eigval :      703.54   704.82   729.25   764.40   765.06   777.26
eigval :      778.05   789.14   797.64   809.73   835.57   850.77
eigval :      855.51   864.31   864.79   878.58   879.58   880.61
eigval :      897.91   899.11   911.78   912.29   915.51   915.91
eigval :      916.29   927.42   927.99   933.67   983.06   994.13
eigval :     1010.97  1087.28  1087.84  1088.23  1089.12  1104.72
eigval :     1110.93  1115.28  1117.89  1126.75  1134.48  1159.00
eigval :     1160.76  1165.20  1174.97  1182.10  1200.78  1204.36
eigval :     1218.92  1234.28  1237.51  1240.09  1241.86  1257.27
eigval :     1264.36  1274.56  1282.32  1290.95  1294.18  1304.89
eigval :     1313.70  1315.47  1330.52  1343.84  1356.93  1386.48
eigval :     1403.41  1411.63  1419.58  1422.01  1434.86  1437.97
eigval :     1443.42  1466.11  1472.37  1488.84  1513.43  1526.60
eigval :     1538.84  1546.15  1562.37  1568.01  1569.63  1571.60
eigval :     1583.36  1594.10  3048.75  3049.88  3068.89  3069.12
eigval :     3089.47  3092.10  3092.25  3094.99  3095.75  3101.45
eigval :     3101.59  3102.18  3103.41  3103.70  3106.08  3109.57
eigval :     3111.29  3113.81  3114.22

   temp. (K)  partition function   enthalpy   heat capacity  entropy
                                   cal/mol     cal/K/mol   cal/K/mol   J/K/mol
 298.15  VIB  0.803E+13            15812.649    100.707     98.890
         ROT  0.365E+08              888.752      2.981     37.585
         INT  0.293E+21            16701.401    103.688    136.476
         TR   0.972E+28             1481.254      4.968     44.282
         TOT                       18182.6553   108.6563   180.7578   756.2907

       T/K    H(0)-H(T)+PV         H(T)/Eh          T*S/Eh         G(T)/Eh
   ------------------------------------------------------------------------
    298.15    0.289759E-01    0.432750E+00    0.858839E-01    0.346866E+00
   ------------------------------------------------------------------------

         :::::::::::::::::::::::::::::::::::::::::::::::::::::
         ::                  THERMODYNAMIC                  ::
         :::::::::::::::::::::::::::::::::::::::::::::::::::::
         :: total free energy         -92.231055510506 Eh   ::
         ::.................................................::
         :: total energy              -92.577921198760 Eh   ::
         :: zero point energy           0.403773651575 Eh   ::
         :: G(RRHO) w/o ZPVE           -0.056907963321 Eh   ::
         :: G(RRHO) contrib.            0.346865688255 Eh   ::
         :::::::::::::::::::::::::::::::::::::::::::::::::::::

           -------------------------------------------------
          | TOTAL ENERGY              -92.577921198760 Eh   |
          | TOTAL ENTHALPY            -92.145171641518 Eh   |
          | TOTAL FREE ENERGY         -92.231055510506 Eh   |
          | GRADIENT NORM               0.000068881928 Eh/α |
           -------------------------------------------------

 * finished run on 2025/07/20 at 18:25:31.318
