   * xtb version 6.7.1 (edcfbbe) compiled by 'albert@albert-system' on 2024-07-22

   ID    Z sym.   atoms
    1    6 C      1-5, 7-10, 12-17, 19-26, 28-33, 36
    2    7 N      6, 11, 27, 34, 35
    3    8 O      18
    4    1 H      37-55

          program call               : xtb data2507/gas/DPQ-PXZ/DPQ-PXZ.xyz --gfn 2 --ohess vtight --parallel 40 --molden --ceasefiles --namespace data2507/gas/DPQ-PXZ/DPQ-PXZ_gas_S0_preOpt
          :  Hamiltonian                  GFN2-xTB          :
 * total energy  :   -92.6021171 Eh     change       -0.1502741E-08 Eh
 * total energy  :   -92.6158138 Eh     change       -0.1369666E-01 Eh
 * total energy  :   -92.6202298 Eh     change       -0.4416016E-02 Eh
 * total energy  :   -92.6212358 Eh     change       -0.1005974E-02 Eh
 * total energy  :   -92.6221502 Eh     change       -0.9144082E-03 Eh
 * total energy  :   -92.6224183 Eh     change       -0.2681110E-03 Eh
 * total energy  :   -92.6226515 Eh     change       -0.2332302E-03 Eh
 * total energy  :   -92.6229052 Eh     change       -0.2537255E-03 Eh
 * total energy  :   -92.6231326 Eh     change       -0.2273166E-03 Eh
 * total energy  :   -92.6232879 Eh     change       -0.1553381E-03 Eh
 * total energy  :   -92.6249970 Eh     change       -0.6792881E-06 Eh
 * total energy  :   -92.6249976 Eh     change       -0.6276433E-06 Eh
 * total energy  :   -92.6249982 Eh     change       -0.6122319E-06 Eh
 * total energy  :   -92.6249988 Eh     change       -0.6223754E-06 Eh
 * total energy  :   -92.6249995 Eh     change       -0.6628033E-06 Eh
 * total energy  :   -92.6250002 Eh     change       -0.7186064E-06 Eh
 * total energy  :   -92.6250010 Eh     change       -0.7765238E-06 Eh
 * total energy  :   -92.6250018 Eh     change       -0.8226132E-06 Eh
 * total energy  :   -92.6250018 Eh     change       -0.4758206E-08 Eh
   *** GEOMETRY OPTIMIZATION CONVERGED AFTER 94 ITERATIONS ***

 final structure:
================
55
 xtb: 6.7.1 (edcfbbe)
C            6.81890209121846       -1.13269904030930       -1.79138118519160
C            6.08681504526810       -0.39334964594772       -2.70773416577932
C            4.77607522444783       -0.06914793401565       -2.40843674071510
C            4.25017569311322       -0.49181373521715       -1.18906152944891
C            2.86759334997762       -0.17235349555749       -0.81892333746574
N            1.95022033507987       -0.20703868730361       -1.75386025514390
C            0.66381050623426       -0.05828674845021       -1.38979876259237
C           -0.35618895718670       -0.06242758656669       -2.36270003265059
C           -1.66454521410518       -0.01625381098222       -1.97715968324647
C           -2.01675910632188        0.03329480527349       -0.60858781055583
N           -3.38061114704999        0.04075863399001       -0.25725381813441
C           -4.20864070547268        1.08262855755064       -0.68273696698454
C           -3.71139823372177        2.19816241979472       -1.34512753059278
C           -4.55868480919776        3.21644724699802       -1.75478667479727
C           -5.91243979432474        3.14422596329137       -1.49634148393066
C           -6.41911516033191        2.05465983070851       -0.80349545723329
C           -5.57860556029397        1.03667317672153       -0.39298513867050
O           -6.14603577907978        0.00669055237370        0.31357306393791
C           -5.31301201587708       -0.98763115428094        0.76276978666619
C           -5.89720351519589       -2.00677092571548        1.49204552957453
C           -5.13161767043093       -3.06793466687094        1.95105618270157
C           -3.78288932353103       -3.10678019201717        1.66158241215759
C           -3.19124320766069       -2.08507611748492        0.93457552698719
C           -3.93825045359450       -1.00145228455198        0.49043082725381
C           -1.04105419681057        0.06710612394895        0.35983838544008
C            0.31276266524650        0.04037015637980       -0.01375658123152
N            1.27312800271937        0.17554581340229        0.92313614688298
C            2.52335852800947        0.12640451499582        0.53878050328565
C            3.56556316147270        0.43207586639116        1.52553108460026
C            3.45083172295096       -0.01212201956454        2.84117688536741
C            4.46290548562692        0.29879541273616        3.73118934474644
C            5.54064893590616        1.04709289946048        3.28344755393546
C            5.54593299829076        1.45980804518481        1.95852647501573
N            4.59086361512652        1.16560883047881        1.09973412189731
N            4.94683545822955       -1.21706107784294       -0.31732548569637
C            6.19298671495229       -1.52353195286593       -0.61614941818944
H            7.84500937116815       -1.40510025478436       -1.98431445347495
H            6.53206844813971       -0.07682309541397       -3.64027938839855
H            4.16000425406013        0.50168471324968       -3.08412402766496
H           -0.07371063997871       -0.12598532522481       -3.40176800880040
H           -2.45590466668529       -0.03931738021882       -2.71210116138191
H           -2.65241996248018        2.27621218035003       -1.53589013260471
H           -4.14609063738961        4.06830709821551       -2.27301629775823
H           -6.57627221279625        3.93186045418326       -1.81594838057931
H           -7.46819887947478        1.97721226715538       -0.56675152506979
H           -6.95708051747833       -1.95363115889959        1.68311245978147
H           -5.59579503915316       -3.85777358373131        2.52013620696698
H           -3.17595671635643       -3.93423926156321        1.99534316560934
H           -2.13928711852396       -2.13874140565191        0.70316829105666
H           -1.29074536345735        0.13064631531399        1.40763111259812
H            2.58870171634101       -0.58849874219141        3.13520132654558
H            4.41325616040988       -0.03456124313255        4.75806334538353
H            6.35235360478739        1.30992729783703        3.94404443297953
H            6.35501830252096        2.06066393301078        1.56249748584740
H            6.71393121265354       -2.11645958264159        0.12520277677311

          :  Hamiltonian                  GFN2-xTB          :
         :: gradient norm              0.000054950934 Eh/a0 ::
         :: HOMO-LUMO gap              1.198685393300 eV    ::
         :: SCC energy               -94.207582645643 Eh    ::
         :: -> dispersion             -0.075149036000 Eh    ::
         :: repulsion energy           1.582580824977 Eh    ::

    * Orbital Energies and Occupations

         #    Occupation            Energy/Eh            Energy/eV
      -------------------------------------------------------------
         1        2.0000           -0.7271775             -19.7875
       ...           ...                  ...                  ...
        73        2.0000           -0.4286553             -11.6643
        74        2.0000           -0.4239284             -11.5357
        75        2.0000           -0.4213391             -11.4652
        76        2.0000           -0.4196167             -11.4184
        77        2.0000           -0.4150117             -11.2930
        78        2.0000           -0.4122352             -11.2175
        79        2.0000           -0.4067698             -11.0688
        80        2.0000           -0.4008960             -10.9089
        81        2.0000           -0.3893563             -10.5949
        82        2.0000           -0.3723122             -10.1311
        83        2.0000           -0.3698795             -10.0649
        84        2.0000           -0.3538745              -9.6294
        85        2.0000           -0.3430117              -9.3338 (HOMO)
        86                         -0.2989608              -8.1351 (LUMO)
        87                         -0.2735674              -7.4441
        88                         -0.2466431              -6.7115
        89                         -0.2452030              -6.6723
        90                         -0.2376013              -6.4655
        91                         -0.2320306              -6.3139
        92                         -0.2296016              -6.2478
        93                         -0.2282548              -6.2111
        94                         -0.2156872              -5.8691
        95                         -0.2121522              -5.7730
        96                         -0.1950515              -5.3076
       ...                                ...                  ...
       163                          0.6910443              18.8043
      -------------------------------------------------------------
                  HL-Gap            0.0440509 Eh            1.1987 eV

     #   Z          covCN         q      C6AA      α(0)
     1   6 C        2.915    -0.038    28.951     8.823
     2   6 C        2.928    -0.009    28.244     8.716
     3   6 C        2.919    -0.033    28.811     8.802
     4   6 C        2.972     0.101    25.763     8.326
     5   6 C        2.960     0.093    25.936     8.353
     6   7 N        1.849    -0.225    26.768     7.668
     7   6 C        2.969     0.078    26.254     8.405
     8   6 C        2.916    -0.039    28.958     8.824
     9   6 C        2.919    -0.039    28.958     8.825
    10   6 C        2.918     0.068    26.488     8.440
    11   7 N        2.752    -0.067    22.545     7.052
    12   6 C        2.923     0.042    27.049     8.529
    13   6 C        2.924    -0.059    29.465     8.902
    14   6 C        2.919    -0.038    28.955     8.824
    15   6 C        2.919    -0.040    28.986     8.829
    16   6 C        2.920    -0.056    29.394     8.891
    17   6 C        2.884     0.125    25.251     8.238
    18   8 O        1.709    -0.254    18.204     5.761
    19   6 C        2.884     0.125    25.253     8.239
    20   6 C        2.920    -0.056    29.386     8.890
    21   6 C        2.919    -0.040    28.986     8.829
    22   6 C        2.919    -0.038    28.941     8.822
    23   6 C        2.924    -0.059    29.474     8.903
    24   6 C        2.921     0.042    27.053     8.529
    25   6 C        2.920    -0.054    29.341     8.883
    26   6 C        2.968     0.080    26.209     8.397
    27   7 N        1.849    -0.227    26.820     7.675
    28   6 C        2.959     0.096    25.878     8.344
    29   6 C        2.972     0.101    25.755     8.324
    30   6 C        2.919    -0.032    28.802     8.801
    31   6 C        2.928    -0.009    28.241     8.715
    32   6 C        2.915    -0.038    28.946     8.822
    33   6 C        2.910     0.063    26.578     8.454
    34   7 N        1.843    -0.229    26.844     7.678
    35   7 N        1.843    -0.229    26.862     7.681
    36   6 C        2.910     0.063    26.578     8.453
    37   1 H        0.926     0.038     2.480     2.463
    38   1 H        0.926     0.039     2.456     2.451
    39   1 H        0.926     0.053     2.285     2.364
    40   1 H        0.926     0.059     2.206     2.323
    41   1 H        0.926     0.050     2.324     2.384
    42   1 H        0.926     0.035     2.518     2.482
    43   1 H        0.926     0.037     2.492     2.469
    44   1 H        0.926     0.039     2.466     2.455
    45   1 H        0.926     0.051     2.308     2.376
    46   1 H        0.926     0.051     2.306     2.375
    47   1 H        0.926     0.039     2.464     2.455
    48   1 H        0.926     0.037     2.485     2.465
    49   1 H        0.926     0.036     2.499     2.472
    50   1 H        0.926     0.061     2.182     2.310
    51   1 H        0.926     0.053     2.284     2.364
    52   1 H        0.926     0.040     2.452     2.449
    53   1 H        0.926     0.038     2.478     2.462
    54   1 H        0.925     0.037     2.489     2.467
    55   1 H        0.925     0.037     2.493     2.469

molecular dipole:
                 x           y           z       tot (Debye)
 q only:        0.483      -0.013      -0.093
   full:        0.818      -0.021      -0.069       2.088

 projected vibrational frequencies (cm⁻¹)
eigval :       -0.00    -0.00    -0.00    -0.00     0.00     0.00
eigval :       14.97    19.06    24.17    28.70    38.56    45.04
eigval :       60.30    61.14    76.33    79.31   114.82   138.24
eigval :      140.05   156.08   179.59   214.05   226.01   247.72
eigval :      254.02   262.89   271.00   292.90   309.57   333.35
eigval :      356.86   371.14   375.19   387.51   394.91   402.74
eigval :      427.18   429.91   444.45   454.97   460.60   508.41
eigval :      509.86   517.35   523.32   552.00   556.88   562.80
eigval :      579.05   594.46   596.83   604.55   623.83   628.68
eigval :      660.07   661.72   671.27   683.36   707.57   710.49
eigval :      715.71   730.19   756.31   770.09   778.74   779.26
eigval :      783.15   793.74   824.51   842.72   855.58   857.42
eigval :      863.34   865.80   885.47   887.67   887.83   897.21
eigval :      900.22   914.30   915.87   916.49   916.66   917.41
eigval :      926.07   933.39   933.43   964.67   987.34   998.36
eigval :     1028.45  1088.27  1089.82  1090.24  1091.02  1103.32
eigval :     1108.69  1115.33  1120.46  1126.10  1144.94  1161.46
eigval :     1161.86  1165.65  1175.61  1183.83  1199.29  1202.13
eigval :     1219.05  1238.91  1243.72  1244.83  1252.19  1261.64
eigval :     1269.23  1285.78  1288.99  1293.56  1297.97  1311.08
eigval :     1331.70  1339.94  1351.49  1379.38  1399.03  1407.92
eigval :     1416.35  1421.65  1427.34  1439.64  1443.70  1456.00
eigval :     1480.53  1487.33  1502.76  1518.66  1532.54  1558.87
eigval :     1560.83  1567.77  1576.05  1579.29  1580.26  1589.52
eigval :     1595.55  1603.17  3049.82  3050.26  3070.46  3070.64
eigval :     3086.19  3089.40  3089.97  3093.45  3093.81  3098.41
eigval :     3099.74  3102.36  3103.99  3105.32  3108.10  3108.75
eigval :     3108.82  3113.04  3113.59

   temp. (K)  partition function   enthalpy   heat capacity  entropy
                                   cal/mol     cal/K/mol   cal/K/mol   J/K/mol
 298.15  VIB  0.103E+13            15626.703     99.668     96.297
         ROT  0.362E+08              888.752      2.981     37.568
         INT  0.371E+20            16515.456    102.649    133.865
         TR   0.972E+28             1481.254      4.968     44.282
         TOT                       17996.7097   107.6173   178.1469   745.3667

       T/K    H(0)-H(T)+PV         H(T)/Eh          T*S/Eh         G(T)/Eh
   ------------------------------------------------------------------------
    298.15    0.286796E-01    0.435131E+00    0.846433E-01    0.350488E+00
   ------------------------------------------------------------------------

         :::::::::::::::::::::::::::::::::::::::::::::::::::::
         ::                  THERMODYNAMIC                  ::
         :::::::::::::::::::::::::::::::::::::::::::::::::::::
         :: total free energy         -92.274514212984 Eh   ::
         ::.................................................::
         :: total energy              -92.625001820666 Eh   ::
         :: zero point energy           0.406451372396 Eh   ::
         :: G(RRHO) w/o ZPVE           -0.055963764715 Eh   ::
         :: G(RRHO) contrib.            0.350487607682 Eh   ::
         :::::::::::::::::::::::::::::::::::::::::::::::::::::

           -------------------------------------------------
          | TOTAL ENERGY              -92.625001820666 Eh   |
          | TOTAL ENTHALPY            -92.189870865887 Eh   |
          | TOTAL FREE ENERGY         -92.274514212984 Eh   |
          | GRADIENT NORM               0.000054951133 Eh/α |
          | HOMO-LUMO GAP               1.198685995741 eV   |
           -------------------------------------------------

 * finished run on 2025/07/20 at 18:20:31.747
