   * xtb version 6.7.1 (edcfbbe) compiled by 'albert@albert-system' on 2024-07-22

   ID    Z sym.   atoms
    1    6 C      1-20, 22-44, 46-59
    2    7 N      21, 45
    3    1 H      60-107

          program call               : xtb data2507/toluene/SAF-CzB/SAF-CzB_toluene_T1_crest.xyz --gfn 2 --uhf 2 --gbsa toluene --ohess vtight --parallel 40 --molden --ceasefiles --namespace data2507/toluene/SAF-CzB/SAF-CzB_toluene_T1_finalOpt
      * Solvation model:               GBSA
        Solvent                        toluene
        Solvent mass                       9.2140E+01 g/mol
          :  Hamiltonian                  GFN2-xTB          :
 * total energy  :  -152.4637340 Eh     change        0.2478373E-10 Eh
 * total energy  :  -152.4637811 Eh     change       -0.4710837E-04 Eh
 * total energy  :  -152.4638021 Eh     change       -0.2096425E-04 Eh
 * total energy  :  -152.4638099 Eh     change       -0.7789497E-05 Eh
 * total energy  :  -152.4638173 Eh     change       -0.7406340E-05 Eh
 * total energy  :  -152.4638243 Eh     change       -0.6982017E-05 Eh
 * total energy  :  -152.4638313 Eh     change       -0.7019196E-05 Eh
 * total energy  :  -152.4638373 Eh     change       -0.6028664E-05 Eh
 * total energy  :  -152.4638424 Eh     change       -0.5052241E-05 Eh
 * total energy  :  -152.4638470 Eh     change       -0.4647756E-05 Eh
 * total energy  :  -152.4638611 Eh     change       -0.2736455E-05 Eh
 * total energy  :  -152.4638638 Eh     change       -0.2683485E-05 Eh
 * total energy  :  -152.4638664 Eh     change       -0.2581567E-05 Eh
 * total energy  :  -152.4638687 Eh     change       -0.2307709E-05 Eh
 * total energy  :  -152.4638706 Eh     change       -0.1876360E-05 Eh
 * total energy  :  -152.4638717 Eh     change       -0.1117495E-05 Eh
 * total energy  :  -152.4638723 Eh     change       -0.5922538E-06 Eh
 * total energy  :  -152.4638727 Eh     change       -0.4078991E-06 Eh
 * total energy  :  -152.4638727 Eh     change       -0.5410612E-08 Eh
   *** GEOMETRY OPTIMIZATION CONVERGED AFTER 22 ITERATIONS ***

 final structure:
================
107
 xtb: 6.7.1 (edcfbbe)
C           -6.27771625961403       -4.84886689258603       -2.16418234167436
C           -6.50028587754121       -4.28972143443472       -0.75064310789541
C           -5.94989782340788       -5.27571028268030        0.29116674401245
C           -8.00942623927646       -4.15426874152975       -0.52524381504012
C           -5.76662528242707       -2.96344713120444       -0.61673487396740
C           -4.37560937825335       -2.93665774008555       -0.79242981577741
C           -3.62689397991494       -1.78241250936727       -0.67941197433759
C           -4.28733310513041       -0.60288160548962       -0.36498571841881
C           -5.69320651371086       -0.59627996891308       -0.22163379349297
C           -6.42127786313325       -1.77083490480495       -0.34067759834175
C           -6.06973519906959        0.76997518767296        0.02582041793439
C           -7.28946255154381        1.38521441663985        0.26496754040964
C           -7.33727330820298        2.75043192200499        0.51199046869830
C           -8.64027036131360        3.49122723750808        0.77385916755637
C           -8.59325240443363        4.11263309511552        2.17817450270905
C           -8.81031479693277        4.59753008875878       -0.27850934307273
C           -9.86496855877324        2.57389232606242        0.70047800754494
C           -6.13224078014813        3.46717549631518        0.53596841160338
C           -4.90514427281659        2.88043462364234        0.30052467695930
C           -4.87304798983883        1.52201467779299        0.01835624761520
N           -3.79981349754774        0.68314646608539       -0.21926299385788
C           -2.46514539980417        1.05751272068962       -0.28839900068819
C           -2.06458600412342        2.20078611369873       -1.00687136381904
C           -0.74969775209900        2.55782225352141       -1.08176751187018
C            0.28008012780386        1.80143820615211       -0.44567419293824
C            1.65003680042637        2.14626612307847       -0.53997127452229
C            2.08762982728554        3.45549479832569       -0.93132574501028
C            3.40118761817060        3.80921286506854       -0.98579253309173
C            4.39873932037169        2.85778423075019       -0.67476343526300
C            3.98075521092756        1.53844121978779       -0.32112650873781
C            2.67626409502414        1.19143871557826       -0.24064421193630
C            5.20114511454555        0.66060927163021       -0.05935462787110
C            6.32659126070477        1.65205553859069       -0.25562903327051
C            7.67485280237258        1.44390816105818       -0.12824810552126
C            8.54864138017266        2.50600964269962       -0.37197093981553
C            8.05542581247938        3.75663507442322       -0.74036677398616
C            6.70272846452685        3.98206330497992       -0.87258116138850
C            5.81049570746802        2.92483939399483       -0.62879546106169
C            5.22277771063185       -0.45293851516751       -1.07589593872396
C            5.71083436439351       -0.23113032106446       -2.35380894864501
C            5.65354223450818       -1.21665257356274       -3.32384239494116
C            5.09339774532825       -2.44564426068018       -3.01565734689075
C            4.60569447103549       -2.68783402554050       -1.74750351192177
C            4.66223543987779       -1.69783224763062       -0.76275252638588
N            4.19579444260236       -1.95697497115137        0.51679897988398
C            3.44157449592004       -3.14354605931859        0.74237955846178
C            2.10005850967217       -3.16977448649449        0.38189230278200
C            1.35035477276075       -4.31271894641800        0.59850677446022
C            1.93557204484070       -5.42983151597860        1.17130307373177
C            3.27589274692358       -5.40699684644676        1.52192300781225
C            4.03204224712094       -4.26770186612161        1.30807553972249
C            4.52603096468051       -1.13197223585344        1.58110144703683
C            4.28298358796283       -1.52983595548217        2.89863777754310
C            4.64637114543451       -0.72072965218053        3.95625763382259
C            5.25582060129005        0.50139202110925        3.72401472277626
C            5.46681046124877        0.91834442376714        2.42143996079706
C            5.10441065126641        0.12388110537607        1.34557773759943
C           -0.15908116443992        0.66178032621437        0.29472029344214
C           -1.47265825235278        0.30303627517080        0.36653963677213
H           -6.64228317794970       -4.14425193315685       -2.90930612481584
H           -5.22491287133446       -5.03437820705799       -2.35812514312430
H           -6.81615103389351       -5.78680471023284       -2.28357856401028
H           -6.08525327099930       -4.87666472659206        1.29469606089030
H           -4.89084688241891       -5.46489324737676        0.13969037920783
H           -6.47810032680274       -6.22450535261281        0.22286938603812
H           -8.47873327888145       -5.13134736112286       -0.62263106415933
H           -8.45820185142070       -3.49282617281644       -1.26295544590963
H           -8.22422583672796       -3.77701221826165        0.47211312255387
H           -3.85594925321342       -3.85093414403354       -1.03452274402567
H           -2.56098098271166       -1.80162879619221       -0.84778148836410
H           -7.49086968892304       -1.73026285216284       -0.22164746765260
H           -8.18213501560808        0.78269411874175        0.26019011272407
H           -7.78475825407874        4.83293128287276        2.26795699324546
H           -8.44407611502291        3.33772699310728        2.92772184482226
H           -9.52959493774381        4.62409741872063        2.39176171560442
H           -8.82366759788105        4.16729146530935       -1.27819011041110
H           -8.00106767592535        5.32088260520560       -0.23016455606479
H           -9.74800914288077        5.12544767143872       -0.11735240184305
H           -9.95400222523031        2.11741966618987       -0.28284422853898
H           -9.81515313559165        1.79256707386200        1.45553945574023
H          -10.76516508127641        3.15782188135541        0.88205394657576
H           -6.14958494324133        4.52413451951219        0.75292220328333
H           -3.99960749143611        3.46537246181336        0.35387414631784
H           -2.80989203892351        2.76731906572705       -1.54610462545878
H           -0.48025469121628        3.40895687093008       -1.68723099563669
H            1.34149462081498        4.20517130056958       -1.14753562397771
H            3.68768084868386        4.81507533775357       -1.25946080500548
H            2.40470353251160        0.17905209076526        0.01362463312867
H            8.06079138125329        0.47443389371129        0.15591369797788
H            9.61378544857122        2.35640484256929       -0.27544923591864
H            8.75194176340120        4.56327585739655       -0.92467503748871
H            6.32791298762193        4.95437979780727       -1.15746682784881
H            6.13556567554421        0.73355380076083       -2.59023516229586
H            6.03838846541721       -1.02321545253991       -4.31363516605640
H            5.03973210672863       -3.22252621738791       -3.76390198346541
H            4.18224847858072       -3.65207850670903       -1.51118667798530
H            1.65349738924230       -2.29758887643568       -0.07280264695610
H            0.30718786958584       -4.32847279533333        0.32014753732198
H            1.34875607350614       -6.31997465000040        1.34139592386333
H            3.73609973434698       -6.27944134739135        1.96140653646229
H            5.07893157549993       -4.24124440433125        1.57338191889414
H            3.80408303077994       -2.47683304570995        3.09354875348428
H            4.45145715847527       -1.04826923475295        4.96678298132478
H            5.54702466762941        1.13432917732566        4.54846038510278
H            5.90967682310254        1.88478267641450        2.22902340981977
H            0.56017482094839        0.09729212099093        0.86746595414034
H           -1.77227109814240       -0.53742120711433        0.97599858038024

          :  Hamiltonian                  GFN2-xTB          :
         :: gradient norm              0.000065315189 Eh/a0 ::
         :: HOMO-LUMO gap              0.560816677424 eV    ::
         :: SCC energy              -155.259489880672 Eh    ::
         :: -> dispersion             -0.150764884770 Eh    ::
         :: -> Gsolv                  -0.059822213370 Eh    ::
         :: repulsion energy           2.795617204271 Eh    ::

    * Orbital Energies and Occupations

         #    Occupation            Energy/Eh            Energy/eV
      -------------------------------------------------------------
         1        2.0000           -0.6777783             -18.4433
       ...           ...                  ...                  ...
       132        2.0000           -0.4062613             -11.0549
       133        2.0000           -0.4050229             -11.0212
       134        2.0000           -0.4039446             -10.9919
       135        2.0000           -0.3998409             -10.8802
       136        2.0000           -0.3953290             -10.7575
       137        2.0000           -0.3919150             -10.6645
       138        2.0000           -0.3907058             -10.6316
       139        2.0000           -0.3895751             -10.6009
       140        2.0000           -0.3768577             -10.2548
       141        2.0000           -0.3660062              -9.9595
       142        1.8296           -0.3516178              -9.5680
       143        1.1704           -0.3486102              -9.4862
       144        1.0000           -0.2648370              -7.2066 (HOMO)
       145        0.0000           -0.2442282              -6.6458 (LUMO)
       146                         -0.2383861              -6.4868
       147                         -0.2364187              -6.4333
       148                         -0.2318231              -6.3082
       149                         -0.2243645              -6.1053
       150                         -0.2239856              -6.0950
       151                         -0.2220669              -6.0427
       152                         -0.2215271              -6.0281
       153                         -0.2162667              -5.8849
       154                         -0.2130149              -5.7964
       155                         -0.2018298              -5.4921
       ...                                ...                  ...
       284                          0.7487176              20.3736
      -------------------------------------------------------------
                  HL-Gap            0.0206088 Eh            0.5608 eV

     #   Z          covCN         q      C6AA      α(0)
     1   6 C        3.761    -0.105    22.558     6.771
     2   6 C        3.902     0.026    20.086     6.371
     3   6 C        3.761    -0.105    22.560     6.771
     4   6 C        3.761    -0.108    22.604     6.777
     5   6 C        2.972     0.004    27.934     8.669
     6   6 C        2.929    -0.041    29.007     8.833
     7   6 C        2.908    -0.047    29.179     8.857
     8   6 C        3.077     0.041    26.992     8.518
     9   6 C        3.063    -0.018    28.386     8.737
    10   6 C        2.917    -0.043    29.059     8.840
    11   6 C        3.064    -0.018    28.388     8.737
    12   6 C        2.917    -0.043    29.061     8.840
    13   6 C        2.972     0.004    27.934     8.669
    14   6 C        3.902     0.026    20.087     6.371
    15   6 C        3.761    -0.105    22.556     6.770
    16   6 C        3.761    -0.105    22.557     6.770
    17   6 C        3.761    -0.108    22.606     6.778
    18   6 C        2.929    -0.040    29.003     8.832
    19   6 C        2.908    -0.047    29.179     8.857
    20   6 C        3.076     0.041    26.990     8.518
    21   7 N        2.797    -0.018    21.603     6.903
    22   6 C        2.910     0.041    27.070     8.532
    23   6 C        2.912    -0.045    29.116     8.848
    24   6 C        2.918    -0.042    29.054     8.839
    25   6 C        2.967    -0.001    28.045     8.686
    26   6 C        2.969    -0.010    28.274     8.722
    27   6 C        2.916    -0.043    29.069     8.841
    28   6 C        2.905    -0.041    29.030     8.835
    29   6 C        3.028    -0.016    28.377     8.738
    30   6 C        3.050    -0.004    28.077     8.690
    31   6 C        2.912    -0.048    29.204     8.861
    32   6 C        3.945     0.014    20.281     6.399
    33   6 C        3.052    -0.005    28.099     8.694
    34   6 C        2.910    -0.037    28.922     8.819
    35   6 C        2.920    -0.045    29.108     8.847
    36   6 C        2.916    -0.035    28.874     8.812
    37   6 C        2.910    -0.044    29.104     8.846
    38   6 C        3.029    -0.005    28.129     8.700
    39   6 C        2.983    -0.004    28.114     8.698
    40   6 C        2.923    -0.036    28.884     8.814
    41   6 C        2.918    -0.039    28.979     8.828
    42   6 C        2.919    -0.033    28.819     8.803
    43   6 C        2.922    -0.055    29.366     8.887
    44   6 C        2.929     0.061    26.638     8.464
    45   7 N        2.753    -0.058    22.361     7.023
    46   6 C        2.926     0.066    26.526     8.446
    47   6 C        2.922    -0.036    28.887     8.814
    48   6 C        2.920    -0.026    28.654     8.778
    49   6 C        2.919    -0.029    28.722     8.789
    50   6 C        2.920    -0.027    28.674     8.781
    51   6 C        2.921    -0.037    28.927     8.820
    52   6 C        2.926     0.061    26.636     8.464
    53   6 C        2.922    -0.056    29.401     8.892
    54   6 C        2.919    -0.033    28.820     8.803
    55   6 C        2.917    -0.040    28.987     8.829
    56   6 C        2.924    -0.035    28.881     8.813
    57   6 C        2.984    -0.004    28.122     8.699
    58   6 C        2.919    -0.043    29.056     8.839
    59   6 C        2.912    -0.045    29.120     8.849
    60   1 H        0.925     0.033     2.546     2.495
    61   1 H        0.925     0.037     2.490     2.468
    62   1 H        0.925     0.039     2.457     2.451
    63   1 H        0.925     0.033     2.539     2.492
    64   1 H        0.925     0.037     2.485     2.465
    65   1 H        0.925     0.039     2.459     2.452
    66   1 H        0.925     0.038     2.479     2.462
    67   1 H        0.925     0.036     2.496     2.471
    68   1 H        0.925     0.037     2.493     2.469
    69   1 H        0.926     0.035     2.515     2.480
    70   1 H        0.926     0.034     2.535     2.490
    71   1 H        0.926     0.044     2.401     2.423
    72   1 H        0.926     0.044     2.396     2.421
    73   1 H        0.925     0.036     2.497     2.471
    74   1 H        0.925     0.033     2.541     2.493
    75   1 H        0.925     0.039     2.456     2.451
    76   1 H        0.925     0.033     2.541     2.493
    77   1 H        0.925     0.037     2.496     2.470
    78   1 H        0.925     0.039     2.459     2.452
    79   1 H        0.925     0.037     2.491     2.468
    80   1 H        0.925     0.037     2.490     2.468
    81   1 H        0.925     0.038     2.478     2.461
    82   1 H        0.926     0.034     2.529     2.487
    83   1 H        0.926     0.033     2.548     2.496
    84   1 H        0.926     0.032     2.556     2.500
    85   1 H        0.926     0.029     2.603     2.523
    86   1 H        0.926     0.023     2.693     2.566
    87   1 H        0.926     0.019     2.747     2.592
    88   1 H        0.926     0.017     2.785     2.610
    89   1 H        0.925     0.017     2.779     2.607
    90   1 H        0.926     0.020     2.729     2.583
    91   1 H        0.925     0.021     2.723     2.580
    92   1 H        0.926     0.020     2.738     2.588
    93   1 H        0.926     0.031     2.577     2.510
    94   1 H        0.926     0.032     2.552     2.498
    95   1 H        0.926     0.036     2.508     2.476
    96   1 H        0.926     0.034     2.532     2.488
    97   1 H        0.926     0.040     2.446     2.446
    98   1 H        0.926     0.045     2.381     2.413
    99   1 H        0.926     0.045     2.383     2.414
   100   1 H        0.926     0.045     2.380     2.413
   101   1 H        0.926     0.044     2.395     2.420
   102   1 H        0.926     0.036     2.507     2.476
   103   1 H        0.926     0.035     2.512     2.479
   104   1 H        0.926     0.032     2.559     2.501
   105   1 H        0.926     0.030     2.586     2.515
   106   1 H        0.926     0.028     2.617     2.530
   107   1 H        0.926     0.033     2.540     2.492

molecular dipole:
                 x           y           z       tot (Debye)
 q only:       -2.389      -2.162       0.454
   full:       -2.201      -2.018       0.434       7.669

 projected vibrational frequencies (cm⁻¹)
eigval :       -0.00    -0.00    -0.00     0.00     0.00     0.00
eigval :        0.83     8.41    10.89    18.42    24.29    30.15
eigval :       31.41    36.86    40.05    44.07    52.16    57.27
eigval :       59.81    68.82    71.26    77.41    81.96    97.59
eigval :      103.74   114.97   119.52   122.22   131.43   154.70
eigval :      156.68   168.99   174.65   180.33   189.71   199.87
eigval :      201.36   216.54   219.92   223.89   227.52   229.14
eigval :      242.73   253.37   258.57   259.11   269.88   272.54
eigval :      287.09   293.98   300.81   315.79   325.55   335.78
eigval :      338.26   349.42   357.84   369.92   372.56   374.28
eigval :      375.77   381.64   386.32   387.60   397.83   399.58
eigval :      405.74   407.20   420.64   427.10   439.19   441.26
eigval :      443.27   449.81   454.25   459.66   464.22   465.61
eigval :      489.80   491.99   495.35   500.08   509.97   517.20
eigval :      524.88   545.21   569.57   570.91   584.12   588.68
eigval :      590.53   593.95   597.92   599.26   603.82   610.86
eigval :      626.18   630.41   640.78   651.59   661.87   669.17
eigval :      670.84   677.34   685.26   688.07   701.78   703.50
eigval :      709.91   716.48   720.23   728.48   745.17   762.44
eigval :      766.84   776.48   780.58   783.25   794.76   813.93
eigval :      820.81   825.98   828.62   830.79   840.68   868.40
eigval :      869.40   870.23   871.41   871.89   876.75   887.24
eigval :      888.86   894.08   897.55   903.00   903.89   904.82
eigval :      908.81   909.11   909.84   911.25   911.60   917.10
eigval :      920.55   920.85   921.62   924.53   924.86   927.58
eigval :      933.32   936.17   941.74   958.58   959.23   961.36
eigval :      961.86   963.45   963.92   976.06   993.15   994.22
eigval :     1021.60  1029.30  1033.63  1034.77  1035.24  1039.61
eigval :     1062.21  1076.57  1079.58  1102.20  1103.86  1108.27
eigval :     1111.72  1123.55  1126.38  1128.24  1132.08  1138.02
eigval :     1139.69  1160.32  1165.23  1170.30  1177.34  1180.31
eigval :     1181.57  1182.47  1184.05  1191.87  1201.92  1219.33
eigval :     1223.81  1224.17  1224.97  1227.54  1228.40  1228.77
eigval :     1230.20  1238.07  1241.38  1254.03  1255.82  1260.81
eigval :     1263.34  1269.09  1272.08  1276.56  1285.52  1290.21
eigval :     1295.59  1307.18  1310.27  1311.44  1319.47  1325.07
eigval :     1329.54  1331.79  1335.64  1342.48  1349.09  1350.08
eigval :     1361.72  1382.02  1399.30  1401.94  1402.26  1402.66
eigval :     1404.33  1406.56  1409.57  1426.37  1427.05  1427.89
eigval :     1428.66  1432.08  1434.85  1435.96  1456.92  1457.63
eigval :     1462.05  1464.82  1465.80  1471.98  1478.15  1479.52
eigval :     1487.87  1488.42  1491.05  1491.14  1497.56  1498.22
eigval :     1501.10  1501.54  1501.87  1511.67  1511.89  1512.35
eigval :     1516.20  1518.55  1557.64  1561.59  1563.52  1566.24
eigval :     1572.97  1578.30  1578.59  1580.98  1587.49  1588.45
eigval :     1590.89  1594.89  1609.08  3020.15  3020.44  3020.62
eigval :     3021.33  3023.59  3024.47  3025.39  3025.88  3027.30
eigval :     3028.21  3030.86  3031.10  3035.92  3036.28  3044.49
eigval :     3045.07  3047.90  3048.71  3058.76  3059.30  3060.75
eigval :     3072.06  3073.97  3074.19  3076.66  3076.94  3077.85
eigval :     3078.35  3080.29  3082.08  3082.84  3083.44  3083.60
eigval :     3084.20  3085.37  3087.98  3089.82  3092.35  3092.53
eigval :     3094.87  3095.44  3095.66  3097.73  3098.11  3099.64
eigval :     3101.07  3117.73  3120.44

   temp. (K)  partition function   enthalpy   heat capacity  entropy
                                   cal/mol     cal/K/mol   cal/K/mol   J/K/mol
 298.15  VIB  0.134E+23            29724.963    189.923    182.759
         ROT  0.174E+09              888.752      2.981     40.686
         INT  0.234E+31            30613.715    192.904    223.445
         TR   0.203E+29             1481.254      4.968     45.747
         TOT                       32094.9692   197.8722   269.1913  1126.2964

       T/K    H(0)-H(T)+PV         H(T)/Eh          T*S/Eh         G(T)/Eh
   ------------------------------------------------------------------------
    298.15    0.511466E-01    0.911110E+00    0.127901E+00    0.783208E+00
   ------------------------------------------------------------------------

         :::::::::::::::::::::::::::::::::::::::::::::::::::::
         ::                  THERMODYNAMIC                  ::
         :::::::::::::::::::::::::::::::::::::::::::::::::::::
         :: total free energy        -151.680664241131 Eh   ::
         ::.................................................::
         :: total energy             -152.463872668001 Eh   ::
         :: zero point energy           0.859963306910 Eh   ::
         :: G(RRHO) w/o ZPVE           -0.076754880039 Eh   ::
         :: G(RRHO) contrib.            0.783208426870 Eh   ::
         :::::::::::::::::::::::::::::::::::::::::::::::::::::

           -------------------------------------------------
          | TOTAL ENERGY             -152.463872668001 Eh   |
          | TOTAL ENTHALPY           -151.552762772016 Eh   |
          | TOTAL FREE ENERGY        -151.680664241131 Eh   |
          | GRADIENT NORM               0.000064241272 Eh/α |
          | HOMO-LUMO GAP               0.560794429180 eV   |
           -------------------------------------------------

 * finished run on 2025/08/26 at 12:28:12.074
