   * xtb version 6.7.1 (edcfbbe) compiled by 'albert@albert-system' on 2024-07-22

   ID    Z sym.   atoms
    1    6 C      1-20, 22-44, 46-59
    2    7 N      21, 45
    3    1 H      60-107

          program call               : xtb data2507/toluene/SAF-CzB/SAF-CzB_toluene_S0_finalOpt.xtbopt.xyz --gfn 2 --uhf 2 --gbsa toluene --ohess vtight --parallel 40 --molden --ceasefiles --namespace data2507/toluene/SAF-CzB/SAF-CzB_toluene_T1_preOpt
      * Solvation model:               GBSA
        Solvent                        toluene
        Solvent mass                       9.2140E+01 g/mol
          :  Hamiltonian                  GFN2-xTB          :
 * total energy  :  -152.4539271 Eh     change       -0.8619423E-07 Eh
 * total energy  :  -152.4590035 Eh     change       -0.5076326E-02 Eh
 * total energy  :  -152.4615583 Eh     change       -0.2554793E-02 Eh
 * total energy  :  -152.4619637 Eh     change       -0.4054278E-03 Eh
 * total energy  :  -152.4626056 Eh     change       -0.6419150E-03 Eh
 * total energy  :  -152.4628519 Eh     change       -0.2463397E-03 Eh
 * total energy  :  -152.4630071 Eh     change       -0.1551136E-03 Eh
 * total energy  :  -152.4631036 Eh     change       -0.9655184E-04 Eh
 * total energy  :  -152.4631809 Eh     change       -0.7732605E-04 Eh
 * total energy  :  -152.4632203 Eh     change       -0.3933202E-04 Eh
 * total energy  :  -152.4637024 Eh     change       -0.6599256E-06 Eh
 * total energy  :  -152.4637031 Eh     change       -0.6949479E-06 Eh
 * total energy  :  -152.4637038 Eh     change       -0.7665552E-06 Eh
 * total energy  :  -152.4637047 Eh     change       -0.8274451E-06 Eh
 * total energy  :  -152.4637055 Eh     change       -0.8515362E-06 Eh
 * total energy  :  -152.4637064 Eh     change       -0.8491612E-06 Eh
 * total energy  :  -152.4637072 Eh     change       -0.8389715E-06 Eh
 * total energy  :  -152.4637080 Eh     change       -0.8365110E-06 Eh
 * total energy  :  -152.4637080 Eh     change       -0.4961720E-08 Eh
   *** GEOMETRY OPTIMIZATION CONVERGED AFTER 94 ITERATIONS ***

 final structure:
================
107
 xtb: 6.7.1 (edcfbbe)
C           -9.90318311156626        2.68069979518632       -0.47582679910432
C           -8.67320698651749        3.59297084958698       -0.51703690280519
C           -8.80732349025998        4.62499388140873        0.61323663601851
C           -8.65588475174217        4.30921335648467       -1.87597312766183
C           -7.37017035138082        2.82832986758213       -0.33768289660705
C           -6.15985455694622        3.53634545351705       -0.35371318307360
C           -4.93224212180874        2.92867289054907       -0.18268471205211
C           -4.90409700131225        1.55708910375779        0.02757303121549
C           -6.10695010902629        0.81511707845438        0.00380948754439
C           -7.32715799037476        1.45094533061602       -0.17080130405809
C           -5.73687874208269       -0.56533586812227        0.16651710234410
C           -6.47233656538400       -1.73988749359483        0.22406392417652
C           -5.82353861934038       -2.95143982961217        0.41920240109592
C           -6.56375664521194       -4.28003639750606        0.46800109792221
C           -6.34253806443187       -4.93403183758099        1.84033925300006
C           -8.07235394567428       -4.12261006438373        0.25353792370178
C           -6.01927416788175       -5.19718214099468       -0.63811166511826
C           -4.43138607382142       -2.94314639996758        0.58756588478786
C           -3.67552754121235       -1.78931638504670        0.53398958961734
C           -4.32906799180332       -0.58957208205247        0.28902589899717
N           -3.83301911611619        0.69903826799728        0.20202163489917
C           -2.49517966009120        1.06118587989918        0.26556889961294
C           -2.07896802171683        2.18256905417820        1.00991281249944
C           -0.76285157225833        2.53807001460513        1.06732367179142
C            0.25265622110836        1.79466638100751        0.39577232997998
C            1.62322375860546        2.14528607650776        0.46284677114850
C            2.05531651753424        3.46959318308242        0.80313977607575
C            3.36657996666144        3.83541466391265        0.81881205640688
C            4.36490931197419        2.87877269548005        0.52697433214626
C            3.95217716385719        1.54173482530946        0.23719723503000
C            2.64878491861352        1.18408198473702        0.18453645830773
C            5.17654985730221        0.65889361273356        0.01582023131263
C            6.29583793735144        1.67067640766846        0.13119357636114
C            7.64248292815478        1.46787402375229       -0.01607300317464
C            8.51073615483756        2.54906825571806        0.15276235194156
C            8.01322249404393        3.81198099303639        0.47002307240739
C            6.66177587212342        4.03178614292665        0.62236136274660
C            5.77478689809245        2.95584796639782        0.45091673467899
C            5.07971352441509        0.01989512192797       -1.34432230921501
C            5.38053470892402        0.75838703211496       -2.47795647173914
C            5.18133699083616        0.24066689080474       -3.74554905516700
C            4.64771271445001       -1.03033686192310       -3.88431702371311
C            4.34619911261521       -1.78426122385423       -2.76839918998643
C            4.57628546235200       -1.28124300265625       -1.48450971098701
N            4.30661015480939       -2.05117452714327       -0.36401640819708
C            3.66279077344468       -3.31349042255326       -0.50925610362249
C            4.36470669103246       -4.42032534891345       -0.97231059207142
C            3.71878308415025       -5.63716411476469       -1.10402544496428
C            2.37834500788138       -5.75418541332529       -0.77330062170036
C            1.68147361304030       -4.65224864407292       -0.30567508929902
C            2.32051222426382       -3.43188929094565       -0.17173125077131
C            4.73307643975956       -1.66466838646643        0.89681362641628
C            4.70398713887855       -2.57216376733630        1.95977668222306
C            5.14640734469036       -2.20143892725664        3.21324339513639
C            5.63597488091844       -0.92361686813157        3.42966790075187
C            5.66825736500024       -0.02046094990198        2.38184907501545
C            5.22312604251428       -0.37125133606392        1.11683542545071
C           -0.19746814032187        0.66714107752963       -0.35457354220754
C           -1.51424832236615        0.31803637307629       -0.42018519682163
H           -9.97408323810929        2.16166860364859        0.47744475117323
H          -10.80249714444136        3.28116652340519       -0.59840720093697
H           -9.87637807048569        1.95000982236892       -1.28112745707170
H           -7.99272326711169        5.34373648305149        0.59416124990190
H           -8.79927258783163        4.12627335176070        1.58065255873852
H           -9.74395342014823        5.16962259771890        0.51325792829268
H           -9.59372944243908        4.83866050808258       -2.03092744307736
H           -8.52939730508530        3.58700769492981       -2.68034746851734
H           -7.84524948774358        5.03013347506044       -1.93581739425356
H           -6.17328303374760        4.60381310003352       -0.51142667717643
H           -4.02426608824394        3.51015844953046       -0.22922800608527
H           -8.22414631791104        0.85488845154314       -0.17867989897677
H           -7.54274759628008       -1.68497941336636        0.11891779782692
H           -6.70722796977890       -4.28188182390195        2.63171494658649
H           -5.28991560756706       -5.13292629437561        2.02150078479490
H           -6.88148115477719       -5.87769149475532        1.89506040161518
H           -8.28572520097705       -3.67911230472814       -0.71652378597389
H           -8.51758248479963       -3.50927442565576        1.03370072027271
H           -8.54638531821656       -5.10170896668679        0.28648006985926
H           -6.14921015004836       -4.72952089427615       -1.61232753138471
H           -4.96210640538453       -5.40509420005341       -0.49840504665527
H           -6.55531506550822       -6.14403995628660       -0.63573027134247
H           -3.91616896794300       -3.87297114299515        0.77307851298228
H           -2.60888137734168       -1.82636716681403        0.69384176612047
H           -2.81225337594403        2.73267603179365        1.58141444621800
H           -0.47820826299660        3.37248227810935        1.68926947704264
H            1.30458834377241        4.21946792879871        1.00316146755857
H            3.65063821058478        4.85309123737559        1.04749637089235
H            2.37701539922067        0.16035394090965       -0.02299704452412
H            8.03173804708189        0.48855567860500       -0.25912071941602
H            9.57485139364775        2.40454559150965        0.03888201834376
H            8.70579929648672        4.63281508773142        0.59787789170761
H            6.28368381139116        5.01385131805120        0.86662566730251
H            5.76729737141520        1.76011903547092       -2.35795984896646
H            5.42389401159022        0.83134087591140       -4.61583981820046
H            4.46400516929457       -1.43918691985340       -4.86695192230320
H            3.92675149214188       -2.77085470791994       -2.89002167225849
H            5.41060297197823       -4.32001587793564       -1.22337102011017
H            4.26573531061120       -6.49621656057763       -1.46302377427133
H            1.87814945873196       -6.70524485162916       -0.87759364271808
H            0.63763946062958       -4.74067354927672       -0.04409239857336
H            1.78799506352466       -2.56921272780219        0.20094852323613
H            4.33391050752397       -3.57290821221255        1.79758601465688
H            5.11258667878292       -2.91590039796115        4.02241399662372
H            5.98533804277746       -0.62890304766944        4.40757889429741
H            6.04067559807721        0.98026926097623        2.54539704370546
H            0.51579414329184        0.11135970553404       -0.94372435738406
H           -1.82522731384361       -0.50495666630917       -1.04722320436784

          :  Hamiltonian                  GFN2-xTB          :
         :: gradient norm              0.000070986312 Eh/a0 ::
         :: HOMO-LUMO gap              0.547380261422 eV    ::
         :: SCC energy              -155.259257320856 Eh    ::
         :: -> dispersion             -0.150153644806 Eh    ::
         :: -> Gsolv                  -0.060020181342 Eh    ::
         :: repulsion energy           2.795549281666 Eh    ::

    * Orbital Energies and Occupations

         #    Occupation            Energy/Eh            Energy/eV
      -------------------------------------------------------------
         1        2.0000           -0.6776865             -18.4408
       ...           ...                  ...                  ...
       132        2.0000           -0.4065994             -11.0641
       133        2.0000           -0.4048593             -11.0168
       134        2.0000           -0.4038901             -10.9904
       135        2.0000           -0.3997246             -10.8771
       136        2.0000           -0.3952776             -10.7560
       137        2.0000           -0.3918545             -10.6629
       138        2.0000           -0.3906251             -10.6295
       139        2.0000           -0.3895091             -10.5991
       140        2.0000           -0.3767277             -10.2513
       141        2.0000           -0.3659348              -9.9576
       142        1.8299           -0.3515307              -9.5656
       143        1.1701           -0.3485193              -9.4837
       144        1.0000           -0.2642643              -7.1910 (HOMO)
       145        0.0000           -0.2441482              -6.6436 (LUMO)
       146                         -0.2384074              -6.4874
       147                         -0.2365072              -6.4357
       148                         -0.2318915              -6.3101
       149                         -0.2243158              -6.1039
       150                         -0.2240246              -6.0960
       151                         -0.2220350              -6.0419
       152                         -0.2217320              -6.0336
       153                         -0.2163067              -5.8860
       154                         -0.2128327              -5.7915
       155                         -0.2019784              -5.4961
       ...                                ...                  ...
       284                          0.7484863              20.3673
      -------------------------------------------------------------
                  HL-Gap            0.0201161 Eh            0.5474 eV

     #   Z          covCN         q      C6AA      α(0)
     1   6 C        3.761    -0.108    22.605     6.778
     2   6 C        3.902     0.026    20.087     6.371
     3   6 C        3.761    -0.105    22.556     6.770
     4   6 C        3.761    -0.105    22.557     6.770
     5   6 C        2.972     0.004    27.933     8.669
     6   6 C        2.929    -0.041    29.008     8.833
     7   6 C        2.908    -0.048    29.179     8.858
     8   6 C        3.076     0.041    26.997     8.519
     9   6 C        3.063    -0.018    28.388     8.737
    10   6 C        2.917    -0.043    29.062     8.840
    11   6 C        3.063    -0.018    28.386     8.737
    12   6 C        2.917    -0.043    29.060     8.840
    13   6 C        2.972     0.004    27.934     8.669
    14   6 C        3.902     0.026    20.086     6.371
    15   6 C        3.761    -0.105    22.558     6.771
    16   6 C        3.761    -0.108    22.604     6.777
    17   6 C        3.761    -0.105    22.560     6.771
    18   6 C        2.929    -0.041    29.012     8.833
    19   6 C        2.908    -0.047    29.179     8.857
    20   6 C        3.077     0.041    26.999     8.519
    21   7 N        2.797    -0.018    21.593     6.902
    22   6 C        2.910     0.042    27.065     8.531
    23   6 C        2.912    -0.045    29.121     8.849
    24   6 C        2.917    -0.042    29.051     8.839
    25   6 C        2.967    -0.001    28.042     8.686
    26   6 C        2.970    -0.011    28.276     8.722
    27   6 C        2.916    -0.043    29.065     8.841
    28   6 C        2.905    -0.042    29.034     8.835
    29   6 C        3.029    -0.016    28.375     8.737
    30   6 C        3.049    -0.004    28.078     8.691
    31   6 C        2.912    -0.048    29.188     8.859
    32   6 C        3.945     0.014    20.281     6.399
    33   6 C        3.052    -0.005    28.098     8.693
    34   6 C        2.910    -0.037    28.927     8.819
    35   6 C        2.920    -0.045    29.111     8.848
    36   6 C        2.916    -0.035    28.875     8.812
    37   6 C        2.910    -0.045    29.109     8.847
    38   6 C        3.028    -0.006    28.134     8.700
    39   6 C        2.983    -0.004    28.125     8.699
    40   6 C        2.924    -0.035    28.873     8.812
    41   6 C        2.917    -0.040    28.987     8.829
    42   6 C        2.919    -0.033    28.816     8.803
    43   6 C        2.922    -0.056    29.400     8.892
    44   6 C        2.925     0.061    26.637     8.464
    45   7 N        2.753    -0.057    22.348     7.021
    46   6 C        2.927     0.066    26.524     8.446
    47   6 C        2.921    -0.037    28.921     8.819
    48   6 C        2.920    -0.027    28.671     8.781
    49   6 C        2.919    -0.029    28.721     8.788
    50   6 C        2.920    -0.026    28.656     8.778
    51   6 C        2.922    -0.036    28.887     8.814
    52   6 C        2.928     0.061    26.640     8.464
    53   6 C        2.922    -0.055    29.373     8.888
    54   6 C        2.919    -0.033    28.819     8.803
    55   6 C        2.917    -0.040    28.982     8.828
    56   6 C        2.924    -0.035    28.882     8.813
    57   6 C        2.984    -0.004    28.112     8.697
    58   6 C        2.918    -0.042    29.048     8.838
    59   6 C        2.912    -0.045    29.126     8.850
    60   1 H        0.925     0.037     2.490     2.468
    61   1 H        0.925     0.038     2.478     2.462
    62   1 H        0.925     0.037     2.491     2.468
    63   1 H        0.925     0.037     2.496     2.470
    64   1 H        0.925     0.033     2.541     2.493
    65   1 H        0.925     0.039     2.459     2.452
    66   1 H        0.925     0.039     2.457     2.451
    67   1 H        0.925     0.033     2.541     2.493
    68   1 H        0.925     0.036     2.497     2.471
    69   1 H        0.926     0.034     2.530     2.487
    70   1 H        0.926     0.033     2.543     2.494
    71   1 H        0.926     0.044     2.397     2.421
    72   1 H        0.926     0.044     2.402     2.423
    73   1 H        0.925     0.033     2.544     2.494
    74   1 H        0.925     0.037     2.490     2.468
    75   1 H        0.925     0.039     2.457     2.451
    76   1 H        0.925     0.037     2.494     2.470
    77   1 H        0.925     0.036     2.496     2.471
    78   1 H        0.925     0.038     2.479     2.462
    79   1 H        0.925     0.033     2.542     2.493
    80   1 H        0.925     0.037     2.486     2.465
    81   1 H        0.925     0.039     2.459     2.452
    82   1 H        0.926     0.035     2.516     2.480
    83   1 H        0.926     0.034     2.532     2.488
    84   1 H        0.926     0.033     2.548     2.496
    85   1 H        0.926     0.029     2.602     2.522
    86   1 H        0.926     0.023     2.692     2.566
    87   1 H        0.926     0.019     2.747     2.592
    88   1 H        0.926     0.016     2.802     2.618
    89   1 H        0.925     0.016     2.787     2.611
    90   1 H        0.926     0.020     2.731     2.584
    91   1 H        0.925     0.021     2.724     2.581
    92   1 H        0.926     0.019     2.741     2.589
    93   1 H        0.926     0.030     2.589     2.516
    94   1 H        0.926     0.032     2.559     2.501
    95   1 H        0.926     0.035     2.512     2.478
    96   1 H        0.926     0.035     2.511     2.478
    97   1 H        0.926     0.044     2.398     2.421
    98   1 H        0.926     0.045     2.378     2.412
    99   1 H        0.926     0.045     2.382     2.413
   100   1 H        0.926     0.045     2.379     2.412
   101   1 H        0.926     0.040     2.443     2.444
   102   1 H        0.926     0.034     2.530     2.487
   103   1 H        0.926     0.036     2.509     2.477
   104   1 H        0.926     0.032     2.554     2.499
   105   1 H        0.926     0.030     2.580     2.512
   106   1 H        0.926     0.028     2.618     2.530
   107   1 H        0.926     0.034     2.535     2.490

molecular dipole:
                 x           y           z       tot (Debye)
 q only:       -2.328      -2.227      -0.323
   full:       -2.139      -2.086      -0.308       7.633

 projected vibrational frequencies (cm⁻¹)
eigval :       -0.00    -0.00    -0.00     0.00     0.00     0.00
eigval :        4.13     8.43    12.22    17.30    24.75    28.98
eigval :       35.11    36.31    40.05    45.46    51.84    56.53
eigval :       57.57    68.26    69.57    76.59    79.98    97.13
eigval :      102.51   113.69   118.63   122.79   132.95   153.77
eigval :      163.58   171.61   176.24   182.47   189.41   200.74
eigval :      201.84   219.72   220.93   226.45   228.88   230.32
eigval :      244.13   253.42   255.74   257.96   268.45   272.30
eigval :      286.77   293.33   301.48   315.71   321.29   336.25
eigval :      338.71   348.83   357.83   371.11   371.61   374.35
eigval :      374.98   383.67   386.43   387.80   399.12   399.99
eigval :      404.11   407.25   420.85   425.41   439.55   441.04
eigval :      443.13   449.12   453.48   459.61   464.68   465.90
eigval :      490.44   491.43   495.55   500.55   510.50   517.31
eigval :      524.08   546.06   569.86   570.95   584.47   588.17
eigval :      591.14   594.03   597.59   599.90   603.22   609.74
eigval :      626.14   630.49   638.45   651.19   660.57   668.99
eigval :      670.88   677.25   683.97   688.55   702.72   703.50
eigval :      709.50   716.51   720.53   728.80   748.59   761.72
eigval :      764.21   773.16   782.39   783.37   794.37   814.36
eigval :      823.30   824.35   829.12   831.99   842.92   861.60
eigval :      868.32   868.78   871.02   871.94   874.57   890.15
eigval :      893.10   895.71   896.98   901.44   903.20   904.71
eigval :      906.11   908.98   909.49   911.45   913.96   916.87
eigval :      917.53   920.46   920.70   924.03   925.08   926.17
eigval :      930.55   936.22   942.59   959.14   959.91   961.36
eigval :      961.66   963.05   964.10   975.78   992.64   994.27
eigval :     1021.44  1029.66  1034.18  1034.73  1035.89  1039.86
eigval :     1062.53  1077.16  1079.74  1102.18  1104.04  1108.53
eigval :     1113.21  1123.62  1126.64  1128.18  1132.96  1137.94
eigval :     1141.00  1159.50  1165.37  1170.76  1177.95  1180.24
eigval :     1181.56  1183.49  1184.66  1191.44  1202.77  1219.55
eigval :     1223.31  1223.91  1224.44  1227.93  1228.53  1228.97
eigval :     1229.95  1237.98  1239.27  1253.66  1256.37  1259.14
eigval :     1262.25  1270.30  1272.29  1276.54  1285.62  1289.97
eigval :     1294.80  1307.35  1310.03  1311.49  1321.44  1325.19
eigval :     1328.94  1331.74  1334.84  1342.49  1349.14  1349.60
eigval :     1361.33  1381.95  1399.32  1401.97  1402.54  1402.68
eigval :     1403.69  1406.63  1409.47  1426.52  1426.89  1427.84
eigval :     1428.43  1432.03  1434.11  1435.64  1457.48  1458.26
eigval :     1462.14  1464.02  1465.35  1471.38  1478.22  1479.65
eigval :     1488.89  1488.98  1491.40  1492.02  1497.89  1498.31
eigval :     1501.16  1501.80  1502.48  1510.91  1511.33  1511.47
eigval :     1517.19  1518.09  1557.30  1561.22  1563.19  1565.23
eigval :     1573.23  1577.90  1579.01  1581.17  1587.29  1588.51
eigval :     1590.02  1595.01  1607.49  3019.83  3020.10  3020.60
eigval :     3020.97  3023.86  3024.01  3025.15  3025.75  3027.70
eigval :     3027.80  3030.71  3030.85  3035.85  3036.05  3044.55
eigval :     3044.86  3047.75  3048.26  3059.24  3060.17  3061.03
eigval :     3073.22  3074.34  3075.91  3077.44  3077.46  3079.25
eigval :     3079.49  3079.60  3080.83  3082.37  3083.16  3083.63
eigval :     3083.93  3084.22  3086.96  3089.99  3090.94  3092.05
eigval :     3092.54  3095.13  3095.27  3095.94  3099.06  3099.22
eigval :     3101.24  3117.10  3120.25

   temp. (K)  partition function   enthalpy   heat capacity  entropy
                                   cal/mol     cal/K/mol   cal/K/mol   J/K/mol
 298.15  VIB  0.622E+24            30304.699    190.899    188.687
         ROT  0.177E+09              888.752      2.981     40.727
         INT  0.110E+33            31193.452    193.880    229.414
         TR   0.203E+29             1481.254      4.968     45.747
         TOT                       32674.7057   198.8478   275.1608  1151.2727

       T/K    H(0)-H(T)+PV         H(T)/Eh          T*S/Eh         G(T)/Eh
   ------------------------------------------------------------------------
    298.15    0.520705E-01    0.912016E+00    0.130738E+00    0.781278E+00
   ------------------------------------------------------------------------

         :::::::::::::::::::::::::::::::::::::::::::::::::::::
         ::                  THERMODYNAMIC                  ::
         :::::::::::::::::::::::::::::::::::::::::::::::::::::
         :: total free energy        -151.682429623249 Eh   ::
         ::.................................................::
         :: total energy             -152.463708043242 Eh   ::
         :: zero point energy           0.859945728140 Eh   ::
         :: G(RRHO) w/o ZPVE           -0.078667308147 Eh   ::
         :: G(RRHO) contrib.            0.781278419993 Eh   ::
         :::::::::::::::::::::::::::::::::::::::::::::::::::::

           -------------------------------------------------
          | TOTAL ENERGY             -152.463708043242 Eh   |
          | TOTAL ENTHALPY           -151.551691857135 Eh   |
          | TOTAL FREE ENERGY        -151.682429623249 Eh   |
          | GRADIENT NORM               0.000071122721 Eh/α |
          | HOMO-LUMO GAP               0.547386464212 eV   |
           -------------------------------------------------

 * finished run on 2025/08/26 at 12:06:56.731
