   * xtb version 6.7.1 (edcfbbe) compiled by 'albert@albert-system' on 2024-07-22

   ID    Z sym.   atoms
    1    6 C      1-20, 22-44, 46-59
    2    7 N      21, 45
    3    1 H      60-107

          program call               : xtb data2507/toluene/SAF-CzB/SAF-CzB_toluene_S0_crest.xyz --gfn 2 --gbsa toluene --ohess vtight --parallel 40 --molden --ceasefiles --namespace data2507/toluene/SAF-CzB/SAF-CzB_toluene_S0_finalOpt
      * Solvation model:               GBSA
        Solvent                        toluene
        Solvent mass                       9.2140E+01 g/mol
          :  Hamiltonian                  GFN2-xTB          :
 * total energy  :  -152.5537710 Eh     change       -0.2673232E-08 Eh
 * total energy  :  -152.5538205 Eh     change       -0.4949172E-04 Eh
 * total energy  :  -152.5538621 Eh     change       -0.4161422E-04 Eh
 * total energy  :  -152.5538778 Eh     change       -0.1563041E-04 Eh
 * total energy  :  -152.5539205 Eh     change       -0.4267694E-04 Eh
 * total energy  :  -152.5539437 Eh     change       -0.2328480E-04 Eh
 * total energy  :  -152.5539759 Eh     change       -0.3216386E-04 Eh
 * total energy  :  -152.5540075 Eh     change       -0.3157709E-04 Eh
 * total energy  :  -152.5540400 Eh     change       -0.3247353E-04 Eh
 * total energy  :  -152.5540810 Eh     change       -0.4101495E-04 Eh
 * total energy  :  -152.5546960 Eh     change       -0.1098878E-05 Eh
 * total energy  :  -152.5546972 Eh     change       -0.1212905E-05 Eh
 * total energy  :  -152.5546985 Eh     change       -0.1249553E-05 Eh
 * total energy  :  -152.5546996 Eh     change       -0.1108256E-05 Eh
 * total energy  :  -152.5547005 Eh     change       -0.9099362E-06 Eh
 * total energy  :  -152.5547012 Eh     change       -0.7301788E-06 Eh
 * total energy  :  -152.5547020 Eh     change       -0.7949202E-06 Eh
 * total energy  :  -152.5547029 Eh     change       -0.8689819E-06 Eh
 * total energy  :  -152.5547029 Eh     change       -0.7555457E-08 Eh
   *** GEOMETRY OPTIMIZATION CONVERGED AFTER 94 ITERATIONS ***

 final structure:
================
107
 xtb: 6.7.1 (edcfbbe)
C           -9.94197062114136        2.70226863441140       -0.26410279855755
C           -8.72201563613550        3.62836879364429       -0.29560076278109
C           -8.83844197575807        4.60834615649914        0.88151670216284
C           -8.74848755865790        4.40340516900622       -1.62163481840906
C           -7.40681923029822        2.86842130709929       -0.18520108212028
C           -6.20449385571139        3.58913472584074       -0.20789660267689
C           -4.96612869224787        2.98756873043160       -0.11189207056038
C           -4.92031197658160        1.60832497736065        0.02313886079411
C           -6.11414741115895        0.85617281061471        0.02635125159643
C           -7.34699183443384        1.48886853587206       -0.07388072222824
C           -5.72567785065981       -0.52383721516414        0.12929512433783
C           -6.44655042449873       -1.70986490477243        0.19393320876220
C           -5.77799008873381       -2.91722121932058        0.31403016045012
C           -6.50206851218366       -4.25556600488796        0.37946344898976
C           -6.18224595594679       -4.94002356609779        1.71698590044180
C           -8.02313964441658       -4.10762635004232        0.27401132153617
C           -6.02958689024962       -5.14133478941821       -0.78338444736356
C           -4.37804146680514       -2.90086305805148        0.38688704055054
C           -3.63637118302548       -1.73875663271371        0.32509435125025
C           -4.31578503620569       -0.53913816390337        0.17605374539558
N           -3.83719946167664        0.75546796367277        0.11172260532526
C           -2.48768728638940        1.13025593324659        0.12057048069300
C           -2.03360748563497        2.12240217411243        0.98595123051211
C           -0.70073499661862        2.48217102444978        0.99143865787948
C            0.21522957051131        1.85372949197873        0.14936597865489
C            1.63952885527324        2.21203908027775        0.17046441757157
C            2.04514574261752        3.54324857150477        0.27596356282376
C            3.38418086037523        3.89357928229730        0.28194766420357
C            4.33858856613507        2.89308996446198        0.18535446974046
C            3.93636851804713        1.55425056369753        0.08706672049452
C            2.60717808773031        1.20840895038577        0.07690610293006
C            5.14152796997669        0.63293132540114       -0.00872252253444
C            6.27849629400130        1.62808680458436        0.04563998151387
C            7.63322127444390        1.37956303969138       -0.00033126368148
C            8.50949595638651        2.45516917205111        0.06799773631683
C            8.03258955853389        3.75296768621789        0.17903980770052
C            6.67108624828420        4.00898089051716        0.22702763687446
C            5.79189637801940        2.93997371699632        0.15999691918242
C            5.08053543171680       -0.11190211611621       -1.32230207522394
C            5.41637729602426        0.54021602683600       -2.49819129896148
C            5.26068644329993       -0.07240123057941       -3.72912143107798
C            4.73670553464484       -1.35216497569476       -3.78574056608547
C            4.40201919328959       -2.01986561967773       -2.62440684088366
C            4.58539017319037       -1.42005427104425       -1.37622666937297
N            4.27334850361298       -2.10163365465686       -0.20855532026786
C            3.66642459132240       -3.38826050722450       -0.27999830615741
C            4.41324548967282       -4.50974120787931       -0.62224427979094
C            3.80345886374464       -5.75042637567670       -0.68409134652295
C            2.45282458688900       -5.87755180729190       -0.40208109537028
C            1.71006075700687       -4.76128419497905       -0.05491257768031
C            2.31330909267516       -3.51706882432262        0.00652227812649
C            4.67013936546105       -1.62029048820353        1.03084976386373
C            4.61929787751243       -2.44410343359590        2.15787341124726
C            5.02337146698137       -1.97708142013544        3.39264252841049
C            5.49549978196997       -0.68295694743094        3.52839706485723
C            5.55047690679972        0.13798833049298        2.41593579074101
C            5.14584609693069       -0.31235926254897        1.16923685957255
C           -0.24974094994304        0.86247428560065       -0.71462354774866
C           -1.58302185899889        0.50826642668150       -0.73669123790177
H           -9.98467649980192        2.14260522932816        0.66764424210845
H          -10.85020590589550        3.29720086138566       -0.34047433845197
H           -9.92595743189859        2.00555177427322       -1.09936291389570
H           -8.03017235726109        5.33455974042430        0.87476987247707
H           -8.80271936313163        4.06747645212795        1.82543484885255
H           -9.78176755149401        5.14831798535075        0.82825604713084
H           -9.69390735463126        4.93172256328823       -1.72809016360190
H           -8.63924578808565        3.71756687132949       -2.45974187332186
H           -7.94444839187721        5.13248133878116       -1.67230620742461
H           -6.23386816950445        4.66357774271524       -0.30932822071202
H           -4.06338478285065        3.57892761264974       -0.15219305182494
H           -8.23832962141918        0.88379876527288       -0.06786710973359
H           -7.52194785821984       -1.66166357948253        0.15243444914703
H           -6.49930764528401       -4.31057303358554        2.54642152357861
H           -5.11742842756608       -5.12930589002828        1.82186737014060
H           -6.70573111577830       -5.89162793654085        1.78563410806000
H           -8.30667221916736       -3.64474625367412       -0.66870383533450
H           -8.41703070516494       -3.51416010142815        1.09613705900461
H           -8.48693808525244       -5.09132781718041        0.31838172112678
H           -6.22626264716969       -4.64945992909992       -1.73428406239644
H           -4.96429598244025       -5.34549220029144       -0.72000618562711
H           -6.55949104358092       -6.09173543523571       -0.77010603767972
H           -3.84413521726362       -3.83240914270534        0.49973222146059
H           -2.55954019820562       -1.76847883106309        0.40142554625154
H           -2.72806556927967        2.59502538548977        1.66473312249462
H           -0.35729423621188        3.23869451920258        1.68162414707999
H            1.29411364516055        4.31811452434809        0.33042865702493
H            3.67585354732576        4.93103364847515        0.35543761438849
H            2.31056591062821        0.17201198130671        0.01546465474678
H            8.00547695368643        0.36867359484662       -0.08667923957042
H            9.57483377939063        2.27872105548651        0.03362761565696
H            8.73264032610033        4.57465137709535        0.22989409103895
H            6.30487723477059        5.02134051421292        0.31440427896412
H            5.79586995729794        1.55062187970276       -2.44592268973986
H            5.52898354998787        0.45225139347923       -4.63359150964028
H            4.58611637942602       -1.83763130446423       -4.73896955300027
H            3.98956231488590       -3.01528004743764       -2.68386944448381
H            5.46655177136094       -4.40138856000492       -0.83702744918648
H            4.38584180838111       -6.62017500783864       -0.95016938928073
H            1.98032534032888       -6.84730454257874       -0.45054523635173
H            0.65781367562242       -4.85745799940814        0.16811880292130
H            1.74244568968611       -2.64283254988147        0.28364450233242
H            4.26031596369124       -3.45756915843743        2.06174400368961
H            4.97151729618602       -2.63120399811659        4.25083490474862
H            5.81248382508935       -0.31200145012044        4.49135288087880
H            5.90798939138644        1.15283675178223        2.51503540399988
H            0.43834930470415        0.38588159609031       -1.39791520386556
H           -1.93625361110680       -0.24200519752684       -1.42866979309550

          :  Hamiltonian                  GFN2-xTB          :
         :: gradient norm              0.000061959538 Eh/a0 ::
         :: HOMO-LUMO gap              2.375717510882 eV    ::
         :: SCC energy              -155.367854684945 Eh    ::
         :: -> dispersion             -0.149788001009 Eh    ::
         :: -> Gsolv                  -0.058787275649 Eh    ::
         :: repulsion energy           2.813151808479 Eh    ::

    * Orbital Energies and Occupations

         #    Occupation            Energy/Eh            Energy/eV
      -------------------------------------------------------------
         1        2.0000           -0.6700238             -18.2323
       ...           ...                  ...                  ...
       131        2.0000           -0.4081295             -11.1058
       132        2.0000           -0.4064835             -11.0610
       133        2.0000           -0.4045485             -11.0083
       134        2.0000           -0.4038330             -10.9889
       135        2.0000           -0.4033557             -10.9759
       136        2.0000           -0.3965020             -10.7894
       137        2.0000           -0.3943249             -10.7301
       138        2.0000           -0.3934712             -10.7069
       139        2.0000           -0.3919286             -10.6649
       140        2.0000           -0.3754411             -10.2163
       141        2.0000           -0.3701205             -10.0715
       142        2.0000           -0.3530806              -9.6078
       143        2.0000           -0.3475889              -9.4584 (HOMO)
       144                         -0.2602829              -7.0827 (LUMO)
       145                         -0.2384178              -6.4877
       146                         -0.2354638              -6.4073
       147                         -0.2340098              -6.3677
       148                         -0.2305240              -6.2729
       149                         -0.2280480              -6.2055
       150                         -0.2270764              -6.1791
       151                         -0.2239347              -6.0936
       152                         -0.2214958              -6.0272
       153                         -0.2212489              -6.0205
       154                         -0.2144299              -5.8349
       ...                                ...                  ...
       284                          0.7447941              20.2669
      -------------------------------------------------------------
                  HL-Gap            0.0873060 Eh            2.3757 eV

     #   Z          covCN         q      C6AA      α(0)
     1   6 C        3.761    -0.106    22.571     6.773
     2   6 C        3.902     0.025    20.106     6.374
     3   6 C        3.761    -0.104    22.536     6.767
     4   6 C        3.761    -0.104    22.536     6.767
     5   6 C        2.972    -0.004    28.118     8.698
     6   6 C        2.931    -0.041    29.024     8.835
     7   6 C        2.908    -0.055    29.372     8.887
     8   6 C        3.079     0.044    26.932     8.508
     9   6 C        3.067    -0.022    28.489     8.752
    10   6 C        2.918    -0.046    29.140     8.852
    11   6 C        3.066    -0.022    28.487     8.752
    12   6 C        2.918    -0.046    29.139     8.852
    13   6 C        2.972    -0.004    28.118     8.698
    14   6 C        3.902     0.025    20.105     6.374
    15   6 C        3.761    -0.104    22.536     6.767
    16   6 C        3.761    -0.106    22.570     6.772
    17   6 C        3.761    -0.104    22.537     6.767
    18   6 C        2.931    -0.041    29.025     8.835
    19   6 C        2.908    -0.055    29.368     8.886
    20   6 C        3.080     0.044    26.933     8.508
    21   7 N        2.801    -0.051    22.222     7.001
    22   6 C        2.912     0.063    26.583     8.455
    23   6 C        2.920    -0.044    29.095     8.845
    24   6 C        2.924    -0.034    28.845     8.808
    25   6 C        2.976     0.007    27.868     8.659
    26   6 C        2.979     0.006    27.871     8.660
    27   6 C        2.925    -0.039    28.964     8.826
    28   6 C        2.913    -0.036    28.884     8.813
    29   6 C        3.033    -0.002    28.042     8.686
    30   6 C        3.061     0.001    27.937     8.668
    31   6 C        2.920    -0.039    28.978     8.828
    32   6 C        3.949     0.013    20.283     6.400
    33   6 C        3.055     0.002    27.932     8.667
    34   6 C        2.914    -0.033    28.812     8.802
    35   6 C        2.922    -0.033    28.824     8.804
    36   6 C        2.921    -0.034    28.840     8.807
    37   6 C        2.914    -0.036    28.889     8.814
    38   6 C        3.035     0.000    27.986     8.677
    39   6 C        2.984    -0.009    28.242     8.717
    40   6 C        2.925    -0.037    28.930     8.821
    41   6 C        2.917    -0.045    29.118     8.849
    42   6 C        2.919    -0.034    28.854     8.809
    43   6 C        2.923    -0.059    29.475     8.903
    44   6 C        2.925     0.060    26.645     8.465
    45   7 N        2.753    -0.076    22.714     7.078
    46   6 C        2.926     0.068    26.482     8.439
    47   6 C        2.921    -0.038    28.942     8.822
    48   6 C        2.920    -0.028    28.698     8.785
    49   6 C        2.919    -0.030    28.751     8.793
    50   6 C        2.920    -0.027    28.683     8.783
    51   6 C        2.922    -0.037    28.922     8.819
    52   6 C        2.928     0.060    26.645     8.465
    53   6 C        2.923    -0.058    29.452     8.900
    54   6 C        2.919    -0.034    28.849     8.808
    55   6 C        2.917    -0.045    29.110     8.848
    56   6 C        2.924    -0.037    28.927     8.820
    57   6 C        2.983    -0.009    28.235     8.716
    58   6 C        2.925    -0.034    28.836     8.806
    59   6 C        2.920    -0.044    29.095     8.845
    60   1 H        0.925     0.035     2.515     2.480
    61   1 H        0.925     0.036     2.504     2.475
    62   1 H        0.925     0.035     2.516     2.481
    63   1 H        0.925     0.035     2.515     2.480
    64   1 H        0.925     0.032     2.562     2.503
    65   1 H        0.925     0.037     2.489     2.467
    66   1 H        0.925     0.037     2.488     2.467
    67   1 H        0.925     0.032     2.565     2.504
    68   1 H        0.925     0.035     2.516     2.480
    69   1 H        0.926     0.028     2.614     2.529
    70   1 H        0.926     0.024     2.667     2.554
    71   1 H        0.926     0.036     2.501     2.473
    72   1 H        0.926     0.036     2.504     2.474
    73   1 H        0.925     0.031     2.565     2.505
    74   1 H        0.925     0.035     2.513     2.479
    75   1 H        0.925     0.037     2.487     2.466
    76   1 H        0.925     0.035     2.517     2.481
    77   1 H        0.925     0.035     2.519     2.482
    78   1 H        0.925     0.036     2.505     2.475
    79   1 H        0.925     0.032     2.564     2.504
    80   1 H        0.925     0.036     2.509     2.477
    81   1 H        0.925     0.037     2.489     2.467
    82   1 H        0.926     0.029     2.607     2.525
    83   1 H        0.926     0.025     2.665     2.553
    84   1 H        0.926     0.040     2.445     2.445
    85   1 H        0.926     0.039     2.458     2.452
    86   1 H        0.926     0.034     2.524     2.484
    87   1 H        0.926     0.034     2.535     2.490
    88   1 H        0.926     0.027     2.625     2.534
    89   1 H        0.926     0.026     2.642     2.542
    90   1 H        0.926     0.031     2.570     2.507
    91   1 H        0.926     0.031     2.569     2.506
    92   1 H        0.926     0.032     2.561     2.503
    93   1 H        0.926     0.026     2.645     2.543
    94   1 H        0.926     0.027     2.630     2.536
    95   1 H        0.926     0.030     2.587     2.515
    96   1 H        0.926     0.030     2.592     2.517
    97   1 H        0.926     0.041     2.433     2.439
    98   1 H        0.926     0.042     2.419     2.432
    99   1 H        0.926     0.042     2.421     2.433
   100   1 H        0.926     0.042     2.421     2.433
   101   1 H        0.926     0.039     2.469     2.457
   102   1 H        0.926     0.028     2.613     2.528
   103   1 H        0.926     0.030     2.584     2.514
   104   1 H        0.926     0.027     2.623     2.533
   105   1 H        0.926     0.026     2.639     2.540
   106   1 H        0.926     0.037     2.483     2.464
   107   1 H        0.926     0.040     2.444     2.445

molecular dipole:
                 x           y           z       tot (Debye)
 q only:       -0.189      -0.728      -0.032
   full:       -0.049      -0.666      -0.033       1.700

 projected vibrational frequencies (cm⁻¹)
eigval :       -0.00    -0.00     0.00     0.00     0.00     0.00
eigval :        6.30     7.36    12.36    15.75    24.53    26.02
eigval :       31.89    34.79    40.23    47.92    52.39    53.71
eigval :       56.83    68.88    71.38    76.58    79.87    93.68
eigval :       99.57   115.70   118.14   122.48   141.02   151.84
eigval :      159.93   173.08   175.32   181.60   194.29   202.04
eigval :      203.01   219.31   220.69   225.39   229.58   238.84
eigval :      248.49   253.28   259.73   260.47   268.84   276.90
eigval :      284.84   293.58   315.45   320.23   324.35   336.68
eigval :      349.73   359.98   362.66   372.93   375.57   377.26
eigval :      382.71   383.83   388.28   398.16   402.20   403.52
eigval :      411.00   411.97   423.42   433.98   441.73   443.12
eigval :      448.16   458.31   460.87   464.80   467.61   481.31
eigval :      489.53   499.76   506.92   509.91   514.65   519.09
eigval :      532.69   571.35   577.94   582.83   583.56   589.76
eigval :      592.95   594.11   605.11   610.12   617.43   621.41
eigval :      633.46   634.94   640.59   671.83   673.27   675.49
eigval :      680.19   687.46   692.32   695.45   706.88   710.15
eigval :      719.54   727.20   731.36   738.42   763.71   770.98
eigval :      777.38   777.80   798.77   811.49   820.85   823.24
eigval :      830.34   836.04   859.87   868.09   869.73   872.24
eigval :      873.12   874.62   877.69   879.47   880.78   895.00
eigval :      902.76   905.78   907.62   909.34   910.74   911.13
eigval :      912.38   913.77   915.13   920.54   921.20   923.95
eigval :      924.02   927.54   929.04   929.26   931.37   932.95
eigval :      936.77   946.96   950.61   958.19   959.70   960.05
eigval :      961.20   962.29   964.62   995.38  1006.51  1015.26
eigval :     1030.11  1034.49  1034.82  1035.33  1040.82  1074.67
eigval :     1077.92  1079.66  1090.54  1105.35  1107.38  1113.49
eigval :     1115.34  1123.90  1127.76  1134.82  1140.89  1142.47
eigval :     1151.63  1171.64  1174.96  1180.06  1180.12  1182.68
eigval :     1183.44  1185.16  1188.59  1191.82  1208.79  1211.85
eigval :     1225.37  1225.46  1227.54  1228.78  1229.41  1230.06
eigval :     1236.82  1239.28  1243.42  1256.95  1258.81  1266.65
eigval :     1267.54  1270.71  1273.38  1277.90  1283.61  1297.06
eigval :     1306.74  1308.31  1309.31  1313.60  1314.87  1324.95
eigval :     1325.56  1332.49  1333.86  1345.61  1357.67  1362.87
eigval :     1377.79  1398.91  1400.51  1402.03  1403.12  1404.60
eigval :     1413.23  1420.19  1425.26  1427.41  1430.38  1434.86
eigval :     1437.82  1437.97  1441.52  1451.38  1468.90  1470.60
eigval :     1474.49  1481.04  1483.99  1488.55  1489.60  1492.08
eigval :     1492.68  1492.76  1499.02  1499.45  1500.65  1501.80
eigval :     1502.97  1511.38  1511.53  1517.64  1518.56  1556.60
eigval :     1569.24  1571.11  1575.37  1580.55  1581.93  1583.93
eigval :     1586.89  1589.67  1592.01  1592.44  1599.92  1602.20
eigval :     1603.19  1606.58  1616.30  3017.50  3017.56  3018.44
eigval :     3018.50  3021.99  3022.08  3023.52  3023.80  3025.73
eigval :     3025.89  3029.53  3029.79  3034.46  3034.59  3043.09
eigval :     3043.18  3046.35  3046.43  3068.47  3071.46  3072.25
eigval :     3073.48  3073.80  3074.23  3074.48  3075.54  3076.95
eigval :     3077.07  3077.28  3077.79  3079.18  3079.43  3082.85
eigval :     3084.84  3085.35  3087.23  3088.06  3088.38  3088.48
eigval :     3088.84  3089.31  3090.37  3092.01  3096.44  3097.44
eigval :     3101.22  3112.67  3115.48

   temp. (K)  partition function   enthalpy   heat capacity  entropy
                                   cal/mol     cal/K/mol   cal/K/mol   J/K/mol
 298.15  VIB  0.463E+24            30013.347    188.804    186.942
         ROT  0.177E+09              888.752      2.981     40.726
         INT  0.821E+32            30902.099    191.784    227.669
         TR   0.203E+29             1481.254      4.968     45.747
         TOT                       32383.3530   196.7526   273.4152  1143.9691

       T/K    H(0)-H(T)+PV         H(T)/Eh          T*S/Eh         G(T)/Eh
   ------------------------------------------------------------------------
    298.15    0.516062E-01    0.915564E+00    0.129908E+00    0.785656E+00
   ------------------------------------------------------------------------

         :::::::::::::::::::::::::::::::::::::::::::::::::::::
         ::                  THERMODYNAMIC                  ::
         :::::::::::::::::::::::::::::::::::::::::::::::::::::
         :: total free energy        -151.769047220886 Eh   ::
         ::.................................................::
         :: total energy             -152.554702881534 Eh   ::
         :: zero point energy           0.863957880748 Eh   ::
         :: G(RRHO) w/o ZPVE           -0.078302220100 Eh   ::
         :: G(RRHO) contrib.            0.785655660648 Eh   ::
         :::::::::::::::::::::::::::::::::::::::::::::::::::::

           -------------------------------------------------
          | TOTAL ENERGY             -152.554702881534 Eh   |
          | TOTAL ENTHALPY           -151.639138842892 Eh   |
          | TOTAL FREE ENERGY        -151.769047220886 Eh   |
          | GRADIENT NORM               0.000061960048 Eh/α |
          | HOMO-LUMO GAP               2.375717777387 eV   |
           -------------------------------------------------

 * finished run on 2025/08/26 at 12:06:38.429
