   * xtb version 6.7.1 (edcfbbe) compiled by 'albert@albert-system' on 2024-07-22

   ID    Z sym.   atoms
    1    6 C      1-20, 22-44, 46-59
    2    7 N      21, 45
    3    1 H      60-107

          program call               : xtb data2507/toluene/SAF-CzB/SAF-CzB.xyz --gfn 2 --gbsa toluene --ohess vtight --parallel 40 --molden --ceasefiles --namespace data2507/toluene/SAF-CzB/SAF-CzB_toluene_S0_preOpt
      * Solvation model:               GBSA
        Solvent                        toluene
        Solvent mass                       9.2140E+01 g/mol
          :  Hamiltonian                  GFN2-xTB          :
 * total energy  :  -152.5272703 Eh     change       -0.3052719E-08 Eh
 * total energy  :  -152.5461165 Eh     change       -0.1884622E-01 Eh
 * total energy  :  -152.5520357 Eh     change       -0.5919224E-02 Eh
 * total energy  :  -152.5532454 Eh     change       -0.1209626E-02 Eh
 * total energy  :  -152.5538480 Eh     change       -0.6026685E-03 Eh
 * total energy  :  -152.5540233 Eh     change       -0.1752939E-03 Eh
 * total energy  :  -152.5540989 Eh     change       -0.7561363E-04 Eh
 * total energy  :  -152.5541498 Eh     change       -0.5085585E-04 Eh
 * total energy  :  -152.5542041 Eh     change       -0.5426372E-04 Eh
 * total energy  :  -152.5542364 Eh     change       -0.3230577E-04 Eh
 * total energy  :  -152.5546397 Eh     change       -0.9081008E-06 Eh
 * total energy  :  -152.5546405 Eh     change       -0.7817051E-06 Eh
 * total energy  :  -152.5546412 Eh     change       -0.7222244E-06 Eh
 * total energy  :  -152.5546419 Eh     change       -0.7148775E-06 Eh
 * total energy  :  -152.5546427 Eh     change       -0.7654611E-06 Eh
 * total energy  :  -152.5546435 Eh     change       -0.8722321E-06 Eh
 * total energy  :  -152.5546445 Eh     change       -0.1002765E-05 Eh
 * total energy  :  -152.5546457 Eh     change       -0.1131192E-05 Eh
 * total energy  :  -152.5546457 Eh     change       -0.5853252E-08 Eh
   *** GEOMETRY OPTIMIZATION CONVERGED AFTER 94 ITERATIONS ***

 final structure:
================
107
 xtb: 6.7.1 (edcfbbe)
C           -9.68426982648162        2.07339092966077        0.01834370128499
C           -8.53188314947236        3.08196914188241       -0.02310880808306
C           -8.64458078148857        3.98202688290778        1.21671650308939
C           -8.68566863694038        3.92867845123407       -1.29537227593724
C           -7.16534483052895        2.40982293971457       -0.02810499118317
C           -6.01592417568533        3.21153062308164       -0.05557138018091
C           -4.73702093745250        2.69265836743161       -0.04338447199012
C           -4.59180951951508        1.31447895974894        0.00846279595887
C           -5.73202489652829        0.48382877213268       -0.00046182978374
C           -7.00761132434173        1.03354694070613       -0.01338586453032
C           -5.24924868228556       -0.87011049681027       -0.00236472283279
C           -5.88235196299144       -2.10321039583176       -0.00280275588169
C           -5.13287573207023       -3.27232499419875        0.01346482209643
C           -5.85317239290946       -4.61467055812709       -0.00443304683930
C           -6.74029347349087       -4.72425962582934        1.24480562187793
C           -6.72342738069968       -4.70052349850698       -1.26758678814658
C           -4.89259197020396       -5.80792380904042       -0.01147635220498
C           -3.73952888311194       -3.16744417103295        0.05761581984361
C           -3.08133996398701       -1.95074775447479        0.06036261982114
C           -3.83901801498724       -0.79257396559279        0.00647629333399
N           -3.45037764926839        0.53436122988984        0.01326849895208
C           -2.13220968492734        1.00687556817493        0.02707939308128
C           -1.75073663781497        2.00403818559504        0.92215509580572
C           -0.45491488973262        2.47920115796526        0.92280817917581
C            0.50021128088458        1.95584089139042        0.05341870974410
C            1.88185776290477        2.45637570395470        0.05893766967676
C            2.13393228987855        3.82767101494225        0.11134151638752
C            3.42463920547628        4.32576915786117        0.09334240548623
C            4.48336064480109        3.43353790604562        0.03644035896677
C            4.23712037836269        2.05307518901882        0.00364665896123
C            2.95332890708995        1.56126547419732        0.00476303944901
C            5.53862419521872        1.27325544985014       -0.02429969470745
C            6.55648434449983        2.39843586202986       -0.04658102565026
C            7.92988767940001        2.30661011619738       -0.09821080569989
C            8.67452055201123        3.47915973744419       -0.10684709976051
C            8.05024349225426        4.71675521643039       -0.06181353047144
C            6.66878835815447        4.81470185078855       -0.00791268848755
C            5.92106479652645        3.64822065729089       -0.00186866497945
C            5.63663874799016        0.43081313388847       -1.27308849554747
C            5.52265851772722        1.05461383127843       -2.50646677839176
C            5.60373465379710        0.33770852890701       -3.68643385532452
C            5.80399540881245       -1.03138050289985       -3.63206325741843
C            5.91957727786896       -1.66980637235808       -2.41382968641497
C            5.83886773030468       -0.95148291421420       -1.21711136566565
N            5.95735205492090       -1.60490048567222       -0.00155291694648
C            6.18577962600499       -3.01256080783307        0.01061121108038
C            7.48563096968936       -3.50257846387513        0.00028697741627
C            7.70616050297595       -4.86882077820135        0.01703249994928
C            6.63381534960420       -5.74554619656896        0.04414180641661
C            5.33775229312030       -5.25634788973022        0.05346337664101
C            5.11005101295856       -3.89113502711205        0.03671024207929
C            5.88409195830255       -0.92646021757421        1.20405206763471
C            6.00676461325360       -1.62103314871854        2.41130041814191
C            5.93733653071880       -0.95875917029155        3.62005128653320
C            5.74220004477744        0.41155316897377        3.65415942293486
C            5.61791741484153        1.10468678630297        2.46397899558171
C            5.68487900088122        0.45676944527819        1.23956910114809
C            0.11443588553970        0.94778838121855       -0.82831981063296
C           -1.18625778131919        0.48656554605024       -0.85342285658908
H           -9.63394170003591        1.45876935040886        0.91451622789028
H          -10.63262572744133        2.60739253183650        0.02997844440973
H           -9.67294262831274        1.42938256290219       -0.85823572827876
H           -7.89040744947050        4.76420651822833        1.20972729702460
H           -8.51526069487736        3.39213401484858        2.12231096236853
H           -9.62439174140867        4.45449963615323        1.24943562641316
H           -9.66596322567823        4.40088762304697       -1.31510309458319
H           -8.58658407671544        3.30099456905496       -2.17909879687753
H           -7.93151794196277        4.70927842809081       -1.34668329437088
H           -6.12103574365014        4.28543241263765       -0.09024176521324
H           -3.87991492700332        3.34816020338640       -0.08379684478937
H           -7.85505882773928        0.36840419345720       -0.01438094632653
H           -6.96108289743314       -2.13492636548316       -0.01309071804773
H           -7.48821504926219       -3.93637011722516        1.26922658960018
H           -6.13355138011398       -4.64531937948709        2.14505633885138
H           -7.25449639649622       -5.68329989260049        1.25752865771062
H           -6.10491720687474       -4.60186827125491       -2.15783274840436
H           -7.47402994022772       -3.91521589873159       -1.28690744109059
H           -7.23443253276412       -5.66056018681192       -1.30682061356139
H           -4.27738385794879       -5.82228582010283        0.88541954443106
H           -5.46604027601974       -6.73265986707986       -0.03896159648946
H           -4.24795711628526       -5.78653406818186       -0.88748110001571
H           -3.13430627297413       -4.05830811102935        0.09429974065220
H           -2.00339823939780       -1.91553708155015        0.11384010317531
H           -2.47219030781519        2.39303771664358        1.62520435743857
H           -0.16903426469205        3.24571149527431        1.62827677847470
H            1.29919632200965        4.51312189640553        0.14117227075006
H            3.59989649033443        5.39126332567275        0.12028784637645
H            2.77032171587724        0.49644606382386       -0.01447117803046
H            8.41898531692769        1.34354906526104       -0.13305515307948
H            9.75284187201259        3.42675016893001       -0.14938829371328
H            8.64947573098636        5.61603646856548       -0.06927411623590
H            6.18685828504350        5.78081095612064        0.02612782269280
H            5.36757681615059        2.12405200461787       -2.53517785729818
H            5.51297344704856        0.84249904699939       -4.63632766043245
H            5.87028036760724       -1.60886892202657       -4.54264131673615
H            6.07616502915215       -2.73734765505658       -2.38359935475236
H            8.31359922503925       -2.80904505999759       -0.01928810317334
H            8.71709565304561       -5.24849801910703        0.00975882262697
H            6.80854449113999       -6.81101053271852        0.05822863092078
H            4.50118442739025       -5.93895279756114        0.07473616410280
H            4.10375709378900       -3.49831739201337        0.04519800406106
H            6.15856669326230       -2.68952620520744        2.39688431110679
H            6.03581941180990       -1.51831621864679        4.53882567029243
H            5.68779186215751        0.93588338687488        4.59616329304636
H            5.46457890854064        2.17438792373731        2.47911385545518
H            0.83709309741078        0.54501193122134       -1.52334903997543
H           -1.48113713744592       -0.26831458725254       -1.56704288660969

          :  Hamiltonian                  GFN2-xTB          :
         :: gradient norm              0.000065480841 Eh/a0 ::
         :: HOMO-LUMO gap              2.396762609380 eV    ::
         :: SCC energy              -155.367949679613 Eh    ::
         :: -> dispersion             -0.148651704841 Eh    ::
         :: -> Gsolv                  -0.059388130954 Eh    ::
         :: repulsion energy           2.813304000898 Eh    ::

    * Orbital Energies and Occupations

         #    Occupation            Energy/Eh            Energy/eV
      -------------------------------------------------------------
         1        2.0000           -0.6698945             -18.2288
       ...           ...                  ...                  ...
       131        2.0000           -0.4082994             -11.1104
       132        2.0000           -0.4058884             -11.0448
       133        2.0000           -0.4048713             -11.0171
       134        2.0000           -0.4039972             -10.9933
       135        2.0000           -0.4025860             -10.9549
       136        2.0000           -0.3956798             -10.7670
       137        2.0000           -0.3947273             -10.7411
       138        2.0000           -0.3927416             -10.6870
       139        2.0000           -0.3912682             -10.6470
       140        2.0000           -0.3752715             -10.2117
       141        2.0000           -0.3708221             -10.0906
       142        2.0000           -0.3526089              -9.5950
       143        2.0000           -0.3469215              -9.4402 (HOMO)
       144                         -0.2588421              -7.0435 (LUMO)
       145                         -0.2385365              -6.4909
       146                         -0.2353573              -6.4044
       147                         -0.2341816              -6.3724
       148                         -0.2302074              -6.2643
       149                         -0.2273905              -6.1876
       150                         -0.2264839              -6.1629
       151                         -0.2241520              -6.0995
       152                         -0.2217254              -6.0335
       153                         -0.2205784              -6.0022
       154                         -0.2149967              -5.8504
       ...                                ...                  ...
       284                          0.7470945              20.3295
      -------------------------------------------------------------
                  HL-Gap            0.0880794 Eh            2.3968 eV

     #   Z          covCN         q      C6AA      α(0)
     1   6 C        3.761    -0.106    22.568     6.772
     2   6 C        3.902     0.025    20.105     6.374
     3   6 C        3.761    -0.104    22.537     6.767
     4   6 C        3.761    -0.104    22.537     6.767
     5   6 C        2.972    -0.004    28.115     8.698
     6   6 C        2.931    -0.041    29.022     8.835
     7   6 C        2.908    -0.055    29.371     8.887
     8   6 C        3.078     0.044    26.927     8.508
     9   6 C        3.065    -0.022    28.484     8.752
    10   6 C        2.918    -0.046    29.133     8.851
    11   6 C        3.066    -0.021    28.471     8.750
    12   6 C        2.920    -0.042    29.033     8.836
    13   6 C        2.971    -0.004    28.115     8.697
    14   6 C        3.902     0.025    20.105     6.374
    15   6 C        3.761    -0.104    22.533     6.767
    16   6 C        3.761    -0.104    22.536     6.767
    17   6 C        3.761    -0.106    22.574     6.773
    18   6 C        2.928    -0.046    29.136     8.852
    19   6 C        2.909    -0.056    29.385     8.889
    20   6 C        3.076     0.044    26.934     8.509
    21   7 N        2.800    -0.051    22.220     7.001
    22   6 C        2.912     0.063    26.587     8.455
    23   6 C        2.920    -0.045    29.109     8.848
    24   6 C        2.924    -0.034    28.847     8.808
    25   6 C        2.977     0.006    27.872     8.660
    26   6 C        2.979     0.007    27.857     8.658
    27   6 C        2.926    -0.039    28.957     8.825
    28   6 C        2.913    -0.036    28.896     8.815
    29   6 C        3.034    -0.002    28.038     8.685
    30   6 C        3.055     0.002    27.939     8.668
    31   6 C        2.919    -0.038    28.951     8.823
    32   6 C        3.949     0.013    20.288     6.400
    33   6 C        3.058     0.002    27.936     8.668
    34   6 C        2.914    -0.034    28.836     8.806
    35   6 C        2.922    -0.033    28.825     8.804
    36   6 C        2.921    -0.034    28.841     8.807
    37   6 C        2.914    -0.036    28.889     8.814
    38   6 C        3.034     0.000    27.987     8.677
    39   6 C        2.982    -0.010    28.255     8.719
    40   6 C        2.926    -0.036    28.906     8.817
    41   6 C        2.917    -0.045    29.122     8.849
    42   6 C        2.919    -0.034    28.845     8.807
    43   6 C        2.924    -0.059    29.467     8.902
    44   6 C        2.925     0.060    26.645     8.465
    45   7 N        2.753    -0.074    22.680     7.073
    46   6 C        2.927     0.068    26.476     8.438
    47   6 C        2.921    -0.037    28.926     8.820
    48   6 C        2.920    -0.027    28.685     8.783
    49   6 C        2.920    -0.030    28.741     8.791
    50   6 C        2.920    -0.027    28.686     8.783
    51   6 C        2.921    -0.037    28.928     8.820
    52   6 C        2.925     0.060    26.645     8.465
    53   6 C        2.924    -0.059    29.468     8.902
    54   6 C        2.919    -0.034    28.846     8.807
    55   6 C        2.917    -0.045    29.121     8.849
    56   6 C        2.926    -0.037    28.913     8.818
    57   6 C        2.983    -0.009    28.245     8.718
    58   6 C        2.924    -0.033    28.834     8.806
    59   6 C        2.920    -0.045    29.107     8.847
    60   1 H        0.925     0.035     2.517     2.481
    61   1 H        0.925     0.036     2.502     2.474
    62   1 H        0.925     0.035     2.520     2.482
    63   1 H        0.925     0.035     2.512     2.478
    64   1 H        0.925     0.032     2.562     2.503
    65   1 H        0.925     0.037     2.488     2.467
    66   1 H        0.925     0.037     2.486     2.466
    67   1 H        0.925     0.032     2.563     2.504
    68   1 H        0.925     0.035     2.515     2.480
    69   1 H        0.926     0.028     2.609     2.526
    70   1 H        0.926     0.025     2.656     2.548
    71   1 H        0.926     0.035     2.511     2.478
    72   1 H        0.926     0.029     2.603     2.523
    73   1 H        0.925     0.035     2.511     2.478
    74   1 H        0.925     0.031     2.567     2.506
    75   1 H        0.925     0.037     2.488     2.466
    76   1 H        0.925     0.031     2.566     2.505
    77   1 H        0.925     0.036     2.509     2.477
    78   1 H        0.925     0.037     2.491     2.468
    79   1 H        0.925     0.035     2.520     2.482
    80   1 H        0.925     0.036     2.499     2.472
    81   1 H        0.925     0.035     2.518     2.482
    82   1 H        0.926     0.036     2.507     2.476
    83   1 H        0.926     0.025     2.660     2.551
    84   1 H        0.926     0.040     2.444     2.445
    85   1 H        0.926     0.039     2.466     2.456
    86   1 H        0.926     0.034     2.533     2.489
    87   1 H        0.926     0.033     2.544     2.494
    88   1 H        0.926     0.027     2.636     2.539
    89   1 H        0.926     0.024     2.667     2.554
    90   1 H        0.926     0.031     2.570     2.507
    91   1 H        0.926     0.031     2.566     2.505
    92   1 H        0.926     0.032     2.558     2.501
    93   1 H        0.926     0.025     2.665     2.553
    94   1 H        0.926     0.027     2.633     2.537
    95   1 H        0.926     0.030     2.588     2.516
    96   1 H        0.926     0.028     2.610     2.526
    97   1 H        0.926     0.041     2.441     2.443
    98   1 H        0.926     0.043     2.410     2.427
    99   1 H        0.926     0.043     2.413     2.429
   100   1 H        0.926     0.043     2.408     2.427
   101   1 H        0.926     0.041     2.434     2.440
   102   1 H        0.926     0.029     2.607     2.525
   103   1 H        0.926     0.030     2.586     2.515
   104   1 H        0.926     0.027     2.631     2.537
   105   1 H        0.926     0.025     2.659     2.550
   106   1 H        0.926     0.037     2.486     2.466
   107   1 H        0.926     0.040     2.448     2.446

molecular dipole:
                 x           y           z       tot (Debye)
 q only:        0.282      -0.854       0.021
   full:        0.393      -0.770       0.021       2.200

 projected vibrational frequencies (cm⁻¹)
eigval :       -0.00    -0.00    -0.00     0.00     0.00     0.00
eigval :        7.74     9.21    12.76    14.74    22.72    26.78
eigval :       33.48    35.04    39.81    46.05    48.00    51.87
eigval :       58.65    68.87    69.98    73.00    76.73    95.43
eigval :       97.66   117.74   120.52   126.46   134.71   146.94
eigval :      158.58   172.41   175.98   180.73   193.28   197.74
eigval :      199.17   218.10   220.96   227.23   235.50   240.17
eigval :      249.11   251.28   253.02   261.19   267.49   275.24
eigval :      281.91   303.26   316.95   318.25   323.57   333.24
eigval :      347.61   355.81   361.45   374.18   378.05   380.66
eigval :      385.78   387.37   387.60   395.95   400.31   404.54
eigval :      411.08   416.72   422.29   429.21   440.35   443.16
eigval :      445.47   459.83   462.48   466.24   466.29   479.25
eigval :      488.56   500.32   505.24   509.52   514.06   519.17
eigval :      533.60   570.33   578.68   580.98   581.41   591.76
eigval :      592.22   597.19   603.32   605.54   615.52   622.44
eigval :      635.42   636.70   638.48   671.06   672.69   676.72
eigval :      682.56   686.38   689.40   693.88   705.34   708.01
eigval :      719.85   728.30   731.49   737.96   763.89   769.94
eigval :      774.73   777.63   798.60   813.20   820.45   823.67
eigval :      831.67   838.52   864.54   865.34   870.58   872.73
eigval :      876.56   877.34   877.85   881.28   885.37   895.43
eigval :      901.12   905.05   907.74   908.57   909.33   909.93
eigval :      913.32   913.91   916.50   918.52   918.61   918.85
eigval :      924.25   925.47   929.14   929.52   930.45   933.14
eigval :      938.97   949.44   951.19   957.69   959.26   961.69
eigval :      961.90   962.74   963.38   995.75  1005.74  1015.22
eigval :     1032.12  1034.38  1034.92  1035.80  1039.41  1074.16
eigval :     1078.31  1078.69  1091.05  1106.41  1108.90  1114.19
eigval :     1116.15  1125.09  1129.41  1138.09  1141.33  1142.62
eigval :     1154.09  1173.82  1176.65  1177.91  1178.35  1183.06
eigval :     1183.25  1184.99  1191.44  1192.98  1204.86  1213.40
eigval :     1224.16  1224.86  1225.59  1227.04  1230.74  1233.01
eigval :     1235.32  1236.78  1247.58  1252.70  1257.94  1266.79
eigval :     1267.93  1273.62  1274.26  1277.09  1284.12  1296.66
eigval :     1304.60  1307.22  1307.91  1313.57  1316.91  1324.92
eigval :     1325.76  1334.16  1338.10  1345.67  1360.06  1362.40
eigval :     1376.82  1398.73  1401.56  1402.78  1403.00  1403.67
eigval :     1413.40  1420.36  1426.75  1427.13  1430.23  1434.41
eigval :     1436.49  1436.86  1440.63  1449.98  1469.00  1469.92
eigval :     1473.89  1480.18  1482.38  1489.20  1489.54  1491.68
eigval :     1492.24  1495.05  1498.79  1499.89  1501.00  1502.84
eigval :     1503.04  1511.05  1511.58  1517.98  1518.20  1556.76
eigval :     1569.91  1571.63  1575.57  1581.96  1582.05  1585.67
eigval :     1587.84  1590.45  1592.37  1593.16  1599.98  1602.41
eigval :     1603.39  1605.38  1617.46  3017.16  3017.71  3018.21
eigval :     3019.18  3021.84  3022.40  3023.30  3023.97  3025.56
eigval :     3026.21  3029.36  3029.53  3034.23  3034.39  3043.56
eigval :     3043.85  3046.85  3047.21  3067.74  3071.54  3072.37
eigval :     3072.50  3073.24  3073.70  3074.16  3075.73  3076.24
eigval :     3077.39  3077.64  3078.47  3078.61  3078.74  3079.28
eigval :     3084.26  3085.55  3085.59  3087.66  3088.85  3088.92
eigval :     3089.26  3089.74  3090.04  3092.38  3096.46  3096.92
eigval :     3098.34  3113.08  3115.24

   temp. (K)  partition function   enthalpy   heat capacity  entropy
                                   cal/mol     cal/K/mol   cal/K/mol   J/K/mol
 298.15  VIB  0.403E+24            30044.454    188.664    186.871
         ROT  0.196E+09              888.752      2.981     40.929
         INT  0.791E+32            30933.207    191.645    227.800
         TR   0.203E+29             1481.254      4.968     45.747
         TOT                       32414.4604   196.6134   273.5470  1144.5208

       T/K    H(0)-H(T)+PV         H(T)/Eh          T*S/Eh         G(T)/Eh
   ------------------------------------------------------------------------
    298.15    0.516557E-01    0.915570E+00    0.129971E+00    0.785599E+00
   ------------------------------------------------------------------------

         :::::::::::::::::::::::::::::::::::::::::::::::::::::
         ::                  THERMODYNAMIC                  ::
         :::::::::::::::::::::::::::::::::::::::::::::::::::::
         :: total free energy        -151.769046665278 Eh   ::
         ::.................................................::
         :: total energy             -152.554645673908 Eh   ::
         :: zero point energy           0.863914299988 Eh   ::
         :: G(RRHO) w/o ZPVE           -0.078315291358 Eh   ::
         :: G(RRHO) contrib.            0.785599008630 Eh   ::
         :::::::::::::::::::::::::::::::::::::::::::::::::::::

           -------------------------------------------------
          | TOTAL ENERGY             -152.554645673908 Eh   |
          | TOTAL ENTHALPY           -151.639075643198 Eh   |
          | TOTAL FREE ENERGY        -151.769046665278 Eh   |
          | GRADIENT NORM               0.000065479992 Eh/α |
          | HOMO-LUMO GAP               2.396762657113 eV   |
           -------------------------------------------------

 * finished run on 2025/08/26 at 11:49:10.779
