   * xtb version 6.7.1 (edcfbbe) compiled by 'albert@albert-system' on 2024-07-22

   ID    Z sym.   atoms
    1    6 C      1-9, 11-23, 25-28
    2    7 N      10, 24
    3    1 H      29-48

          program call               : xtb data2507/toluene/BACN/BACN_toluene_T1_crest.xyz --gfn 2 --uhf 2 --gbsa toluene --ohess vtight --parallel 40 --molden --ceasefiles --namespace data2507/toluene/BACN/BACN_toluene_T1_finalOpt
      * Solvation model:               GBSA
        Solvent                        toluene
        Solvent mass                       9.2140E+01 g/mol
          :  Hamiltonian                  GFN2-xTB          :
 * total energy  :   -71.6556109 Eh     change       -0.2917645E-08 Eh
 * total energy  :   -71.6556575 Eh     change       -0.4653558E-04 Eh
 * total energy  :   -71.6556656 Eh     change       -0.8113142E-05 Eh
 * total energy  :   -71.6556624 Eh     change        0.3184240E-05 Eh
 * total energy  :   -71.6556691 Eh     change       -0.6662726E-05 Eh
 * total energy  :   -71.6556689 Eh     change        0.1734565E-06 Eh
 * total energy  :   -71.6556697 Eh     change       -0.7783485E-06 Eh
 * total energy  :   -71.6556705 Eh     change       -0.8080616E-06 Eh
 * total energy  :   -71.6556715 Eh     change       -0.1032657E-05 Eh
 * total energy  :   -71.6556727 Eh     change       -0.1142517E-05 Eh
 * total energy  :   -71.6556751 Eh     change       -0.6394176E-06 Eh
 * total energy  :   -71.6556757 Eh     change       -0.6061589E-06 Eh
 * total energy  :   -71.6556762 Eh     change       -0.4882203E-06 Eh
 * total energy  :   -71.6556766 Eh     change       -0.3656064E-06 Eh
 * total energy  :   -71.6556769 Eh     change       -0.3134557E-06 Eh
 * total energy  :   -71.6556771 Eh     change       -0.2230472E-06 Eh
 * total energy  :   -71.6556772 Eh     change       -0.1309855E-06 Eh
 * total energy  :   -71.6556774 Eh     change       -0.1143925E-06 Eh
 * total energy  :   -71.6556774 Eh     change       -0.1048207E-08 Eh
   *** GEOMETRY OPTIMIZATION CONVERGED AFTER 22 ITERATIONS ***

 final structure:
================
48
 xtb: 6.7.1 (edcfbbe)
C            0.63535421206001       -2.52155657525429       -1.45165706702954
C            0.26176254587715       -1.97093461251516       -0.04927253831114
C            0.88051680228595       -2.80587865345114        1.10533852029867
C           -1.23879949636733       -2.13292053564243        0.03019532420812
C           -1.78651903972246       -3.40800023676546        0.06092200354340
C           -3.15395046899305       -3.61312542369284        0.08616488498615
C           -4.01353901948312       -2.51838885546967        0.07357576867420
C           -3.50303618335147       -1.24410310655782        0.04674737983483
C           -2.11105284678488       -1.03009095427330        0.03054252343722
N           -1.60531491943934        0.24181454786661        0.02256056827004
C           -2.52879085346283        1.33162084217820       -0.00641172492742
C           -2.91884939246090        1.86774047350700       -1.22661949743682
C           -3.81907247029707        2.91894035340197       -1.25463579322704
C           -4.32860276232481        3.43118405373605       -0.07255237160615
C           -3.93856969542307        2.89198431752585        1.14276993706047
C           -3.03904920368976        1.84065383334590        1.18105680257533
C           -0.26053769087082        0.52684243267077        0.04991285686637
C            0.14887124130419        1.86081749075213        0.10898009851483
C            1.47515562253531        2.19320669884410        0.12798210287766
C            2.48481901848134        1.18678025143303        0.07322851153084
C            3.81878038210130        1.54534581664811        0.07858041076857
C            4.85052626271416        0.55808559334767        0.01684805554881
C            6.19102822466299        0.92440059609636        0.02358725974289
N            7.30908971044178        1.22779953045349        0.02981033791316
C            4.47100176076554       -0.78412882279130       -0.05073883147864
C            3.14782608610850       -1.15169862194113       -0.05234696362920
C            2.08178591354558       -0.19144856808217        0.01229016100125
C            0.72386241269098       -0.53343439309089        0.01895434360996
H            0.42575664196599       -3.58597219326462       -1.50923554523620
H            1.68033531322666       -2.35138798376306       -1.68735018211155
H            0.03622102356036       -2.01450886359294       -2.20680748539965
H            0.11133235399524       -3.06137943383003        1.83130787166328
H            1.64623870448732       -2.24484837018007        1.63200321944447
H            1.31711116784813       -3.72959026897892        0.73487625715210
H           -1.13054057438648       -4.26441458392178        0.06899624255139
H           -3.55025403005073       -4.61638977231678        0.11152654337438
H           -5.08256905755744       -2.66762814875652        0.08628873847053
H           -4.17135947469220       -0.39790594500231        0.03892289370773
H           -2.51408150213856        1.46181598488632       -2.14169183309561
H           -4.12222379319593        3.33666691428372       -2.20273667517573
H           -5.02995564739413        4.25133783901126       -0.09851058650135
H           -4.33435709878337        3.28945591541042        2.06509877887075
H           -2.72617057145726        1.41375767991084        2.12228592294865
H           -0.59069865016895        2.64519303281342        0.14294730973987
H            1.78006755955117        3.22714443293570        0.17802247722520
H            4.09732305735244        2.58809011442442        0.12796527672961
H            5.23905683785887       -1.54454209932681       -0.10196335729328
H            2.93469319657517       -2.20300237212179       -0.10305366598069

          :  Hamiltonian                  GFN2-xTB          :
         :: gradient norm              0.000040688627 Eh/a0 ::
         :: HOMO-LUMO gap              0.739121416779 eV    ::
         :: SCC energy               -72.988608738154 Eh    ::
         :: -> dispersion             -0.064548949723 Eh    ::
         :: -> Gsolv                  -0.037967606035 Eh    ::
         :: repulsion energy           1.332931383009 Eh    ::

    * Orbital Energies and Occupations

         #    Occupation            Energy/Eh            Energy/eV
      -------------------------------------------------------------
         1        2.0000           -0.6876108             -18.7108
       ...           ...                  ...                  ...
        56        2.0000           -0.4353404             -11.8462
        57        2.0000           -0.4288940             -11.6708
        58        2.0000           -0.4240166             -11.5381
        59        2.0000           -0.4220282             -11.4840
        60        2.0000           -0.4182632             -11.3815
        61        2.0000           -0.4177212             -11.3668
        62        2.0000           -0.4102954             -11.1647
        63        2.0000           -0.4068551             -11.0711
        64        2.0000           -0.4027663             -10.9598
        65        2.0000           -0.4025410             -10.9537
        66        2.0000           -0.3825342             -10.4093
        67        1.0000           -0.3544719              -9.6457
        68        1.0000           -0.2715303              -7.3887 (HOMO)
        69        0.0000           -0.2443681              -6.6496 (LUMO)
        70                         -0.2426237              -6.6021
        71                         -0.2405422              -6.5455
        72                         -0.2319714              -6.3123
        73                         -0.2257957              -6.1442
        74                         -0.1903910              -5.1808
        75                         -0.1902983              -5.1783
        76                         -0.1733124              -4.7161
        77                         -0.1134451              -3.0870
        78                         -0.1112952              -3.0285
        79                         -0.0982174              -2.6726
       ...                                ...                  ...
       132                          1.1647263              31.6938
      -------------------------------------------------------------
                  HL-Gap            0.0271622 Eh            0.7391 eV

     #   Z          covCN         q      C6AA      α(0)
     1   6 C        3.766    -0.102    22.489     6.759
     2   6 C        3.905     0.026    20.075     6.369
     3   6 C        3.757    -0.108    22.626     6.782
     4   6 C        2.987    -0.003    28.081     8.693
     5   6 C        2.924    -0.035    28.872     8.812
     6   6 C        2.917    -0.036    28.887     8.814
     7   6 C        2.917    -0.029    28.728     8.789
     8   6 C        2.920    -0.050    29.252     8.869
     9   6 C        2.931     0.054    26.791     8.489
    10   7 N        2.756    -0.004    21.344     6.862
    11   6 C        2.936     0.063    26.597     8.458
    12   6 C        2.921    -0.034    28.849     8.808
    13   6 C        2.920    -0.024    28.613     8.772
    14   6 C        2.919    -0.027    28.665     8.780
    15   6 C        2.920    -0.025    28.616     8.772
    16   6 C        2.920    -0.034    28.855     8.809
    17   6 C        2.922     0.039    27.133     8.542
    18   6 C        2.911    -0.057    29.405     8.892
    19   6 C        2.919    -0.058    29.451     8.899
    20   6 C        2.976     0.009    27.808     8.650
    21   6 C        2.924    -0.061    29.506     8.908
    22   6 C        2.963    -0.006    28.166     8.705
    23   6 C        1.911     0.101    28.591     8.635
    24   7 N        0.911    -0.344    28.842     7.767
    25   6 C        2.917    -0.027    28.674     8.781
    26   6 C        2.914    -0.054    29.338     8.882
    27   6 C        2.971     0.006    27.878     8.661
    28   6 C        2.966    -0.008    28.217     8.713
    29   1 H        0.925     0.052     2.293     2.368
    30   1 H        0.925     0.054     2.273     2.357
    31   1 H        0.925     0.038     2.481     2.463
    32   1 H        0.925     0.046     2.375     2.410
    33   1 H        0.925     0.049     2.328     2.386
    34   1 H        0.925     0.050     2.325     2.384
    35   1 H        0.926     0.049     2.335     2.389
    36   1 H        0.926     0.040     2.453     2.449
    37   1 H        0.926     0.040     2.448     2.447
    38   1 H        0.926     0.040     2.452     2.449
    39   1 H        0.926     0.047     2.355     2.400
    40   1 H        0.926     0.050     2.324     2.384
    41   1 H        0.926     0.048     2.340     2.392
    42   1 H        0.926     0.050     2.322     2.383
    43   1 H        0.926     0.048     2.342     2.393
    44   1 H        0.926     0.029     2.600     2.521
    45   1 H        0.926     0.020     2.732     2.585
    46   1 H        0.926     0.008     2.927     2.675
    47   1 H        0.925     0.020     2.736     2.587
    48   1 H        0.926     0.051     2.306     2.375

molecular dipole:
                 x           y           z       tot (Debye)
 q only:       -5.400      -1.175      -0.081
   full:       -5.727      -1.199      -0.100      14.874

 projected vibrational frequencies (cm⁻¹)
eigval :       -0.00    -0.00    -0.00     0.00     0.00     0.00
eigval :       11.23    24.96    34.99    61.05    66.00    86.53
eigval :       97.12   103.41   135.56   144.16   163.36   175.09
eigval :      193.54   210.09   222.19   240.65   262.51   273.80
eigval :      306.57   327.07   336.97   338.56   365.06   372.37
eigval :      385.06   401.99   424.20   429.73   450.24   486.91
eigval :      492.79   507.34   519.09   521.76   538.19   557.06
eigval :      564.42   585.97   592.54   605.50   609.20   630.38
eigval :      670.75   684.75   689.49   697.62   719.32   753.43
eigval :      759.86   766.20   779.04   794.26   801.62   824.53
eigval :      860.94   870.88   874.71   899.06   903.75   911.79
eigval :      913.08   915.49   917.87   928.77   940.97   942.19
eigval :      959.96   972.07   991.19  1024.13  1049.48  1074.90
eigval :     1077.02  1096.73  1111.51  1112.86  1126.55  1150.23
eigval :     1160.71  1177.38  1180.01  1182.36  1184.85  1199.28
eigval :     1203.43  1224.10  1241.38  1267.95  1271.11  1275.68
eigval :     1290.65  1305.47  1306.37  1321.82  1343.29  1352.51
eigval :     1387.42  1397.54  1401.09  1412.70  1421.34  1426.58
eigval :     1429.06  1437.14  1454.00  1463.87  1466.92  1478.37
eigval :     1493.31  1498.26  1501.40  1509.39  1518.99  1532.35
eigval :     1568.54  1579.85  1587.73  2253.25  3020.00  3027.57
eigval :     3036.09  3043.67  3059.82  3060.19  3065.25  3074.71
eigval :     3083.39  3084.55  3084.86  3085.03  3091.31  3092.73
eigval :     3095.49  3102.37  3102.92  3103.36  3108.92  3155.10

   temp. (K)  partition function   enthalpy   heat capacity  entropy
                                   cal/mol     cal/K/mol   cal/K/mol   J/K/mol
 298.15  VIB  0.164E+10            13054.584     85.602     79.307
         ROT  0.145E+08              888.752      2.981     35.747
         INT  0.237E+17            13943.336     88.582    115.054
         TR   0.662E+28             1481.254      4.968     43.520
         TOT                       15424.5898    93.5506   158.5745   663.4759

       T/K    H(0)-H(T)+PV         H(T)/Eh          T*S/Eh         G(T)/Eh
   ------------------------------------------------------------------------
    298.15    0.245806E-01    0.397533E+00    0.753439E-01    0.322189E+00
   ------------------------------------------------------------------------

         :::::::::::::::::::::::::::::::::::::::::::::::::::::
         ::                  THERMODYNAMIC                  ::
         :::::::::::::::::::::::::::::::::::::::::::::::::::::
         :: total free energy         -71.333488592758 Eh   ::
         ::.................................................::
         :: total energy              -71.655677358318 Eh   ::
         :: zero point energy           0.372951999133 Eh   ::
         :: G(RRHO) w/o ZPVE           -0.050763233573 Eh   ::
         :: G(RRHO) contrib.            0.322188765559 Eh   ::
         :::::::::::::::::::::::::::::::::::::::::::::::::::::

           -------------------------------------------------
          | TOTAL ENERGY              -71.655677358318 Eh   |
          | TOTAL ENTHALPY            -71.258144710680 Eh   |
          | TOTAL FREE ENERGY         -71.333488592758 Eh   |
          | GRADIENT NORM               0.000040627022 Eh/α |
          | HOMO-LUMO GAP               0.739120239943 eV   |
           -------------------------------------------------

 * finished run on 2025/09/04 at 10:46:43.923
