   * xtb version 6.7.1 (edcfbbe) compiled by 'albert@albert-system' on 2024-07-22

   ID    Z sym.   atoms
    1    6 C      1-9, 11-23, 25-28
    2    7 N      10, 24
    3    1 H      29-48

          program call               : xtb data2507/toluene/BACN/BACN_toluene_S0_crest.xyz --gfn 2 --gbsa toluene --ohess vtight --parallel 40 --molden --ceasefiles --namespace data2507/toluene/BACN/BACN_toluene_S0_finalOpt
      * Solvation model:               GBSA
        Solvent                        toluene
        Solvent mass                       9.2140E+01 g/mol
          :  Hamiltonian                  GFN2-xTB          :
 * total energy  :   -71.7380949 Eh     change       -0.1509122E-08 Eh
 * total energy  :   -71.7381187 Eh     change       -0.2382255E-04 Eh
 * total energy  :   -71.7380618 Eh     change        0.5690119E-04 Eh
 * total energy  :   -71.7381207 Eh     change       -0.5891095E-04 Eh
 * total energy  :   -71.7381279 Eh     change       -0.7178847E-05 Eh
 * total energy  :   -71.7381309 Eh     change       -0.2978304E-05 Eh
 * total energy  :   -71.7381321 Eh     change       -0.1207873E-05 Eh
 * total energy  :   -71.7381339 Eh     change       -0.1834369E-05 Eh
 * total energy  :   -71.7381348 Eh     change       -0.8400246E-06 Eh
 * total energy  :   -71.7381353 Eh     change       -0.5590929E-06 Eh
 * total energy  :   -71.7381377 Eh     change       -0.3477724E-06 Eh
 * total energy  :   -71.7381378 Eh     change       -0.1689322E-06 Eh
 * total energy  :   -71.7381380 Eh     change       -0.1635977E-06 Eh
 * total energy  :   -71.7381382 Eh     change       -0.1848823E-06 Eh
 * total energy  :   -71.7381384 Eh     change       -0.2393741E-06 Eh
 * total energy  :   -71.7381387 Eh     change       -0.2152118E-06 Eh
 * total energy  :   -71.7381388 Eh     change       -0.1340139E-06 Eh
 * total energy  :   -71.7381389 Eh     change       -0.1009513E-06 Eh
 * total energy  :   -71.7381389 Eh     change       -0.9896155E-09 Eh
   *** GEOMETRY OPTIMIZATION CONVERGED AFTER 22 ITERATIONS ***

 final structure:
================
48
 xtb: 6.7.1 (edcfbbe)
C            0.64134427249600       -2.55988920143230       -1.44626436807014
C            0.25203471049352       -1.99027009213952       -0.06221359481853
C            0.85810077788469       -2.80043264874037        1.11448245762133
C           -1.25910113065847       -2.13245420132458        0.01825689279877
C           -1.81446366511432       -3.40526430367842        0.04551104373776
C           -3.18239592936700       -3.60346219703063        0.08720049057869
C           -4.02667567646879       -2.50693358029733        0.10261539557937
C           -3.49915893187174       -1.23234861222195        0.07851949751641
C           -2.11674207175955       -1.03341697913629        0.03422197984025
N           -1.59633449809388        0.25158088545498        0.01012231669480
C           -2.51063627135231        1.34774436580764       -0.00556967614969
C           -2.94028000694847        1.86981271594001       -1.21908356895728
C           -3.83433606264033        2.92653025775860       -1.23462208457499
C           -4.30146112643195        3.45996457274723       -0.04447292510486
C           -3.87548553944809        2.93579391545315        1.16538094798724
C           -2.98148426164836        1.87945788999480        1.18882278020656
C           -0.23947788084447        0.49179194180493        0.02398445961374
C            0.17765166129316        1.84628782312924        0.06251905788130
C            1.49278653484304        2.17748362522011        0.07345461949519
C            2.48116177389955        1.17211101887681        0.04505702993124
C            3.83735284804063        1.52915304604429        0.04890810599824
C            4.82399968498930        0.56696244449080        0.01486274403458
C            6.18478454519389        0.92595043028052        0.01757235829300
N            7.29795139440486        1.21365777332961        0.01969043131605
C            4.44920474851071       -0.79489530692850       -0.02199392720006
C            3.13392283679335       -1.15355379217450       -0.02274344887004
C            2.08175799139992       -0.19828236339781        0.00931324979630
C            0.70007910646605       -0.53469923665118        0.00289352927827
H            0.44501275041307       -3.62810988401046       -1.48834508103587
H            1.68448348505682       -2.38603887182338       -1.68810956732338
H            0.03801289046038       -2.07573750298354       -2.21361420664837
H            0.06642726623127       -3.14338460154183        1.77787333933188
H            1.53088501488872       -2.19014315323543        1.71058050976493
H            1.39898111476333       -3.67561331647351        0.76220218706486
H           -1.16320409955411       -4.26614486341707        0.03610072988164
H           -3.58434657592290       -4.60539717853538        0.10551782600566
H           -5.09793133730089       -2.64105266888465        0.13437870135106
H           -4.16236641110133       -0.38137335952133        0.09280473709122
H           -2.57008442021377        1.44597927475043       -2.14108571052860
H           -4.16695849959386        3.33246472824569       -2.17837675750120
H           -4.99907779475787        4.28393855200093       -0.05968534806341
H           -4.24028974347974        3.34910374313830        2.09392821621941
H           -2.64287953105971        1.46249343155245        2.12606012780008
H           -0.57088648419036        2.62235151710251        0.08278921595847
H            1.79840053638186        3.21300140282490        0.10172673826506
H            4.10242980664102        2.57701982379597        0.07769467460784
H            5.22263334618667       -1.54915784824325       -0.04842337628727
H            2.91098368819045       -2.20423205732073       -0.04533792690712

          :  Hamiltonian                  GFN2-xTB          :
         :: gradient norm              0.000047929640 Eh/a0 ::
         :: HOMO-LUMO gap              2.051300515208 eV    ::
         :: SCC energy               -73.088843263380 Eh    ::
         :: -> dispersion             -0.064730592564 Eh    ::
         :: -> Gsolv                  -0.032055708802 Eh    ::
         :: repulsion energy           1.350704374645 Eh    ::

    * Orbital Energies and Occupations

         #    Occupation            Energy/Eh            Energy/eV
      -------------------------------------------------------------
         1        2.0000           -0.6734384             -18.3252
       ...           ...                  ...                  ...
        55        2.0000           -0.4415226             -12.0144
        56        2.0000           -0.4332238             -11.7886
        57        2.0000           -0.4298836             -11.6977
        58        2.0000           -0.4244819             -11.5507
        59        2.0000           -0.4216437             -11.4735
        60        2.0000           -0.4181993             -11.3798
        61        2.0000           -0.4145665             -11.2809
        62        2.0000           -0.4118414             -11.2068
        63        2.0000           -0.4079894             -11.1020
        64        2.0000           -0.4063982             -11.0587
        65        2.0000           -0.3972595             -10.8100
        66        2.0000           -0.3906509             -10.6302
        67        2.0000           -0.3505746              -9.5396 (HOMO)
        68                         -0.2751907              -7.4883 (LUMO)
        69                         -0.2514560              -6.8425
        70                         -0.2380501              -6.4777
        71                         -0.2364780              -6.4349
        72                         -0.2211827              -6.0187
        73                         -0.2177056              -5.9241
        74                         -0.2065413              -5.6203
        75                         -0.1927571              -5.2452
        76                         -0.1799346              -4.8963
        77                         -0.1186899              -3.2297
        78                         -0.1077406              -2.9318
       ...                                ...                  ...
       132                          1.1643278              31.6830
      -------------------------------------------------------------
                  HL-Gap            0.0753839 Eh            2.0513 eV

     #   Z          covCN         q      C6AA      α(0)
     1   6 C        3.763    -0.104    22.535     6.767
     2   6 C        3.905     0.022    20.145     6.380
     3   6 C        3.756    -0.109    22.629     6.783
     4   6 C        2.986    -0.013    28.322     8.730
     5   6 C        2.928    -0.039    28.958     8.825
     6   6 C        2.917    -0.044    29.105     8.847
     7   6 C        2.920    -0.034    28.857     8.809
     8   6 C        2.923    -0.058    29.433     8.897
     9   6 C        2.931     0.057    26.719     8.477
    10   7 N        2.756    -0.064    22.479     7.042
    11   6 C        2.928     0.067    26.505     8.443
    12   6 C        2.921    -0.037    28.929     8.820
    13   6 C        2.920    -0.027    28.673     8.781
    14   6 C        2.919    -0.029    28.728     8.789
    15   6 C        2.920    -0.027    28.677     8.782
    16   6 C        2.921    -0.037    28.929     8.820
    17   6 C        2.922     0.063    26.585     8.455
    18   6 C        2.920    -0.051    29.278     8.873
    19   6 C        2.918    -0.037    28.916     8.818
    20   6 C        2.989     0.004    27.930     8.669
    21   6 C        2.931    -0.024    28.615     8.773
    22   6 C        2.968     0.004    27.929     8.668
    23   6 C        1.912     0.116    28.252     8.584
    24   7 N        0.911    -0.294    27.572     7.594
    25   6 C        2.920    -0.028    28.707     8.786
    26   6 C        2.917    -0.041    29.016     8.833
    27   6 C        2.978     0.012    27.738     8.639
    28   6 C        2.968    -0.025    28.619     8.775
    29   1 H        0.925     0.043     2.416     2.430
    30   1 H        0.925     0.045     2.389     2.417
    31   1 H        0.925     0.030     2.584     2.514
    32   1 H        0.925     0.039     2.456     2.451
    33   1 H        0.925     0.041     2.433     2.439
    34   1 H        0.925     0.042     2.429     2.437
    35   1 H        0.926     0.038     2.480     2.463
    36   1 H        0.926     0.027     2.624     2.533
    37   1 H        0.926     0.028     2.612     2.527
    38   1 H        0.926     0.028     2.618     2.530
    39   1 H        0.926     0.042     2.420     2.433
    40   1 H        0.926     0.044     2.400     2.423
    41   1 H        0.926     0.043     2.407     2.426
    42   1 H        0.926     0.044     2.400     2.422
    43   1 H        0.926     0.043     2.411     2.428
    44   1 H        0.926     0.038     2.480     2.462
    45   1 H        0.926     0.037     2.485     2.465
    46   1 H        0.925     0.034     2.524     2.484
    47   1 H        0.926     0.032     2.563     2.504
    48   1 H        0.926     0.061     2.192     2.315

molecular dipole:
                 x           y           z       tot (Debye)
 q only:       -2.830      -0.116      -0.020
   full:       -3.207      -0.133      -0.029       8.159

 projected vibrational frequencies (cm⁻¹)
eigval :       -0.00    -0.00    -0.00    -0.00     0.00     0.00
eigval :       19.84    28.59    37.37    60.44    66.40    86.50
eigval :       96.94   112.79   142.32   149.44   161.17   175.77
eigval :      186.41   217.94   225.59   239.30   260.62   286.98
eigval :      307.17   336.56   346.67   348.67   375.48   386.62
eigval :      399.47   412.94   433.99   453.99   454.88   486.63
eigval :      489.49   512.92   532.46   540.61   545.72   569.65
eigval :      590.07   591.90   594.34   609.78   633.34   640.04
eigval :      673.32   690.74   694.01   724.15   729.02   761.97
eigval :      779.11   796.28   812.73   830.90   838.04   867.17
eigval :      875.04   876.47   904.18   912.50   914.71   916.46
eigval :      920.44   923.79   929.12   932.25   937.58   962.87
eigval :      966.11   971.46   994.43  1030.75  1065.36  1077.81
eigval :     1081.28  1109.54  1113.43  1143.77  1144.60  1157.69
eigval :     1176.97  1177.63  1184.95  1185.22  1189.06  1203.76
eigval :     1227.90  1239.08  1249.07  1263.35  1268.12  1273.38
eigval :     1306.29  1308.09  1318.77  1331.39  1333.43  1372.84
eigval :     1400.10  1406.04  1409.53  1421.90  1430.32  1437.15
eigval :     1460.85  1469.95  1478.35  1485.83  1489.09  1500.18
eigval :     1506.82  1516.73  1538.14  1581.40  1583.95  1586.07
eigval :     1591.62  1593.65  1607.48  2348.15  3014.58  3021.20
eigval :     3028.58  3038.88  3046.92  3065.61  3071.94  3074.35
eigval :     3078.38  3078.51  3079.60  3079.99  3082.25  3086.93
eigval :     3090.78  3093.05  3098.28  3100.33  3108.74  3158.14

   temp. (K)  partition function   enthalpy   heat capacity  entropy
                                   cal/mol     cal/K/mol   cal/K/mol   J/K/mol
 298.15  VIB  0.566E+09            12796.710     84.250     77.271
         ROT  0.145E+08              888.752      2.981     35.746
         INT  0.820E+16            13685.462     87.231    113.017
         TR   0.662E+28             1481.254      4.968     43.520
         TOT                       15166.7163    92.1990   156.5371   654.9513

       T/K    H(0)-H(T)+PV         H(T)/Eh          T*S/Eh         G(T)/Eh
   ------------------------------------------------------------------------
    298.15    0.241697E-01    0.400424E+00    0.743758E-01    0.326048E+00
   ------------------------------------------------------------------------

         :::::::::::::::::::::::::::::::::::::::::::::::::::::
         ::                  THERMODYNAMIC                  ::
         :::::::::::::::::::::::::::::::::::::::::::::::::::::
         :: total free energy         -71.412090694828 Eh   ::
         ::.................................................::
         :: total energy              -71.738138890788 Eh   ::
         :: zero point energy           0.376254330828 Eh   ::
         :: G(RRHO) w/o ZPVE           -0.050206134869 Eh   ::
         :: G(RRHO) contrib.            0.326048195959 Eh   ::
         :::::::::::::::::::::::::::::::::::::::::::::::::::::

           -------------------------------------------------
          | TOTAL ENERGY              -71.738138890788 Eh   |
          | TOTAL ENTHALPY            -71.337714859126 Eh   |
          | TOTAL FREE ENERGY         -71.412090694828 Eh   |
          | GRADIENT NORM               0.000047923064 Eh/α |
          | HOMO-LUMO GAP               2.051300255238 eV   |
           -------------------------------------------------

 * finished run on 2025/09/04 at 10:45:00.696
