   * xtb version 6.7.1 (edcfbbe) compiled by 'albert@albert-system' on 2024-07-22

   ID    Z sym.   atoms
    1    6 C      1-9, 11-23, 25-28
    2    7 N      10, 24
    3    1 H      29-48

          program call               : xtb data2507/toluene/BACN/BACN_toluene_S0_finalOpt.xtbopt.xyz --gfn 2 --uhf 2 --gbsa toluene --ohess vtight --parallel 40 --molden --ceasefiles --namespace data2507/toluene/BACN/BACN_toluene_T1_preOpt
      * Solvation model:               GBSA
        Solvent                        toluene
        Solvent mass                       9.2140E+01 g/mol
          :  Hamiltonian                  GFN2-xTB          :
 * total energy  :   -71.6493950 Eh     change       -0.3216030E-08 Eh
 * total energy  :   -71.6544804 Eh     change       -0.5085400E-02 Eh
 * total energy  :   -71.6555448 Eh     change       -0.1064468E-02 Eh
 * total energy  :   -71.6556073 Eh     change       -0.6250333E-04 Eh
 * total energy  :   -71.6556164 Eh     change       -0.9098182E-05 Eh
 * total energy  :   -71.6556275 Eh     change       -0.1109671E-04 Eh
 * total energy  :   -71.6556378 Eh     change       -0.1025265E-04 Eh
 * total energy  :   -71.6556463 Eh     change       -0.8478998E-05 Eh
 * total energy  :   -71.6556556 Eh     change       -0.9364198E-05 Eh
 * total energy  :   -71.6556609 Eh     change       -0.5274100E-05 Eh
 * total energy  :   -71.6556796 Eh     change       -0.3656283E-06 Eh
 * total energy  :   -71.6556799 Eh     change       -0.2265476E-06 Eh
 * total energy  :   -71.6556798 Eh     change        0.6716044E-07 Eh
 * total energy  :   -71.6556796 Eh     change        0.2121029E-06 Eh
 * total energy  :   -71.6556800 Eh     change       -0.4073856E-06 Eh
 * total energy  :   -71.6556801 Eh     change       -0.1134079E-06 Eh
 * total energy  :   -71.6556803 Eh     change       -0.1658733E-06 Eh
 * total energy  :   -71.6556804 Eh     change       -0.1218951E-06 Eh
 * total energy  :   -71.6556804 Eh     change       -0.5663570E-07 Eh
   *** GEOMETRY OPTIMIZATION CONVERGED AFTER 43 ITERATIONS ***

 final structure:
================
48
 xtb: 6.7.1 (edcfbbe)
C            0.61149936230725       -2.52480121336217       -1.44673245570276
C            0.25310698936289       -1.97321241830243       -0.04070538038187
C            0.87899499945109       -2.81143000439527        1.10755001370855
C           -1.24743277796636       -2.12869989891384        0.05124982678135
C           -1.80012398684769       -3.40140104472589        0.09043014787158
C           -3.16823219208949       -3.60078812667295        0.12347265785766
C           -4.02341277636957       -2.50265337119868        0.10831624785627
C           -3.50790441656405       -1.23059239425915        0.07244673831257
C           -2.11516276794371       -1.02228985083385        0.05078895324638
N           -1.60401313933197        0.24743461302096        0.03531928812861
C           -2.52199497034535        1.34139736970744       -0.00387121416703
C           -2.89058392540406        1.88240607851793       -1.22859354941245
C           -3.78531842150927        2.93787129320678       -1.26793909236246
C           -4.31069996770291        3.44961023969291       -0.09255823940229
C           -3.94179142025298        2.90579452744399        1.12729832831828
C           -3.04785786385220        1.85016272123334        1.17691185932401
C           -0.25794771771364        0.52663141315126        0.06021391056116
C            0.15729431589489        1.85868253412056        0.12206260309724
C            1.48504588731975        2.18546131167127        0.13532986214388
C            2.49016386109694        1.17510257971879        0.06999522990503
C            3.82561160205602        1.52810326229939        0.06729432769335
C            4.85282998047037        0.53677360390953       -0.00422094759559
C            6.19483961874085        0.89759662251850       -0.00639540200162
N            7.31414019628639        1.19648709284301       -0.00780436686011
C            4.46730072676653       -0.80369310028732       -0.07260354785808
C            3.14263050338283       -1.16576337149833       -0.06630543440588
C            2.08106260357689       -0.20130064537710        0.00811256114505
C            0.72183737488547       -0.53770231143174        0.02379475495588
H            0.39465813251558       -3.58782867957587       -1.50335753928747
H            1.65553150011314       -2.36088019390818       -1.69093383620809
H            0.00926580609660       -2.01334521762537       -2.19643287389516
H            0.11539350875504       -3.06535038011340        1.83992456772857
H            1.65100389669318       -2.25342322754976        1.62820550787765
H            1.30959592450297       -3.73603703399239        0.73230500416426
H           -1.14760696710930       -4.26046183497656        0.09849580360793
H           -3.56852384611398       -4.60226433785930        0.15584994360192
H           -5.09296799331646       -2.64752598134487        0.12581323791943
H           -4.17289034486322       -0.38181333219380        0.06172922792466
H           -2.47340939546854        1.47675105684957       -2.13820899743180
H           -4.07176732865297        3.35934031333089       -2.21956482997137
H           -5.00790712161478        4.27296664111573       -0.12726921470835
H           -4.34963238479296        3.30316525155166        2.04440463683991
H           -2.75140310968518        1.41967973159696        2.12183348472772
H           -0.57880782361275        2.64599104755976        0.16335627193847
H            1.79450922014087        3.21789645465004        0.18833748898552
H            4.10878622407328        2.56952993654670        0.11800244833324
H            5.23179138865815       -1.56715746111973       -0.13119047754187
H            2.92477021269380       -2.21600197207890       -0.11898753602064

          :  Hamiltonian                  GFN2-xTB          :
         :: gradient norm              0.000046750711 Eh/a0 ::
         :: HOMO-LUMO gap              0.739670504183 eV    ::
         :: SCC energy               -72.988605499749 Eh    ::
         :: -> dispersion             -0.064551257473 Eh    ::
         :: -> Gsolv                  -0.037973992142 Eh    ::
         :: repulsion energy           1.332925055176 Eh    ::

    * Orbital Energies and Occupations

         #    Occupation            Energy/Eh            Energy/eV
      -------------------------------------------------------------
         1        2.0000           -0.6876107             -18.7108
       ...           ...                  ...                  ...
        56        2.0000           -0.4353511             -11.8465
        57        2.0000           -0.4289085             -11.6712
        58        2.0000           -0.4239957             -11.5375
        59        2.0000           -0.4220266             -11.4839
        60        2.0000           -0.4182827             -11.3821
        61        2.0000           -0.4177148             -11.3666
        62        2.0000           -0.4102980             -11.1648
        63        2.0000           -0.4068664             -11.0714
        64        2.0000           -0.4027703             -10.9599
        65        2.0000           -0.4025328             -10.9535
        66        2.0000           -0.3825313             -10.4092
        67        1.0000           -0.3544757              -9.6458
        68        1.0000           -0.2715444              -7.3891 (HOMO)
        69        0.0000           -0.2443619              -6.6494 (LUMO)
        70                         -0.2426111              -6.6018
        71                         -0.2405403              -6.5454
        72                         -0.2319740              -6.3123
        73                         -0.2258028              -6.1444
        74                         -0.1904132              -5.1814
        75                         -0.1903017              -5.1784
        76                         -0.1733262              -4.7164
        77                         -0.1134474              -3.0871
        78                         -0.1113093              -3.0289
        79                         -0.0982373              -2.6732
       ...                                ...                  ...
       132                          1.1646800              31.6926
      -------------------------------------------------------------
                  HL-Gap            0.0271825 Eh            0.7397 eV

     #   Z          covCN         q      C6AA      α(0)
     1   6 C        3.766    -0.102    22.487     6.759
     2   6 C        3.905     0.026    20.075     6.369
     3   6 C        3.757    -0.109    22.628     6.782
     4   6 C        2.987    -0.003    28.081     8.693
     5   6 C        2.924    -0.035    28.873     8.812
     6   6 C        2.917    -0.036    28.887     8.814
     7   6 C        2.917    -0.029    28.728     8.789
     8   6 C        2.920    -0.050    29.252     8.869
     9   6 C        2.931     0.054    26.790     8.488
    10   7 N        2.756    -0.004    21.344     6.862
    11   6 C        2.936     0.063    26.598     8.458
    12   6 C        2.921    -0.034    28.848     8.808
    13   6 C        2.920    -0.024    28.613     8.772
    14   6 C        2.919    -0.027    28.665     8.780
    15   6 C        2.920    -0.025    28.617     8.772
    16   6 C        2.920    -0.034    28.856     8.809
    17   6 C        2.922     0.039    27.134     8.542
    18   6 C        2.911    -0.057    29.404     8.892
    19   6 C        2.919    -0.058    29.451     8.899
    20   6 C        2.976     0.009    27.808     8.650
    21   6 C        2.924    -0.061    29.506     8.908
    22   6 C        2.963    -0.006    28.166     8.705
    23   6 C        1.911     0.101    28.591     8.635
    24   7 N        0.911    -0.344    28.842     7.767
    25   6 C        2.917    -0.027    28.674     8.781
    26   6 C        2.914    -0.054    29.338     8.882
    27   6 C        2.971     0.006    27.878     8.661
    28   6 C        2.966    -0.008    28.217     8.713
    29   1 H        0.925     0.052     2.293     2.368
    30   1 H        0.925     0.054     2.272     2.357
    31   1 H        0.925     0.038     2.482     2.464
    32   1 H        0.925     0.046     2.374     2.410
    33   1 H        0.925     0.049     2.329     2.386
    34   1 H        0.925     0.050     2.325     2.385
    35   1 H        0.926     0.049     2.334     2.389
    36   1 H        0.926     0.040     2.453     2.449
    37   1 H        0.926     0.040     2.448     2.447
    38   1 H        0.926     0.040     2.452     2.449
    39   1 H        0.926     0.047     2.357     2.401
    40   1 H        0.926     0.050     2.324     2.384
    41   1 H        0.926     0.048     2.341     2.392
    42   1 H        0.926     0.050     2.322     2.383
    43   1 H        0.926     0.048     2.341     2.392
    44   1 H        0.926     0.029     2.600     2.521
    45   1 H        0.926     0.020     2.732     2.585
    46   1 H        0.926     0.008     2.927     2.675
    47   1 H        0.925     0.020     2.736     2.587
    48   1 H        0.926     0.051     2.307     2.375

molecular dipole:
                 x           y           z       tot (Debye)
 q only:       -5.404      -1.154      -0.060
   full:       -5.731      -1.176      -0.077      14.872

 projected vibrational frequencies (cm⁻¹)
eigval :       -0.00    -0.00    -0.00     0.00     0.00     0.00
eigval :       15.79    26.94    36.07    61.72    67.57    87.13
eigval :       97.56   104.89   137.15   145.92   163.97   175.89
eigval :      194.67   210.80   222.43   241.05   262.72   274.07
eigval :      306.67   327.71   337.60   338.86   365.65   373.00
eigval :      385.70   401.97   424.40   429.91   450.22   487.01
eigval :      493.43   507.34   519.32   522.08   538.31   557.86
eigval :      564.59   586.17   592.67   605.66   609.50   630.44
eigval :      670.80   684.73   689.67   698.22   719.38   753.09
eigval :      759.53   765.43   779.40   794.37   801.45   824.62
eigval :      860.62   871.04   874.07   898.63   903.26   911.81
eigval :      913.49   916.05   917.26   928.26   940.95   942.27
eigval :      960.12   973.17   991.32  1025.62  1049.56  1075.72
eigval :     1077.69  1097.26  1111.70  1113.55  1126.57  1150.52
eigval :     1160.78  1177.74  1180.31  1182.70  1185.11  1199.36
eigval :     1203.68  1224.49  1241.76  1268.23  1271.42  1275.82
eigval :     1290.84  1305.49  1306.57  1321.86  1343.35  1352.53
eigval :     1387.47  1397.55  1401.14  1412.83  1421.37  1426.61
eigval :     1429.19  1437.13  1454.15  1464.00  1467.05  1478.71
eigval :     1493.64  1498.79  1501.52  1509.57  1518.99  1532.42
eigval :     1568.71  1579.73  1587.63  2253.17  3019.94  3027.87
eigval :     3036.05  3043.55  3059.84  3060.25  3066.76  3074.70
eigval :     3083.48  3084.69  3084.80  3085.14  3091.27  3092.88
eigval :     3095.45  3102.41  3102.98  3103.29  3109.23  3155.09

   temp. (K)  partition function   enthalpy   heat capacity  entropy
                                   cal/mol     cal/K/mol   cal/K/mol   J/K/mol
 298.15  VIB  0.978E+09            13025.824     85.648     78.750
         ROT  0.145E+08              888.752      2.981     35.747
         INT  0.142E+17            13914.577     88.628    114.497
         TR   0.662E+28             1481.254      4.968     43.520
         TOT                       15395.8306    93.5966   158.0172   661.1440

       T/K    H(0)-H(T)+PV         H(T)/Eh          T*S/Eh         G(T)/Eh
   ------------------------------------------------------------------------
    298.15    0.245348E-01    0.397577E+00    0.750791E-01    0.322498E+00
   ------------------------------------------------------------------------

         :::::::::::::::::::::::::::::::::::::::::::::::::::::
         ::                  THERMODYNAMIC                  ::
         :::::::::::::::::::::::::::::::::::::::::::::::::::::
         :: total free energy         -71.333182258561 Eh   ::
         ::.................................................::
         :: total energy              -71.655680447307 Eh   ::
         :: zero point energy           0.373042439995 Eh   ::
         :: G(RRHO) w/o ZPVE           -0.050544251250 Eh   ::
         :: G(RRHO) contrib.            0.322498188745 Eh   ::
         :::::::::::::::::::::::::::::::::::::::::::::::::::::

           -------------------------------------------------
          | TOTAL ENERGY              -71.655680447307 Eh   |
          | TOTAL ENTHALPY            -71.258103189491 Eh   |
          | TOTAL FREE ENERGY         -71.333182258561 Eh   |
          | GRADIENT NORM               0.000046656811 Eh/α |
          | HOMO-LUMO GAP               0.739672559380 eV   |
           -------------------------------------------------

 * finished run on 2025/09/04 at 10:45:03.375
