   * xtb version 6.7.1 (edcfbbe) compiled by 'albert@albert-system' on 2024-07-22

   ID    Z sym.   atoms
    1    6 C      1-9, 11-23, 25-28
    2    7 N      10, 24
    3    1 H      29-48

          program call               : xtb data2507/toluene/BACN/BACN.xyz --gfn 2 --gbsa toluene --ohess vtight --parallel 40 --molden --ceasefiles --namespace data2507/toluene/BACN/BACN_toluene_S0_preOpt
      * Solvation model:               GBSA
        Solvent                        toluene
        Solvent mass                       9.2140E+01 g/mol
          :  Hamiltonian                  GFN2-xTB          :
 * total energy  :   -71.7115836 Eh     change       -0.1962391E-08 Eh
 * total energy  :   -71.7251413 Eh     change       -0.1355775E-01 Eh
 * total energy  :   -71.7298564 Eh     change       -0.4715091E-02 Eh
 * total energy  :   -71.7306507 Eh     change       -0.7943500E-03 Eh
 * total energy  :   -71.7309799 Eh     change       -0.3291474E-03 Eh
 * total energy  :   -71.7310400 Eh     change       -0.6007492E-04 Eh
 * total energy  :   -71.7311698 Eh     change       -0.1297923E-03 Eh
 * total energy  :   -71.7312543 Eh     change       -0.8451428E-04 Eh
 * total energy  :   -71.7313433 Eh     change       -0.8904600E-04 Eh
 * total energy  :   -71.7313869 Eh     change       -0.4359780E-04 Eh
 * total energy  :   -71.7316062 Eh     change       -0.8795723E-06 Eh
 * total energy  :   -71.7316067 Eh     change       -0.5743816E-06 Eh
 * total energy  :   -71.7316071 Eh     change       -0.3837205E-06 Eh
 * total energy  :   -71.7316074 Eh     change       -0.3371088E-06 Eh
 * total energy  :   -71.7316078 Eh     change       -0.3139962E-06 Eh
 * total energy  :   -71.7316080 Eh     change       -0.2138844E-06 Eh
 * total energy  :   -71.7316082 Eh     change       -0.1847319E-06 Eh
 * total energy  :   -71.7316083 Eh     change       -0.1527006E-06 Eh
 * total energy  :   -71.7316084 Eh     change       -0.9301044E-07 Eh
   *** GEOMETRY OPTIMIZATION CONVERGED AFTER 58 ITERATIONS ***

 final structure:
================
48
 xtb: 6.7.1 (edcfbbe)
C            1.79719016005768       -2.68481789482715        0.59365961734584
C            0.71060442573213       -1.61154453134821        0.61489309524511
C            0.31965551273982       -1.43935203046408        2.10595781284789
C           -0.52829780873751       -2.05633526769946       -0.13781209641718
C           -0.74235969567960       -3.34741610534763       -0.59406778677654
C           -1.94484501559168       -3.71275797500236       -1.17700683983784
C           -2.95711036247702       -2.77971036594302       -1.31195875565100
C           -2.75630558734723       -1.47943827803647       -0.89220900716878
C           -1.54404868452552       -1.10973936063087       -0.31304233576846
N           -1.30486508695216        0.20844838021304        0.06471410351583
C           -2.41032168603209        1.10631905821494        0.08122164940500
C           -3.25182979153650        1.11438029633966        1.18595796783987
C           -4.34348842906478        1.96523331125733        1.21571313962331
C           -4.59765108794847        2.80808356478708        0.14655536996625
C           -3.76229737674505        2.79551661028550       -0.95915235674239
C           -2.67167122083684        1.94511974903277       -0.99721971157498
C           -0.00693452743476        0.68194115396994        0.09962701141666
C            0.20737794895341        2.07713359684940        0.14928446693072
C            1.46728150505602        2.58370380510127        0.11342197287661
C            2.56838143692737        1.72874556366876       -0.09742143420170
C            3.84661886462849        2.27818727910045       -0.27312749815537
C            4.93472638247085        1.47608806520864       -0.54400001518129
C            6.21624377808267        2.03053700528172       -0.71882855200865
N            7.26598064917374        2.47821937560292       -0.85871469127575
C            4.73632822381916        0.08495236464606       -0.68551448805322
C            3.50339663955894       -0.46367330207756       -0.48770863901710
C            2.36838880793585        0.31098892931711       -0.13319329517788
C            1.07264089435362       -0.20971877016764        0.12279758402714
H            1.42721614633784       -3.56597547676193        1.11511991196240
H            2.67928127387817       -2.34242433044535        1.12726003631569
H            2.06097962749699       -2.97896197964172       -0.41910002013094
H           -0.46768433644512       -0.70215765579022        2.23310918060175
H            1.18670698801078       -1.11506035566157        2.67828740734495
H           -0.03186211054877       -2.38764707996631        2.50762136259496
H            0.02321109199731       -4.09800385123293       -0.48687458016163
H           -2.09192042689864       -4.72883890902179       -1.51168101501137
H           -3.90217698653978       -3.05829357202410       -1.75452395948579
H           -3.53885817115905       -0.74689286146667       -1.01828916206495
H           -3.04978991491967        0.44998532573518        2.01322250394728
H           -4.99481307519656        1.97011709458541        2.07700556193309
H           -5.44847851671765        3.47231630682244        0.17213667154179
H           -3.96230119661857        3.44681156905612       -1.79708438124392
H           -2.01963873899803        1.92304713925939       -1.85868387437556
H           -0.63838488946406        2.73744486585638        0.25796380213031
H            1.63703251905562        3.64584222539214        0.20838426822316
H            3.96695472887298        3.35118064888322       -0.21399326669111
H            5.57318605862245       -0.53729778816952       -0.96854138903221
H            3.39855206065090       -1.51428454274276       -0.67416734643897

          :  Hamiltonian                  GFN2-xTB          :
         :: gradient norm              0.000039558042 Eh/a0 ::
         :: HOMO-LUMO gap              2.129884547041 eV    ::
         :: SCC energy               -73.081668700432 Eh    ::
         :: -> dispersion             -0.064783849821 Eh    ::
         :: -> Gsolv                  -0.032031521559 Eh    ::
         :: repulsion energy           1.350060293691 Eh    ::

    * Orbital Energies and Occupations

         #    Occupation            Energy/Eh            Energy/eV
      -------------------------------------------------------------
         1        2.0000           -0.6736655             -18.3314
       ...           ...                  ...                  ...
        55        2.0000           -0.4404579             -11.9855
        56        2.0000           -0.4331227             -11.7859
        57        2.0000           -0.4302530             -11.7078
        58        2.0000           -0.4238926             -11.5347
        59        2.0000           -0.4202346             -11.4352
        60        2.0000           -0.4176442             -11.3647
        61        2.0000           -0.4152422             -11.2993
        62        2.0000           -0.4140301             -11.2663
        63        2.0000           -0.4103874             -11.1672
        64        2.0000           -0.4063852             -11.0583
        65        2.0000           -0.3984440             -10.8422
        66        2.0000           -0.3847075             -10.4684
        67        2.0000           -0.3530868              -9.6080 (HOMO)
        68                         -0.2748150              -7.4781 (LUMO)
        69                         -0.2515174              -6.8441
        70                         -0.2379289              -6.4744
        71                         -0.2359314              -6.4200
        72                         -0.2215399              -6.0284
        73                         -0.2194129              -5.9705
        74                         -0.2063058              -5.6139
        75                         -0.1965443              -5.3482
        76                         -0.1812536              -4.9322
        77                         -0.1237199              -3.3666
        78                         -0.1069901              -2.9113
       ...                                ...                  ...
       132                          1.1647564              31.6946
      -------------------------------------------------------------
                  HL-Gap            0.0782719 Eh            2.1299 eV

     #   Z          covCN         q      C6AA      α(0)
     1   6 C        3.761    -0.108    22.602     6.777
     2   6 C        3.911     0.025    20.100     6.372
     3   6 C        3.768    -0.102    22.491     6.759
     4   6 C        2.984    -0.012    28.304     8.727
     5   6 C        2.923    -0.041    29.006     8.832
     6   6 C        2.918    -0.043    29.073     8.842
     7   6 C        2.919    -0.034    28.857     8.809
     8   6 C        2.921    -0.055    29.367     8.887
     9   6 C        2.940     0.056    26.734     8.480
    10   7 N        2.755    -0.066    22.527     7.049
    11   6 C        2.926     0.066    26.528     8.446
    12   6 C        2.922    -0.038    28.940     8.822
    13   6 C        2.920    -0.027    28.677     8.782
    14   6 C        2.919    -0.030    28.739     8.791
    15   6 C        2.919    -0.028    28.692     8.784
    16   6 C        2.921    -0.038    28.942     8.822
    17   6 C        2.933     0.062    26.614     8.461
    18   6 C        2.918    -0.052    29.280     8.873
    19   6 C        2.920    -0.039    28.961     8.825
    20   6 C        2.990     0.004    27.932     8.670
    21   6 C        2.932    -0.025    28.626     8.774
    22   6 C        2.968     0.004    27.933     8.669
    23   6 C        1.912     0.116    28.250     8.584
    24   7 N        0.911    -0.294    27.580     7.595
    25   6 C        2.920    -0.029    28.716     8.788
    26   6 C        2.917    -0.041    29.031     8.836
    27   6 C        2.977     0.013    27.720     8.636
    28   6 C        2.975    -0.025    28.614     8.774
    29   1 H        0.925     0.045     2.379     2.412
    30   1 H        0.925     0.047     2.364     2.404
    31   1 H        0.925     0.039     2.465     2.455
    32   1 H        0.925     0.034     2.525     2.485
    33   1 H        0.925     0.038     2.469     2.457
    34   1 H        0.925     0.040     2.444     2.445
    35   1 H        0.926     0.041     2.433     2.439
    36   1 H        0.926     0.029     2.602     2.523
    37   1 H        0.926     0.029     2.595     2.519
    38   1 H        0.926     0.028     2.619     2.531
    39   1 H        0.926     0.042     2.425     2.435
    40   1 H        0.926     0.043     2.404     2.424
    41   1 H        0.926     0.042     2.418     2.432
    42   1 H        0.926     0.042     2.418     2.432
    43   1 H        0.926     0.041     2.434     2.440
    44   1 H        0.926     0.039     2.468     2.457
    45   1 H        0.926     0.037     2.494     2.470
    46   1 H        0.925     0.034     2.525     2.485
    47   1 H        0.926     0.032     2.564     2.504
    48   1 H        0.926     0.057     2.231     2.336

molecular dipole:
                 x           y           z       tot (Debye)
 q only:       -2.835      -0.673       0.510
   full:       -3.222      -0.710       0.505       8.484

 projected vibrational frequencies (cm⁻¹)
eigval :       -0.00    -0.00    -0.00     0.00     0.00     0.00
eigval :       25.78    26.14    33.52    60.89    67.99    76.10
eigval :      102.89   120.40   139.33   173.64   184.07   199.04
eigval :      212.54   225.74   240.47   251.06   283.96   306.26
eigval :      323.71   333.27   355.87   377.00   386.08   402.70
eigval :      417.61   434.35   446.58   460.58   469.40   482.28
eigval :      491.71   511.50   518.69   526.78   546.01   565.15
eigval :      581.74   591.00   591.70   607.70   631.63   641.94
eigval :      672.86   686.79   700.86   721.01   724.16   755.43
eigval :      770.03   784.32   807.11   828.39   830.72   865.57
eigval :      869.06   876.82   899.76   903.64   906.86   913.04
eigval :      914.66   917.81   923.32   930.72   931.86   955.63
eigval :      963.19   974.09   997.58  1010.93  1057.87  1077.66
eigval :     1081.86  1109.83  1113.37  1139.01  1145.05  1163.11
eigval :     1175.70  1176.81  1183.91  1184.74  1187.57  1207.82
eigval :     1228.39  1239.52  1255.75  1266.32  1272.08  1274.77
eigval :     1303.80  1308.65  1317.91  1329.38  1334.03  1368.20
eigval :     1382.40  1394.99  1405.14  1414.64  1430.31  1441.12
eigval :     1451.15  1467.14  1478.54  1481.05  1490.39  1495.27
eigval :     1522.04  1526.49  1533.69  1579.35  1581.12  1582.33
eigval :     1590.74  1592.17  1597.91  2348.27  3015.43  3022.46
eigval :     3025.03  3030.93  3046.65  3053.34  3070.25  3073.35
eigval :     3076.76  3078.84  3079.38  3081.42  3083.43  3084.73
eigval :     3089.40  3095.79  3097.31  3104.51  3115.90  3189.73

   temp. (K)  partition function   enthalpy   heat capacity  entropy
                                   cal/mol     cal/K/mol   cal/K/mol   J/K/mol
 298.15  VIB  0.294E+09            12575.832     83.929     75.219
         ROT  0.142E+08              888.752      2.981     35.715
         INT  0.418E+16            13464.584     86.910    110.933
         TR   0.662E+28             1481.254      4.968     43.520
         TOT                       14945.8383    91.8778   154.4534   646.2332

       T/K    H(0)-H(T)+PV         H(T)/Eh          T*S/Eh         G(T)/Eh
   ------------------------------------------------------------------------
    298.15    0.238177E-01    0.400319E+00    0.733858E-01    0.326933E+00
   ------------------------------------------------------------------------

         :::::::::::::::::::::::::::::::::::::::::::::::::::::
         ::                  THERMODYNAMIC                  ::
         :::::::::::::::::::::::::::::::::::::::::::::::::::::
         :: total free energy         -71.404675070813 Eh   ::
         ::.................................................::
         :: total energy              -71.731608404988 Eh   ::
         :: zero point energy           0.376501441772 Eh   ::
         :: G(RRHO) w/o ZPVE           -0.049568107596 Eh   ::
         :: G(RRHO) contrib.            0.326933334176 Eh   ::
         :::::::::::::::::::::::::::::::::::::::::::::::::::::

           -------------------------------------------------
          | TOTAL ENERGY              -71.731608404988 Eh   |
          | TOTAL ENTHALPY            -71.331289253871 Eh   |
          | TOTAL FREE ENERGY         -71.404675070813 Eh   |
          | GRADIENT NORM               0.000039629903 Eh/α |
          | HOMO-LUMO GAP               2.129885650139 eV   |
           -------------------------------------------------

 * finished run on 2025/09/04 at 10:43:29.514
