   * xtb version 6.7.1 (edcfbbe) compiled by 'albert@albert-system' on 2024-07-22

   ID    Z sym.   atoms
    1    6 C      1-9, 11-17, 19-29, 31-43, 45-52
    2    7 N      10, 18, 30, 44
    3    1 H      53-84

          program call               : xtb data2507/toluene/Na-DMAC/Na-DMAC_toluene_S0_crest.xyz --gfn 2 --gbsa toluene --ohess vtight --parallel 40 --molden --ceasefiles --namespace data2507/toluene/Na-DMAC/Na-DMAC_toluene_S0_finalOpt
      * Solvation model:               GBSA
        Solvent                        toluene
        Solvent mass                       9.2140E+01 g/mol
          :  Hamiltonian                  GFN2-xTB          :
 * total energy  :  -130.8186705 Eh     change       -0.3500134E-08 Eh
 * total energy  :  -130.8187307 Eh     change       -0.6020977E-04 Eh
 * total energy  :  -130.8187611 Eh     change       -0.3034171E-04 Eh
 * total energy  :  -130.8187732 Eh     change       -0.1212574E-04 Eh
 * total energy  :  -130.8187842 Eh     change       -0.1105731E-04 Eh
 * total energy  :  -130.8187902 Eh     change       -0.5910227E-05 Eh
 * total energy  :  -130.8187963 Eh     change       -0.6137560E-05 Eh
 * total energy  :  -130.8188000 Eh     change       -0.3716282E-05 Eh
 * total energy  :  -130.8188044 Eh     change       -0.4371302E-05 Eh
 * total energy  :  -130.8188081 Eh     change       -0.3678164E-05 Eh
 * total energy  :  -130.8188473 Eh     change       -0.4581711E-06 Eh
 * total energy  :  -130.8188475 Eh     change       -0.2666014E-06 Eh
 * total energy  :  -130.8188478 Eh     change       -0.2940914E-06 Eh
 * total energy  :  -130.8188481 Eh     change       -0.2703426E-06 Eh
 * total energy  :  -130.8188483 Eh     change       -0.2070422E-06 Eh
 * total energy  :  -130.8188484 Eh     change       -0.1504915E-06 Eh
 * total energy  :  -130.8188486 Eh     change       -0.1214533E-06 Eh
 * total energy  :  -130.8188486 Eh     change        0.1039581E-08 Eh
 * total energy  :  -130.8188486 Eh     change       -0.7951260E-07 Eh
   *** GEOMETRY OPTIMIZATION CONVERGED AFTER 34 ITERATIONS ***

 final structure:
================
84
 xtb: 6.7.1 (edcfbbe)
C            8.36580918626505       -0.20391064065829       -1.36671712046729
C            7.54997910979974        0.26154598114794       -0.14582202374914
C            8.49254222760657        0.74679811961060        0.97181753696423
C            6.66097592643527        1.41491052228062       -0.57114306987191
C            7.24162331938329        2.56823550202217       -1.08288305674299
C            6.48693396182133        3.64127078646868       -1.51918533480324
C            5.10713039198587        3.56163175972499       -1.46400327360783
C            4.50431966442099        2.42841198689781       -0.95898142187308
C            5.26589403822213        1.35461174812627       -0.48714754905173
N            4.63062673317454        0.22934781729698        0.02584683627830
C            3.21767340739038        0.21101591385928        0.10517688503144
C            2.55623391567613        1.01808959267688        1.02666836937269
C            1.17845913123854        1.00428418194315        1.09890759572606
C            0.43716008981081        0.17132678054818        0.26280197329612
C           -1.02696851474869        0.14914771016819        0.34739631983328
C           -1.72677325092345       -1.06095598602865        0.44314629207894
C           -1.04024293173629       -2.28133549929468        0.61082949381558
N           -0.49455131372877       -3.27151021456207        0.81104027420814
C           -3.13860244455130       -1.03552383401575        0.47049085463836
C           -3.91994069807113       -2.27751267268380        0.51033791268736
C           -4.85108537804583       -2.43124751109389        1.51243628682881
C           -5.54983938252496       -3.63411782263785        1.66319784027678
C           -5.31856566367286       -4.67429714472012        0.80616931340224
C           -4.41314935087568       -4.53855333965232       -0.26717758884978
C           -4.20071749951023       -5.58722450702081       -1.18735941301645
C           -3.35598251559047       -5.42887106157472       -2.24941291317366
C           -2.70552560777016       -4.20279457169677       -2.45169616963083
C           -2.88243512420991       -3.17068795864508       -1.57233694729816
C           -3.71101077691115       -3.31544924830814       -0.43948045236257
N           -3.80865534158129        0.10253751311923        0.52805219246735
C           -3.17931002224782        1.26720631096242        0.48698087318924
C           -3.97588545220865        2.49068381472333        0.62550011412581
C           -3.52852273175967        3.46696647533158        1.49060674182370
C           -4.25221647322916        4.64685496346927        1.68940181869015
C           -5.42293005687847        4.85379370726207        1.01446308026950
C           -5.91894388690173        3.88466545806385        0.11790628956498
C           -7.12374562592401        4.09356657643683       -0.58723340134215
C           -7.59652655606683        3.15627602754084       -1.46163497158544
C           -6.87854358498238        1.96980277687743       -1.67148001852964
C           -5.70747241269702        1.73679684548143       -1.00384999000095
C           -5.19738327708745        2.67621909886769       -0.08414337052897
C           -1.77573325529579        1.33541093228915        0.33523053314013
C           -1.14042416134878        2.56773545229509        0.07835172842320
N           -0.62658281135212        3.55903714060609       -0.19088440522165
C            1.10268161038174       -0.64325714937004       -0.65158659914541
C            2.47952005243531       -0.61646749133454       -0.73651864890996
C            5.34629620393656       -0.88049077941130        0.46064353943094
C            4.66920905194054       -1.96916059689069        1.01920115339244
C            5.35158470488197       -3.08863111129954        1.44784037385694
C            6.72954402785325       -3.13906647665785        1.33820008491268
C            7.40406076894521       -2.05069727375557        0.81689422621491
C            6.74244550173005       -0.91054975179697        0.37921227653033
H            9.02417857964669       -1.02643327909241       -1.10194247198555
H            7.69399106950407       -0.54071346247229       -2.15456470177920
H            8.97425046877961        0.60631764078962       -1.75844656285018
H            7.91002988805143        1.07864135231735        1.82982569628329
H            9.10359927986792        1.57737820135688        0.62979509170910
H            9.15415649198687       -0.05185814105121        1.29520891380934
H            8.31693126398743        2.63554018654190       -1.14774664420273
H            6.97150246861269        4.52419879203460       -1.90808012971390
H            4.49373023828223        4.37776740735268       -1.81653987560183
H            3.42667120984403        2.37530682334467       -0.93538419584833
H            3.12897679545435        1.65592652259622        1.68285008234840
H            0.67467943821819        1.62236712552412        1.82751812970857
H           -5.01537287517377       -1.62015984261757        2.20619556921114
H           -6.25932961813092       -3.73398415374804        2.47075697472919
H           -5.83602730992312       -5.61441412185600        0.92986268654672
H           -4.72927442448602       -6.51759088461849       -1.03853595832815
H           -3.19633664503611       -6.23608695123641       -2.94869562332387
H           -2.06584039685540       -4.07546117589948       -3.31277731811654
H           -2.39700856175045       -2.22297107430533       -1.75926865865303
H           -2.61834115950947        3.31207300566317        2.05310768135571
H           -3.87511831638857        5.38527980839172        2.38068506022808
H           -5.98801472149912        5.76277882112765        1.16053438944868
H           -7.66271837515897        5.01536027654697       -0.42248382934930
H           -8.51896327453932        3.32279312647788       -1.99813057749483
H           -7.25603386165694        1.23610334804340       -2.36858944086090
H           -5.16944761429108        0.81665978522504       -1.16873337898436
H            0.53880857323958       -1.28025642849126       -1.31718672860777
H            2.99265035094168       -1.23947611182551       -1.45344356437683
H            3.59547323069704       -1.93868895976985        1.12397147069610
H            4.80167009650663       -3.91658595722221        1.87056564955743
H            7.27570261314492       -4.01133321685683        1.66444257685064
H            8.48068903432729       -2.09508988266213        0.75393653298704

          :  Hamiltonian                  GFN2-xTB          :
         :: gradient norm              0.000081667852 Eh/a0 ::
         :: HOMO-LUMO gap              1.086008971455 eV    ::
         :: SCC energy              -133.323917541475 Eh    ::
         :: -> dispersion             -0.123848013494 Eh    ::
         :: -> Gsolv                  -0.057559952053 Eh    ::
         :: repulsion energy           2.505068896448 Eh    ::

    * Orbital Energies and Occupations

         #    Occupation            Energy/Eh            Energy/eV
      -------------------------------------------------------------
         1        2.0000           -0.7028894             -19.1266
       ...           ...                  ...                  ...
       110        2.0000           -0.4231928             -11.5157
       111        2.0000           -0.4183593             -11.3841
       112        2.0000           -0.4123096             -11.2195
       113        2.0000           -0.4116300             -11.2010
       114        2.0000           -0.4085801             -11.1180
       115        2.0000           -0.4073394             -11.0843
       116        2.0000           -0.4040029             -10.9935
       117        2.0000           -0.3980242             -10.8308
       118        2.0000           -0.3970173             -10.8034
       119        2.0000           -0.3926607             -10.6848
       120        2.0000           -0.3898993             -10.6097
       121        2.0000           -0.3877331             -10.5508
       122        2.0000           -0.3483605              -9.4794 (HOMO)
       123                         -0.3084504              -8.3934 (LUMO)
       124                         -0.3013917              -8.2013
       125                         -0.2743153              -7.4645
       126                         -0.2651050              -7.2139
       127                         -0.2492094              -6.7813
       128                         -0.2419211              -6.5830
       129                         -0.2405838              -6.5466
       130                         -0.2400540              -6.5322
       131                         -0.2305570              -6.2738
       132                         -0.2261615              -6.1542
       133                         -0.2248310              -6.1180
       ...                                ...                  ...
       240                          1.1458390              31.1799
      -------------------------------------------------------------
                  HL-Gap            0.0399101 Eh            1.0860 eV

     #   Z          covCN         q      C6AA      α(0)
     1   6 C        3.761    -0.104    22.534     6.767
     2   6 C        3.909     0.021    20.163     6.382
     3   6 C        3.761    -0.104    22.533     6.767
     4   6 C        2.979    -0.013    28.329     8.731
     5   6 C        2.928    -0.037    28.927     8.820
     6   6 C        2.917    -0.045    29.122     8.849
     7   6 C        2.919    -0.034    28.848     8.808
     8   6 C        2.924    -0.059    29.469     8.902
     9   6 C        2.926     0.058    26.708     8.475
    10   7 N        2.753    -0.071    22.625     7.065
    11   6 C        2.927     0.076    26.293     8.409
    12   6 C        2.921    -0.035    28.880     8.813
    13   6 C        2.923    -0.027    28.669     8.781
    14   6 C        2.978     0.002    27.979     8.677
    15   6 C        2.991     0.035    27.208     8.556
    16   6 C        2.972    -0.011    28.296     8.725
    17   6 C        1.909     0.122    28.110     8.563
    18   7 N        0.911    -0.267    26.911     7.503
    19   6 C        2.955     0.112    25.522     8.286
    20   6 C        2.978    -0.005    28.145     8.702
    21   6 C        2.924    -0.024    28.607     8.771
    22   6 C        2.914    -0.028    28.701     8.785
    23   6 C        2.919    -0.030    28.741     8.791
    24   6 C        2.987     0.016    27.637     8.624
    25   6 C        2.920    -0.032    28.791     8.799
    26   6 C        2.915    -0.027    28.672     8.781
    27   6 C        2.916    -0.026    28.661     8.779
    28   6 C        2.917    -0.033    28.818     8.803
    29   6 C        2.985     0.010    27.776     8.645
    30   7 N        1.850    -0.245    27.233     7.734
    31   6 C        2.953     0.112    25.533     8.288
    32   6 C        2.975    -0.004    28.128     8.700
    33   6 C        2.924    -0.027    28.682     8.783
    34   6 C        2.913    -0.029    28.716     8.787
    35   6 C        2.920    -0.029    28.716     8.788
    36   6 C        2.987     0.016    27.643     8.625
    37   6 C        2.920    -0.033    28.820     8.804
    38   6 C        2.915    -0.027    28.670     8.780
    39   6 C        2.917    -0.026    28.658     8.779
    40   6 C        2.916    -0.032    28.794     8.799
    41   6 C        2.984     0.017    27.634     8.623
    42   6 C        2.973    -0.014    28.352     8.734
    43   6 C        1.909     0.120    28.152     8.569
    44   7 N        0.911    -0.268    26.940     7.507
    45   6 C        2.923    -0.027    28.667     8.780
    46   6 C        2.921    -0.035    28.880     8.813
    47   6 C        2.926     0.058    26.707     8.475
    48   6 C        2.924    -0.059    29.468     8.902
    49   6 C        2.919    -0.034    28.848     8.808
    50   6 C        2.917    -0.045    29.121     8.849
    51   6 C        2.928    -0.037    28.928     8.820
    52   6 C        2.979    -0.013    28.329     8.731
    53   1 H        0.925     0.043     2.411     2.428
    54   1 H        0.925     0.030     2.583     2.513
    55   1 H        0.925     0.043     2.414     2.430
    56   1 H        0.925     0.030     2.585     2.514
    57   1 H        0.925     0.043     2.412     2.429
    58   1 H        0.925     0.043     2.414     2.430
    59   1 H        0.926     0.035     2.517     2.481
    60   1 H        0.926     0.028     2.617     2.530
    61   1 H        0.926     0.028     2.612     2.528
    62   1 H        0.926     0.022     2.696     2.568
    63   1 H        0.926     0.054     2.267     2.355
    64   1 H        0.926     0.040     2.447     2.446
    65   1 H        0.926     0.044     2.395     2.420
    66   1 H        0.926     0.048     2.349     2.397
    67   1 H        0.926     0.050     2.325     2.385
    68   1 H        0.926     0.046     2.369     2.407
    69   1 H        0.926     0.043     2.408     2.426
    70   1 H        0.926     0.038     2.473     2.459
    71   1 H        0.926     0.016     2.788     2.611
    72   1 H        0.926     0.029     2.600     2.522
    73   1 H        0.926     0.045     2.380     2.413
    74   1 H        0.926     0.050     2.324     2.384
    75   1 H        0.926     0.044     2.394     2.420
    76   1 H        0.926     0.042     2.421     2.433
    77   1 H        0.926     0.040     2.451     2.448
    78   1 H        0.926     0.039     2.458     2.451
    79   1 H        0.926     0.040     2.445     2.445
    80   1 H        0.926     0.054     2.267     2.354
    81   1 H        0.926     0.022     2.700     2.569
    82   1 H        0.926     0.028     2.613     2.528
    83   1 H        0.926     0.028     2.616     2.529
    84   1 H        0.926     0.035     2.517     2.481

molecular dipole:
                 x           y           z       tot (Debye)
 q only:       -1.375      -0.213      -0.136
   full:       -1.411      -0.179      -0.079       3.620

 projected vibrational frequencies (cm⁻¹)
eigval :       -0.00    -0.00    -0.00    -0.00     0.00     0.00
eigval :        8.54    10.78    13.09    19.99    21.24    27.16
eigval :       32.61    42.12    44.81    55.83    67.44    70.14
eigval :       71.75    96.80   101.79   107.18   110.75   118.44
eigval :      123.62   129.57   140.66   145.41   163.62   170.20
eigval :      178.37   197.72   201.39   208.87   215.30   220.41
eigval :      229.71   236.03   252.24   259.16   264.09   289.67
eigval :      302.90   304.32   316.11   331.88   343.35   371.41
eigval :      374.54   380.08   381.94   391.42   398.80   400.90
eigval :      403.92   411.98   425.06   433.84   437.43   452.98
eigval :      476.99   479.77   479.98   485.79   492.11   493.81
eigval :      504.55   509.93   515.33   515.99   520.75   543.05
eigval :      547.39   554.25   566.70   575.47   577.52   587.41
eigval :      596.50   599.26   605.79   632.06   637.23   648.55
eigval :      667.94   669.33   674.60   684.09   694.76   698.52
eigval :      722.88   724.70   729.36   733.92   735.07   759.64
eigval :      764.87   776.86   777.48   778.16   780.51   804.82
eigval :      812.73   814.10   816.26   826.52   852.12   853.62
eigval :      866.98   869.34   870.12   871.86   877.21   895.61
eigval :      900.65   911.68   913.11   913.63   914.41   914.62
eigval :      918.47   918.62   921.37   922.57   924.70   927.42
eigval :      927.86   928.24   930.85   936.57   943.34   952.66
eigval :      955.63  1012.78  1017.26  1066.74  1075.72  1083.39
eigval :     1084.33  1085.95  1104.99  1113.94  1117.85  1119.18
eigval :     1124.19  1136.39  1139.90  1158.02  1165.53  1167.00
eigval :     1171.59  1178.93  1180.35  1182.61  1185.33  1188.06
eigval :     1188.73  1190.22  1207.07  1212.27  1218.37  1224.45
eigval :     1231.33  1243.61  1249.33  1249.45  1250.78  1263.18
eigval :     1266.17  1268.45  1269.51  1293.13  1307.58  1313.60
eigval :     1323.30  1329.68  1332.46  1333.10  1335.06  1340.77
eigval :     1357.06  1383.12  1386.56  1388.94  1391.78  1398.01
eigval :     1404.36  1406.93  1415.86  1416.87  1419.54  1434.77
eigval :     1438.35  1448.30  1452.22  1464.44  1475.33  1485.83
eigval :     1486.17  1489.48  1496.48  1497.81  1499.53  1501.84
eigval :     1506.53  1510.62  1555.32  1558.67  1560.34  1574.15
eigval :     1585.44  1589.17  1589.77  1590.17  1590.60  1600.26
eigval :     1606.94  1608.47  2347.16  2353.15  3019.79  3023.18
eigval :     3039.82  3041.94  3048.22  3052.52  3062.66  3069.67
eigval :     3073.74  3074.10  3074.78  3075.39  3078.25  3078.46
eigval :     3079.78  3080.21  3080.44  3081.26  3081.51  3082.99
eigval :     3084.67  3089.57  3091.01  3091.34  3092.24  3094.79
eigval :     3095.63  3097.38  3098.12  3098.39  3099.77  3105.52

   temp. (K)  partition function   enthalpy   heat capacity  entropy
                                   cal/mol     cal/K/mol   cal/K/mol   J/K/mol
 298.15  VIB  0.101E+21            25183.189    156.517    157.261
         ROT  0.112E+09              888.752      2.981     39.813
         INT  0.113E+29            26071.941    159.498    197.074
         TR   0.166E+29             1481.254      4.968     45.344
         TOT                       27553.1954   164.4658   242.4178  1014.2762

       T/K    H(0)-H(T)+PV         H(T)/Eh          T*S/Eh         G(T)/Eh
   ------------------------------------------------------------------------
    298.15    0.439088E-01    0.685534E+00    0.115181E+00    0.570354E+00
   ------------------------------------------------------------------------

         :::::::::::::::::::::::::::::::::::::::::::::::::::::
         ::                  THERMODYNAMIC                  ::
         :::::::::::::::::::::::::::::::::::::::::::::::::::::
         :: total free energy        -130.248494968194 Eh   ::
         ::.................................................::
         :: total energy             -130.818848640329 Eh   ::
         :: zero point energy           0.641625390352 Eh   ::
         :: G(RRHO) w/o ZPVE           -0.071271718216 Eh   ::
         :: G(RRHO) contrib.            0.570353672135 Eh   ::
         :::::::::::::::::::::::::::::::::::::::::::::::::::::

           -------------------------------------------------
          | TOTAL ENERGY             -130.818848640329 Eh   |
          | TOTAL ENTHALPY           -130.133314438240 Eh   |
          | TOTAL FREE ENERGY        -130.248494968194 Eh   |
          | GRADIENT NORM               0.000081848713 Eh/α |
          | HOMO-LUMO GAP               1.086009025676 eV   |
           -------------------------------------------------

 * finished run on 2025/09/10 at 21:56:07.316
