   * xtb version 6.7.1 (edcfbbe) compiled by 'albert@albert-system' on 2024-07-22

   ID    Z sym.   atoms
    1    6 C      1-9, 11-17, 19-29, 31-43, 45-52
    2    7 N      10, 18, 30, 44
    3    1 H      53-84

          program call               : xtb data2507/toluene/Na-DMAC/Na-DMAC.xyz --gfn 2 --gbsa toluene --ohess vtight --parallel 40 --molden --ceasefiles --namespace data2507/toluene/Na-DMAC/Na-DMAC_toluene_S0_preOpt
      * Solvation model:               GBSA
        Solvent                        toluene
        Solvent mass                       9.2140E+01 g/mol
          :  Hamiltonian                  GFN2-xTB          :
 * total energy  :  -130.7865837 Eh     change       -0.2918284E-08 Eh
 * total energy  :  -130.8055603 Eh     change       -0.1897667E-01 Eh
 * total energy  :  -130.8107659 Eh     change       -0.5205517E-02 Eh
 * total energy  :  -130.8114441 Eh     change       -0.6782186E-03 Eh
 * total energy  :  -130.8119764 Eh     change       -0.5323189E-03 Eh
 * total energy  :  -130.8123043 Eh     change       -0.3278939E-03 Eh
 * total energy  :  -130.8124609 Eh     change       -0.1566255E-03 Eh
 * total energy  :  -130.8125240 Eh     change       -0.6309142E-04 Eh
 * total energy  :  -130.8125851 Eh     change       -0.6112095E-04 Eh
 * total energy  :  -130.8126228 Eh     change       -0.3771127E-04 Eh
 * total energy  :  -130.8175874 Eh     change       -0.4718829E-06 Eh
 * total energy  :  -130.8175878 Eh     change       -0.3923913E-06 Eh
 * total energy  :  -130.8175882 Eh     change       -0.3842810E-06 Eh
 * total energy  :  -130.8175885 Eh     change       -0.3352780E-06 Eh
 * total energy  :  -130.8175888 Eh     change       -0.2740614E-06 Eh
 * total energy  :  -130.8175890 Eh     change       -0.2567433E-06 Eh
 * total energy  :  -130.8175893 Eh     change       -0.2500911E-06 Eh
 * total energy  :  -130.8175894 Eh     change       -0.1595573E-06 Eh
 * total energy  :  -130.8175895 Eh     change       -0.3875752E-07 Eh
   *** GEOMETRY OPTIMIZATION CONVERGED AFTER 172 ITERATIONS ***

 final structure:
================
84
 xtb: 6.7.1 (edcfbbe)
C            8.22951881504617       -0.32217700848577       -1.28828967210478
C            7.37554982468949       -0.08486364536176       -0.02851221069531
C            8.28333876553100        0.15611757706524        1.19260021083975
C            6.51831480177146        1.14629115729313       -0.25391908499858
C            7.13179515734297        2.36129152434663       -0.53097463901396
C            6.40721297617608        3.51106635035287       -0.78434761819346
C            5.02525073100036        3.45091768905838       -0.78283879294383
C            4.39031317290664        2.25800140261286       -0.50663545894814
C            5.12085113719382        1.10142445158956       -0.21598365533878
N            4.45237555911308       -0.08371213215590        0.07060742842171
C            3.03972078378317       -0.07210317524474        0.15380235439657
C            2.40824736368107        0.58272606613318        1.20768498013870
C            1.03102331691280        0.60710174175746        1.28452108077071
C            0.26104529690231       -0.04159396777228        0.32123686688161
C           -1.20374911880538       -0.01880029738628        0.41189850202229
C           -1.95526193448184       -1.20092017811493        0.37670729021993
C           -1.33107794984711       -2.46236797480920        0.29784189570441
N           -0.83872716134437       -3.49816770034994        0.24460013519879
C           -3.36140820581820       -1.11567409698120        0.41811745052964
C           -4.18263075955356       -2.34045861758334        0.37256031738963
C           -4.11392626522408       -3.22364102860903        1.42313788815124
C           -4.91945496741266       -4.36948599410537        1.44843242325723
C           -5.78472849418809       -4.62559045726953        0.42209576997813
C           -5.86591146552229       -3.75671083145894       -0.68623102859210
C           -6.73279867796169       -4.01569930400692       -1.76938474554674
C           -6.77566049092065       -3.17907471490319       -2.84912430173906
C           -5.94267671657986       -2.05094232584026       -2.89995143472996
C           -5.09614010352866       -1.76900398256854       -1.86406290188685
C           -5.04734670875253       -2.59674273532918       -0.72308279765649
N           -3.98930235946165        0.03892475794197        0.54978247973363
C           -3.31031523929295        1.17386242031257        0.64785718150150
C           -4.04487919210275        2.41390054864668        0.91891149172871
C           -3.53732916140185        3.26656413069927        1.87802668299749
C           -4.17890251764245        4.46662120665165        2.19833388863872
C           -5.32948734503248        4.82162941373472        1.55105234491284
C           -5.89286712153699        3.97852697457876        0.57122912851280
C           -7.08286357079301        4.33625162784970       -0.09835166649818
C           -7.62900218479395        3.51693254297606       -1.04552092894444
C           -7.00392248582968        2.30251044091344       -1.36373693102577
C           -5.84645422190069        1.93010319775372       -0.73691368975767
C           -5.25846600845536        2.74687484668319        0.24983500341697
C           -1.90034969701284        1.19095510412648        0.53822488867396
C           -1.19475374969486        2.40903979522573        0.43823620264851
N           -0.61477695525580        3.38926855943209        0.29141535347468
C            0.89466857818436       -0.70770135972312       -0.72538730169826
C            2.27193126869958       -0.71327361632265       -0.81443033334308
C            5.13649735138657       -1.27280660915628        0.29725649818379
C            4.42712769923680       -2.43288113839396        0.62387296498833
C            5.07861888224443       -3.62864718973933        0.84349671378951
C            6.45748159827224       -3.68852992692393        0.75193558335548
C            7.16360946170704       -2.53599720101889        0.46181295360606
C            6.53350055448630       -1.31869228409990        0.23709264142005
H            8.85602464981594       -1.20201547964691       -1.17245369679755
H            7.58294150909160       -0.47132235404389       -2.15150818328516
H            8.87382569881141        0.52967831360368       -1.48632543928407
H            7.67516101744665        0.30163384659270        2.08398321538769
H            8.89878412250742        1.03982628769753        1.04900372044949
H            8.93968913466725       -0.69309892108380        1.36087302203735
H            8.20950313331005        2.41689968332525       -0.55362778510174
H            6.91694844225776        4.43979757541362       -0.99238780894566
H            4.43534506122396        4.32948375104765       -0.99903257399917
H            3.31170555412269        2.22297494834097       -0.52233413875985
H            3.00378962547613        1.07577561298531        1.96103613738332
H            0.54944827576442        1.10944628454395        2.11072918329553
H           -3.44867524112127       -3.02404543667254        2.25170876866683
H           -4.85040970113883       -5.04027729990535        2.29148294364937
H           -6.41464648844136       -5.50292753721531        0.44079987457214
H           -7.35738499744579       -4.89639869094840       -1.73019462824281
H           -7.44143907839711       -3.38461213065701       -3.67424967117270
H           -5.96957688992261       -1.40836438414467       -3.76791284936331
H           -4.44399788209408       -0.90883608138781       -1.91717533514509
H           -2.64210238772333        2.99644442894613        2.42031482282740
H           -3.75318460629823        5.10390593150036        2.95849415497099
H           -5.82791878757000        5.75081730734056        1.78563076927969
H           -7.55266728250977        5.27558172807766        0.15533281116349
H           -8.54054314404754        3.79665222026295       -1.55266619340711
H           -7.44355228889259        1.65809260037147       -2.11056386371563
H           -5.38380486868005        0.98806098328379       -0.97874657108080
H            0.30553951916560       -1.19801757506750       -1.48659396557635
H            2.76154498392407       -1.21720821574594       -1.63408375306965
H            3.35224147260191       -2.39883403553164        0.71363565730485
H            4.50423024979580       -4.50974371267699        1.08923476809676
H            6.97984420325749       -4.61886176215309        0.91685802221752
H            8.24051472478034       -2.59114992037787        0.41419718383123

          :  Hamiltonian                  GFN2-xTB          :
         :: gradient norm              0.000153146273 Eh/a0 ::
         :: HOMO-LUMO gap              1.081409115854 eV    ::
         :: SCC energy              -133.323321765760 Eh    ::
         :: -> dispersion             -0.123739303320 Eh    ::
         :: -> Gsolv                  -0.057476880788 Eh    ::
         :: repulsion energy           2.505732287936 Eh    ::

    * Orbital Energies and Occupations

         #    Occupation            Energy/Eh            Energy/eV
      -------------------------------------------------------------
         1        2.0000           -0.7041694             -19.1614
       ...           ...                  ...                  ...
       110        2.0000           -0.4225004             -11.4968
       111        2.0000           -0.4185105             -11.3883
       112        2.0000           -0.4117937             -11.2055
       113        2.0000           -0.4116939             -11.2028
       114        2.0000           -0.4086152             -11.1190
       115        2.0000           -0.4072898             -11.0829
       116        2.0000           -0.4039559             -10.9922
       117        2.0000           -0.3979865             -10.8298
       118        2.0000           -0.3974294             -10.8146
       119        2.0000           -0.3925986             -10.6832
       120        2.0000           -0.3889538             -10.5840
       121        2.0000           -0.3882654             -10.5652
       122        2.0000           -0.3483246              -9.4784 (HOMO)
       123                         -0.3085835              -8.3970 (LUMO)
       124                         -0.3009635              -8.1896
       125                         -0.2736312              -7.4459
       126                         -0.2657360              -7.2310
       127                         -0.2491099              -6.7786
       128                         -0.2435449              -6.6272
       129                         -0.2404451              -6.5428
       130                         -0.2398453              -6.5265
       131                         -0.2302079              -6.2643
       132                         -0.2275916              -6.1931
       133                         -0.2248078              -6.1173
       ...                                ...                  ...
       240                          1.1469749              31.2108
      -------------------------------------------------------------
                  HL-Gap            0.0397410 Eh            1.0814 eV

     #   Z          covCN         q      C6AA      α(0)
     1   6 C        3.761    -0.104    22.536     6.767
     2   6 C        3.909     0.021    20.163     6.382
     3   6 C        3.761    -0.104    22.530     6.766
     4   6 C        2.979    -0.013    28.329     8.731
     5   6 C        2.928    -0.037    28.928     8.821
     6   6 C        2.917    -0.045    29.120     8.849
     7   6 C        2.919    -0.034    28.847     8.808
     8   6 C        2.924    -0.059    29.463     8.901
     9   6 C        2.927     0.058    26.710     8.475
    10   7 N        2.753    -0.071    22.623     7.064
    11   6 C        2.927     0.076    26.299     8.410
    12   6 C        2.921    -0.035    28.882     8.813
    13   6 C        2.923    -0.027    28.673     8.781
    14   6 C        2.978     0.002    27.983     8.677
    15   6 C        2.992     0.037    27.170     8.550
    16   6 C        2.973    -0.013    28.326     8.730
    17   6 C        1.909     0.120    28.155     8.569
    18   7 N        0.911    -0.263    26.815     7.489
    19   6 C        2.956     0.115    25.470     8.278
    20   6 C        2.978    -0.004    28.113     8.697
    21   6 C        2.923    -0.028    28.699     8.785
    22   6 C        2.914    -0.028    28.700     8.785
    23   6 C        2.919    -0.031    28.783     8.798
    24   6 C        2.987     0.016    27.639     8.624
    25   6 C        2.919    -0.032    28.801     8.801
    26   6 C        2.915    -0.027    28.682     8.782
    27   6 C        2.916    -0.027    28.678     8.781
    28   6 C        2.917    -0.030    28.752     8.793
    29   6 C        2.987     0.014    27.690     8.632
    30   7 N        1.848    -0.243    27.197     7.729
    31   6 C        2.953     0.112    25.528     8.287
    32   6 C        2.974    -0.005    28.131     8.700
    33   6 C        2.925    -0.027    28.675     8.782
    34   6 C        2.913    -0.029    28.716     8.787
    35   6 C        2.920    -0.028    28.702     8.785
    36   6 C        2.987     0.016    27.646     8.625
    37   6 C        2.920    -0.033    28.820     8.804
    38   6 C        2.915    -0.027    28.670     8.780
    39   6 C        2.917    -0.026    28.650     8.777
    40   6 C        2.917    -0.034    28.836     8.806
    41   6 C        2.984     0.017    27.633     8.623
    42   6 C        2.973    -0.013    28.326     8.730
    43   6 C        1.909     0.120    28.143     8.568
    44   7 N        0.911    -0.266    26.893     7.500
    45   6 C        2.922    -0.027    28.677     8.782
    46   6 C        2.921    -0.035    28.878     8.812
    47   6 C        2.926     0.058    26.708     8.475
    48   6 C        2.924    -0.059    29.475     8.903
    49   6 C        2.919    -0.034    28.850     8.808
    50   6 C        2.917    -0.045    29.123     8.849
    51   6 C        2.928    -0.037    28.928     8.820
    52   6 C        2.979    -0.013    28.330     8.731
    53   1 H        0.925     0.043     2.413     2.429
    54   1 H        0.925     0.030     2.582     2.513
    55   1 H        0.925     0.043     2.412     2.429
    56   1 H        0.925     0.030     2.586     2.515
    57   1 H        0.925     0.043     2.413     2.429
    58   1 H        0.925     0.043     2.414     2.429
    59   1 H        0.926     0.035     2.518     2.481
    60   1 H        0.926     0.028     2.616     2.529
    61   1 H        0.926     0.028     2.609     2.526
    62   1 H        0.926     0.023     2.694     2.567
    63   1 H        0.926     0.054     2.269     2.356
    64   1 H        0.926     0.040     2.449     2.447
    65   1 H        0.926     0.028     2.620     2.531
    66   1 H        0.926     0.045     2.384     2.415
    67   1 H        0.926     0.048     2.340     2.392
    68   1 H        0.926     0.044     2.390     2.418
    69   1 H        0.926     0.042     2.418     2.432
    70   1 H        0.926     0.040     2.455     2.450
    71   1 H        0.926     0.022     2.709     2.574
    72   1 H        0.926     0.030     2.593     2.518
    73   1 H        0.926     0.045     2.377     2.411
    74   1 H        0.926     0.050     2.319     2.382
    75   1 H        0.926     0.044     2.397     2.421
    76   1 H        0.926     0.042     2.420     2.433
    77   1 H        0.926     0.041     2.440     2.443
    78   1 H        0.926     0.044     2.393     2.419
    79   1 H        0.926     0.041     2.441     2.443
    80   1 H        0.926     0.055     2.263     2.353
    81   1 H        0.926     0.023     2.694     2.567
    82   1 H        0.926     0.028     2.614     2.528
    83   1 H        0.926     0.028     2.618     2.530
    84   1 H        0.926     0.035     2.518     2.482

molecular dipole:
                 x           y           z       tot (Debye)
 q only:       -1.488       0.156      -0.153
   full:       -1.505       0.169      -0.007       3.849

 projected vibrational frequencies (cm⁻¹)
eigval :       -0.00    -0.00    -0.00    -0.00     0.00     0.00
eigval :       12.83    13.61    16.73    20.70    24.58    33.62
eigval :       36.31    41.66    44.02    57.97    59.40    68.08
eigval :       74.99    97.39   101.27   104.39   108.99   113.66
eigval :      125.96   128.24   142.61   151.51   161.98   172.21
eigval :      180.47   197.72   203.85   206.86   219.66   228.93
eigval :      229.88   238.37   249.44   253.16   270.03   282.72
eigval :      300.68   304.54   316.04   333.05   345.35   369.88
eigval :      374.36   381.15   381.39   390.58   394.20   400.12
eigval :      408.73   414.38   419.91   435.28   439.08   453.75
eigval :      477.39   478.36   481.40   489.94   492.01   492.93
eigval :      502.81   506.40   513.33   515.60   528.66   541.93
eigval :      548.07   555.49   569.29   574.53   579.54   588.15
eigval :      594.40   597.44   609.26   632.52   638.02   647.75
eigval :      668.23   672.62   674.57   683.31   694.16   700.91
eigval :      722.44   725.47   730.59   733.16   738.52   760.73
eigval :      766.13   777.65   777.84   779.19   779.40   801.18
eigval :      813.18   813.99   815.38   826.85   851.48   854.66
eigval :      866.94   868.93   871.52   871.79   879.95   898.01
eigval :      899.15   912.92   913.45   913.76   914.78   916.24
eigval :      917.20   918.87   922.66   922.83   923.74   924.22
eigval :      927.88   930.19   934.54   937.93   940.02   953.22
eigval :      956.66  1014.08  1017.31  1067.28  1076.05  1080.69
eigval :     1084.74  1085.01  1107.72  1114.51  1118.55  1119.90
eigval :     1125.45  1133.47  1139.90  1158.28  1165.08  1165.44
eigval :     1171.12  1177.29  1179.30  1183.98  1185.23  1187.07
eigval :     1188.09  1189.98  1207.60  1213.77  1219.17  1225.44
eigval :     1233.06  1243.97  1247.00  1250.48  1250.49  1257.56
eigval :     1264.64  1265.43  1269.51  1293.59  1306.78  1313.56
eigval :     1323.15  1330.51  1332.72  1333.26  1336.25  1338.15
eigval :     1357.66  1381.66  1385.99  1390.41  1392.36  1398.75
eigval :     1405.69  1407.61  1416.35  1417.40  1417.58  1434.48
eigval :     1438.20  1448.81  1455.41  1466.62  1475.57  1486.57
eigval :     1487.55  1489.09  1496.43  1497.73  1498.90  1503.87
eigval :     1507.51  1512.22  1555.44  1558.49  1562.92  1573.99
eigval :     1585.46  1588.16  1590.33  1590.60  1594.35  1600.43
eigval :     1607.17  1608.48  2348.19  2354.58  3021.57  3024.07
eigval :     3039.92  3042.10  3048.35  3052.68  3067.66  3069.85
eigval :     3072.90  3074.03  3074.38  3074.46  3074.95  3078.86
eigval :     3079.78  3079.82  3081.19  3081.28  3081.32  3081.92
eigval :     3081.97  3091.08  3091.46  3091.64  3091.73  3094.11
eigval :     3095.51  3096.94  3097.87  3098.51  3099.91  3127.35

   temp. (K)  partition function   enthalpy   heat capacity  entropy
                                   cal/mol     cal/K/mol   cal/K/mol   J/K/mol
 298.15  VIB  0.289E+20            25141.768    156.556    156.163
         ROT  0.112E+09              888.752      2.981     39.812
         INT  0.324E+28            26030.520    159.537    195.975
         TR   0.166E+29             1481.254      4.968     45.344
         TOT                       27511.7738   164.5051   241.3190  1009.6787

       T/K    H(0)-H(T)+PV         H(T)/Eh          T*S/Eh         G(T)/Eh
   ------------------------------------------------------------------------
    298.15    0.438428E-01    0.685672E+00    0.114658E+00    0.571013E+00
   ------------------------------------------------------------------------

         :::::::::::::::::::::::::::::::::::::::::::::::::::::
         ::                  THERMODYNAMIC                  ::
         :::::::::::::::::::::::::::::::::::::::::::::::::::::
         :: total free energy        -130.246576258789 Eh   ::
         ::.................................................::
         :: total energy             -130.817589480775 Eh   ::
         :: zero point energy           0.641828869422 Eh   ::
         :: G(RRHO) w/o ZPVE           -0.070815647437 Eh   ::
         :: G(RRHO) contrib.            0.571013221985 Eh   ::
         :::::::::::::::::::::::::::::::::::::::::::::::::::::

           -------------------------------------------------
          | TOTAL ENERGY             -130.817589480775 Eh   |
          | TOTAL ENTHALPY           -130.131917809077 Eh   |
          | TOTAL FREE ENERGY        -130.246576258789 Eh   |
          | GRADIENT NORM               0.000152774222 Eh/α |
          | HOMO-LUMO GAP               1.081408573025 eV   |
           -------------------------------------------------

 * finished run on 2025/09/10 at 21:49:18.795
