   * xtb version 6.7.1 (edcfbbe) compiled by 'albert@albert-system' on 2024-07-22

   ID    Z sym.   atoms
    1    6 C      1-9, 11-17, 19-29, 31-43, 45-52
    2    7 N      10, 18, 30, 44
    3    1 H      53-84

          program call               : xtb data2507/toluene/Na-DMAC/Na-DMAC_toluene_T1_crest.xyz --gfn 2 --uhf 2 --gbsa toluene --ohess vtight --parallel 40 --molden --ceasefiles --namespace data2507/toluene/Na-DMAC/Na-DMAC_toluene_T1_finalOpt
      * Solvation model:               GBSA
        Solvent                        toluene
        Solvent mass                       9.2140E+01 g/mol
          :  Hamiltonian                  GFN2-xTB          :
 * total energy  :  -130.7520105 Eh     change        0.5548645E-07 Eh
 * total energy  :  -130.7521504 Eh     change       -0.1399409E-03 Eh
 * total energy  :  -130.7520900 Eh     change        0.6042072E-04 Eh
 * total energy  :  -130.7522627 Eh     change       -0.1727110E-03 Eh
 * total energy  :  -130.7522909 Eh     change       -0.2815318E-04 Eh
 * total energy  :  -130.7523331 Eh     change       -0.4225706E-04 Eh
 * total energy  :  -130.7523944 Eh     change       -0.6129176E-04 Eh
 * total energy  :  -130.7524476 Eh     change       -0.5319262E-04 Eh
 * total energy  :  -130.7524979 Eh     change       -0.5031895E-04 Eh
 * total energy  :  -130.7525615 Eh     change       -0.6354520E-04 Eh
 * total energy  :  -130.7529435 Eh     change       -0.2349207E-06 Eh
 * total energy  :  -130.7529437 Eh     change       -0.2309647E-06 Eh
 * total energy  :  -130.7529439 Eh     change       -0.2323848E-06 Eh
 * total energy  :  -130.7529441 Eh     change       -0.2342055E-06 Eh
 * total energy  :  -130.7529444 Eh     change       -0.2165937E-06 Eh
 * total energy  :  -130.7529446 Eh     change       -0.2580742E-06 Eh
 * total energy  :  -130.7529449 Eh     change       -0.2493186E-06 Eh
 * total energy  :  -130.7529451 Eh     change       -0.2507688E-06 Eh
 * total energy  :  -130.7529451 Eh     change       -0.9570158E-09 Eh
   *** GEOMETRY OPTIMIZATION CONVERGED AFTER 68 ITERATIONS ***

 final structure:
================
84
 xtb: 6.7.1 (edcfbbe)
C            8.75614654286509       -0.30381290430834       -1.21349856209026
C            7.87179540803854       -0.00429947302777        0.01379725297559
C            8.75453024816844        0.29406967846785        1.24252267392225
C            7.02776287864699        1.21660651603844       -0.28006027668736
C            7.64223374436356        2.42687075618091       -0.57227227648624
C            6.91324119345103        3.57154595707550       -0.83920746262257
C            5.52631189923689        3.52383270600378       -0.81350614887790
C            4.88735817021561        2.33866648733257       -0.52868097819565
C            5.62344992126994        1.17362244415212       -0.26297836499561
N            4.95869708944649       -0.00257392211503        0.01068028427959
C            3.53239457690432       -0.00175858056816        0.00904066125837
C            2.84051531747645        0.26781460356734        1.18259897081747
C            1.45882932016443        0.26988977750618        1.17773399496125
C            0.76201205822291       -0.00025664747676        0.00589255482979
C           -0.71781667856924        0.00067062636421        0.00417221784663
C           -1.40425558682925       -1.21114082616343       -0.08769649445920
C           -0.66972855065579       -2.37220199586379       -0.31538660231324
N            0.00167357072712       -3.29227674905790       -0.51410254245638
C           -2.85515691053135       -1.17207644079333       -0.02890748226401
C           -3.66498968927478       -2.36791931207525       -0.00103770490547
C           -3.17777842697779       -3.50618229396193        0.63778426394440
C           -3.94940977059511       -4.65374182674736        0.77477066764846
C           -5.22783471602780       -4.69571533965083        0.27416448611726
C           -5.76968925692297       -3.57780195623352       -0.39241936433032
C           -7.08153258642553       -3.61082366024157       -0.90887627788977
C           -7.60701358855864       -2.53763730051537       -1.57950420351357
C           -6.82882828262003       -1.39361566116265       -1.77233010517787
C           -5.54660071190964       -1.33406062504177       -1.28205389894633
C           -4.98847501175969       -2.39907656737112       -0.55408337431696
N           -3.44887807079883        0.00250546218467        0.00085313090634
C           -2.85362834719247        1.17621347599600        0.03196504925537
C           -3.66179078065080        2.37320320864434        0.00172605685827
C           -3.17182458887926        3.51025171433935       -0.63705045579274
C           -3.94170032528151        4.65873337452283       -0.77646486536114
C           -5.22096116951460        4.70283277954581       -0.27823615883355
C           -5.76552069782651        3.58622211269189        0.38833430694084
C           -7.07819727768042        3.62145949316049        0.90252651995283
C           -7.60628055838869        2.54953677608350        1.57310515123178
C           -6.83000378204142        1.40457756952382        1.76816604094963
C           -5.54706334658029        1.34283120480555        1.28008990824306
C           -4.98621552725691        2.40655994504507        0.55230280519568
C           -1.40286555027306        1.21341855823060        0.09433644414989
C           -0.66757940513261        2.37367386113997        0.32360421159395
N            0.00427512180156        3.29309341446399        0.52381105419627
C            1.46119515204229       -0.27116139986162       -1.16436202920194
C            2.84289271269968       -0.27056663627186       -1.16609224438026
C            5.62146565502407       -1.17950191840637        0.28601046227869
C            4.88343607739621       -2.34365823525121        0.55022419056390
C            5.52038328459334       -3.52952953666352        0.83661140417680
C            6.90719357215023       -3.57884726076820        0.86541310419111
C            7.63810608164519       -2.43506993808594        0.59989107834415
C            7.02569018655436       -1.22412348270256        0.30618657270672
H            8.13199135284523       -0.52472296655371       -2.07720251996655
H            9.38488475176891        0.54849386517631       -1.45188093483567
H            9.39741285902509       -1.15924281003695       -1.02479103426249
H            9.38174980588563       -0.55905022834856        1.48197995688935
H            8.12923957539207        0.51585075393779        2.10517419067472
H            9.39726699881769        1.14861834499890        1.05484558507771
H            8.71892974408164        2.48440954089006       -0.59290805534782
H            7.42197979705851        4.49640625374146       -1.06332760182635
H            4.94279792664030        4.40917634502684       -1.01424564780614
H            3.80940971224180        2.30588645036765       -0.50596334175381
H            3.38391532230426        0.47628385088976        2.09177127986132
H            0.91603592393088        0.47970993801014        2.08760850472111
H           -2.19228604561268       -3.48838310568022        1.07878810312576
H           -3.53524235948763       -5.50788571185968        1.29047006359760
H           -5.83190858401214       -5.58478251350445        0.38030643190084
H           -7.66827110763933       -4.50639776507912       -0.76078141969786
H           -8.61377333670941       -2.57519625671534       -1.96942230594848
H           -7.23367474796908       -0.55335272145753       -2.31725042357323
H           -4.95546936625349       -0.44895495378866       -1.45560533324877
H           -2.18549042274561        3.49075243607211       -1.07611763743434
H           -3.52545291055101        5.51187928447988       -1.29214171613622
H           -5.82366722431570        5.59260308139747       -0.38627654218857
H           -7.66344369872222        4.51772715089796        0.75275213006190
H           -8.61363982073828        2.58880758750137        1.96130273399818
H           -7.23695196180269        0.56532137293254        2.31307337560652
H           -4.95748258600900        0.45700747122415        1.45524101051377
H            0.92023790966982       -0.48043945665564       -2.07545583896020
H            3.38811485230739       -0.47954156435649       -2.07405835819627
H            3.80558113958799       -2.30964386794110        0.52509127269555
H            4.93540847041997       -4.41417633184446        1.03616501209153
H            7.41435924777297       -4.50426792760328        1.09077735369178
H            8.71468672647914       -2.49389654460424        0.62285313053996

          :  Hamiltonian                  GFN2-xTB          :
         :: gradient norm              0.000040946866 Eh/a0 ::
         :: HOMO-LUMO gap              0.442952140329 eV    ::
         :: SCC energy              -133.241953181209 Eh    ::
         :: -> dispersion             -0.124357151626 Eh    ::
         :: -> Gsolv                  -0.066094089202 Eh    ::
         :: repulsion energy           2.489008054987 Eh    ::

    * Orbital Energies and Occupations

         #    Occupation            Energy/Eh            Energy/eV
      -------------------------------------------------------------
         1        2.0000           -0.6942982             -18.8928
       ...           ...                  ...                  ...
       111        2.0000           -0.4174478             -11.3593
       112        2.0000           -0.4172320             -11.3535
       113        2.0000           -0.4163299             -11.3289
       114        2.0000           -0.4113465             -11.1933
       115        2.0000           -0.4112287             -11.1901
       116        2.0000           -0.4052753             -11.0281
       117        2.0000           -0.4025919             -10.9551
       118        2.0000           -0.4025732             -10.9546
       119        1.9999           -0.3785143             -10.2999
       120        1.9999           -0.3780131             -10.2863
       121        1.5243           -0.3695291             -10.0554
       122        1.4759           -0.3693448             -10.0504
       123        0.9998           -0.2957068              -8.0466 (HOMO)
       124        0.0002           -0.2794286              -7.6036 (LUMO)
       125                         -0.2608833              -7.0990
       126                         -0.2499704              -6.8020
       127                         -0.2478751              -6.7450
       128                         -0.2471894              -6.7264
       129                         -0.2465853              -6.7099
       130                         -0.2375922              -6.4652
       131                         -0.2367272              -6.4417
       132                         -0.2291250              -6.2348
       133                         -0.2290377              -6.2324
       134                         -0.2136922              -5.8149
       ...                                ...                  ...
       240                          1.1552306              31.4354
      -------------------------------------------------------------
                  HL-Gap            0.0162782 Eh            0.4430 eV

     #   Z          covCN         q      C6AA      α(0)
     1   6 C        3.761    -0.109    22.632     6.782
     2   6 C        3.909     0.025    20.097     6.372
     3   6 C        3.761    -0.109    22.632     6.782
     4   6 C        2.978     0.001    27.990     8.678
     5   6 C        2.925    -0.031    28.776     8.797
     6   6 C        2.917    -0.028    28.709     8.786
     7   6 C        2.917    -0.025    28.625     8.774
     8   6 C        2.922    -0.046    29.136     8.852
     9   6 C        2.930     0.061    26.636     8.464
    10   7 N        2.755    -0.014    21.526     6.891
    11   6 C        2.932     0.062    26.606     8.459
    12   6 C        2.920    -0.033    28.829     8.805
    13   6 C        2.924    -0.025    28.633     8.775
    14   6 C        2.980     0.011    27.755     8.642
    15   6 C        3.003     0.027    27.377     8.583
    16   6 C        2.966    -0.035    28.861     8.812
    17   6 C        1.912     0.109    28.417     8.609
    18   7 N        0.911    -0.333    28.552     7.728
    19   6 C        2.925     0.079    26.238     8.400
    20   6 C        2.972    -0.006    28.159     8.704
    21   6 C        2.922    -0.038    28.949     8.823
    22   6 C        2.911    -0.031    28.768     8.795
    23   6 C        2.919    -0.040    28.985     8.829
    24   6 C        2.985     0.013    27.726     8.637
    25   6 C        2.921    -0.035    28.880     8.813
    26   6 C        2.914    -0.029    28.724     8.788
    27   6 C        2.916    -0.030    28.755     8.793
    28   6 C        2.918    -0.032    28.801     8.801
    29   6 C        2.982     0.012    27.749     8.641
    30   7 N        1.854    -0.214    26.511     7.631
    31   6 C        2.925     0.079    26.237     8.400
    32   6 C        2.972    -0.006    28.159     8.704
    33   6 C        2.922    -0.038    28.949     8.823
    34   6 C        2.911    -0.031    28.768     8.795
    35   6 C        2.919    -0.040    28.984     8.829
    36   6 C        2.985     0.013    27.726     8.637
    37   6 C        2.921    -0.035    28.880     8.813
    38   6 C        2.914    -0.029    28.724     8.788
    39   6 C        2.916    -0.030    28.755     8.793
    40   6 C        2.918    -0.032    28.801     8.801
    41   6 C        2.982     0.012    27.749     8.641
    42   6 C        2.966    -0.035    28.861     8.812
    43   6 C        1.912     0.109    28.417     8.609
    44   7 N        0.911    -0.333    28.552     7.728
    45   6 C        2.924    -0.025    28.633     8.775
    46   6 C        2.920    -0.033    28.829     8.805
    47   6 C        2.930     0.061    26.636     8.464
    48   6 C        2.922    -0.046    29.136     8.852
    49   6 C        2.917    -0.025    28.625     8.774
    50   6 C        2.917    -0.028    28.709     8.786
    51   6 C        2.925    -0.031    28.776     8.797
    52   6 C        2.978     0.001    27.990     8.678
    53   1 H        0.925     0.039     2.465     2.455
    54   1 H        0.925     0.055     2.264     2.353
    55   1 H        0.925     0.055     2.263     2.353
    56   1 H        0.925     0.055     2.264     2.353
    57   1 H        0.925     0.039     2.464     2.455
    58   1 H        0.925     0.055     2.263     2.353
    59   1 H        0.926     0.055     2.252     2.347
    60   1 H        0.926     0.049     2.338     2.391
    61   1 H        0.926     0.045     2.379     2.412
    62   1 H        0.926     0.039     2.457     2.451
    63   1 H        0.926     0.057     2.229     2.334
    64   1 H        0.926     0.042     2.429     2.437
    65   1 H        0.926     0.024     2.667     2.554
    66   1 H        0.926     0.033     2.540     2.492
    67   1 H        0.926     0.038     2.480     2.463
    68   1 H        0.926     0.038     2.473     2.459
    69   1 H        0.926     0.037     2.491     2.468
    70   1 H        0.926     0.033     2.543     2.494
    71   1 H        0.926     0.044     2.394     2.420
    72   1 H        0.926     0.024     2.668     2.554
    73   1 H        0.926     0.033     2.540     2.492
    74   1 H        0.926     0.038     2.480     2.463
    75   1 H        0.926     0.038     2.473     2.459
    76   1 H        0.926     0.037     2.491     2.468
    77   1 H        0.926     0.033     2.543     2.494
    78   1 H        0.926     0.044     2.395     2.420
    79   1 H        0.926     0.042     2.429     2.437
    80   1 H        0.926     0.057     2.229     2.334
    81   1 H        0.926     0.039     2.457     2.451
    82   1 H        0.926     0.045     2.379     2.412
    83   1 H        0.926     0.049     2.338     2.391
    84   1 H        0.926     0.055     2.252     2.347

molecular dipole:
                 x           y           z       tot (Debye)
 q only:        4.860      -0.003       0.005
   full:        4.495      -0.002       0.005      11.426

 projected vibrational frequencies (cm⁻¹)
eigval :       -0.00    -0.00    -0.00     0.00     0.00     0.00
eigval :        8.96    13.12    16.22    25.29    27.41    27.91
eigval :       32.01    41.70    41.96    47.50    51.31    62.32
eigval :       75.87    93.56    95.30    98.76   104.22   112.07
eigval :      129.46   130.65   144.24   163.35   167.55   175.10
eigval :      180.20   188.07   203.13   208.34   219.80   225.82
eigval :      238.50   247.95   248.44   256.57   264.87   275.82
eigval :      301.40   301.45   316.23   325.68   340.40   369.47
eigval :      370.47   375.44   378.65   394.33   397.01   397.98
eigval :      405.43   411.94   425.64   438.34   438.97   448.69
eigval :      458.15   460.94   483.59   486.21   490.21   499.84
eigval :      500.76   501.73   511.54   513.95   518.34   524.61
eigval :      538.33   541.09   552.87   569.43   576.84   579.09
eigval :      583.00   587.21   597.94   621.00   625.71   629.57
eigval :      634.31   658.35   667.43   680.24   688.18   698.32
eigval :      701.84   716.90   717.53   726.89   729.93   752.46
eigval :      752.56   774.53   774.86   775.06   776.49   781.91
eigval :      792.16   792.90   811.40   826.88   848.50   849.62
eigval :      857.71   861.71   867.08   871.51   871.95   872.97
eigval :      873.55   905.12   906.65   907.55   908.43   911.43
eigval :      913.09   915.29   917.56   917.82   921.69   922.32
eigval :      923.03   926.43   926.79   928.04   936.61   945.39
eigval :      958.70  1012.49  1016.56  1071.56  1072.51  1083.65
eigval :     1088.53  1089.50  1101.79  1104.37  1108.52  1125.74
eigval :     1127.35  1130.63  1136.53  1137.52  1143.80  1160.10
eigval :     1162.12  1165.43  1176.13  1178.63  1179.63  1180.19
eigval :     1181.07  1184.04  1192.46  1201.33  1205.85  1219.82
eigval :     1225.57  1231.82  1233.72  1239.57  1249.44  1253.60
eigval :     1256.12  1262.72  1263.49  1290.88  1297.80  1303.92
eigval :     1310.87  1313.58  1317.14  1327.48  1327.56  1334.22
eigval :     1334.79  1345.94  1355.08  1377.18  1377.53  1396.17
eigval :     1396.96  1399.68  1406.72  1408.26  1409.59  1414.10
eigval :     1414.38  1417.14  1426.93  1438.14  1441.30  1451.00
eigval :     1472.40  1480.39  1481.25  1486.66  1491.15  1495.21
eigval :     1499.75  1500.92  1520.84  1529.76  1543.48  1544.21
eigval :     1546.73  1559.41  1564.22  1574.31  1583.09  1583.27
eigval :     1585.21  1594.54  2258.41  2293.20  3030.12  3031.98
eigval :     3051.97  3054.09  3058.77  3062.83  3067.85  3067.89
eigval :     3071.86  3071.92  3074.49  3074.67  3081.29  3081.34
eigval :     3083.36  3085.06  3085.09  3085.91  3087.60  3087.74
eigval :     3090.88  3091.81  3094.73  3094.76  3095.97  3097.55
eigval :     3101.63  3102.06  3104.19  3104.42  3110.04  3110.39

   temp. (K)  partition function   enthalpy   heat capacity  entropy
                                   cal/mol     cal/K/mol   cal/K/mol   J/K/mol
 298.15  VIB  0.812E+20            25379.335    157.530    157.697
         ROT  0.543E+08              888.752      2.981     38.373
         INT  0.440E+28            26268.087    160.511    196.070
         TR   0.166E+29             1481.254      4.968     45.344
         TOT                       27749.3412   165.4794   241.4140  1010.0763

       T/K    H(0)-H(T)+PV         H(T)/Eh          T*S/Eh         G(T)/Eh
   ------------------------------------------------------------------------
    298.15    0.442214E-01    0.682111E+00    0.114704E+00    0.567408E+00
   ------------------------------------------------------------------------

         :::::::::::::::::::::::::::::::::::::::::::::::::::::
         ::                  THERMODYNAMIC                  ::
         :::::::::::::::::::::::::::::::::::::::::::::::::::::
         :: total free energy        -130.185537320507 Eh   ::
         ::.................................................::
         :: total energy             -130.752945123459 Eh   ::
         :: zero point energy           0.637890009226 Eh   ::
         :: G(RRHO) w/o ZPVE           -0.070482206274 Eh   ::
         :: G(RRHO) contrib.            0.567407802952 Eh   ::
         :::::::::::::::::::::::::::::::::::::::::::::::::::::

           -------------------------------------------------
          | TOTAL ENERGY             -130.752945123459 Eh   |
          | TOTAL ENTHALPY           -130.070833724189 Eh   |
          | TOTAL FREE ENERGY        -130.185537320507 Eh   |
          | GRADIENT NORM               0.000044197450 Eh/α |
          | HOMO-LUMO GAP               0.442952621229 eV   |
           -------------------------------------------------

 * finished run on 2025/09/10 at 22:03:40.224
