   * xtb version 6.7.1 (edcfbbe) compiled by 'albert@albert-system' on 2024-07-22

   ID    Z sym.   atoms
    1    6 C      1-9, 11-17, 19-29, 31-43, 45-52
    2    7 N      10, 18, 30, 44
    3    1 H      53-84

          program call               : xtb data2507/toluene/Na-DMAC/Na-DMAC_toluene_S0_finalOpt.xtbopt.xyz --gfn 2 --uhf 2 --gbsa toluene --ohess vtight --parallel 40 --molden --ceasefiles --namespace data2507/toluene/Na-DMAC/Na-DMAC_toluene_T1_preOpt
      * Solvation model:               GBSA
        Solvent                        toluene
        Solvent mass                       9.2140E+01 g/mol
          :  Hamiltonian                  GFN2-xTB          :
 * total energy  :  -130.7449468 Eh     change       -0.3078910E-07 Eh
 * total energy  :  -130.7475370 Eh     change       -0.2590237E-02 Eh
 * total energy  :  -130.7487253 Eh     change       -0.1188262E-02 Eh
 * total energy  :  -130.7490361 Eh     change       -0.3108237E-03 Eh
 * total energy  :  -130.7492924 Eh     change       -0.2563496E-03 Eh
 * total energy  :  -130.7494467 Eh     change       -0.1542347E-03 Eh
 * total energy  :  -130.7496250 Eh     change       -0.1782981E-03 Eh
 * total energy  :  -130.7498273 Eh     change       -0.2023177E-03 Eh
 * total energy  :  -130.7500223 Eh     change       -0.1949864E-03 Eh
 * total energy  :  -130.7501937 Eh     change       -0.1714361E-03 Eh
 * total energy  :  -130.7513502 Eh     change       -0.1086004E-06 Eh
 * total energy  :  -130.7513503 Eh     change       -0.8341456E-07 Eh
 * total energy  :  -130.7513504 Eh     change       -0.1531759E-06 Eh
 * total energy  :  -130.7513506 Eh     change       -0.1597600E-06 Eh
 * total energy  :  -130.7513507 Eh     change       -0.1485344E-06 Eh
 * total energy  :  -130.7513509 Eh     change       -0.1812755E-06 Eh
 * total energy  :  -130.7513511 Eh     change       -0.2074484E-06 Eh
 * total energy  :  -130.7513512 Eh     change       -0.1049697E-06 Eh
 * total energy  :  -130.7513512 Eh     change       -0.1643616E-07 Eh
   *** GEOMETRY OPTIMIZATION CONVERGED AFTER 78 ITERATIONS ***

 final structure:
================
84
 xtb: 6.7.1 (edcfbbe)
C            8.43059252195449       -0.33044269917137       -1.25278091556143
C            7.58479571318829        0.19074121367546       -0.07336482190851
C            8.50465171535228        0.69992867598556        1.05490764801217
C            6.73301498501261        1.34141289776219       -0.56261179621468
C            7.34044327390031        2.47142310270653       -1.09404392761282
C            6.60564928449399        3.54228560901995       -1.56931070209198
C            5.21920999578944        3.49447237365576       -1.52829424700907
C            4.58741468591041        2.38869921760254       -1.00665210747624
C            5.32941181130868        1.30665452842963       -0.50782013422418
N            4.67169783526463        0.21300039022667        0.01655419184466
C            3.24787152024028        0.22401230488781        0.06161897398149
C            2.59174056024873        0.94158177766011        1.05424027584804
C            1.21138584046731        0.95331592855137        1.09371941156985
C            0.47368996272237        0.24235088579771        0.15188976875859
C           -0.99920511555400        0.24383840320728        0.20618369819561
C           -1.68542155640121       -0.97464886849143        0.28181341787019
C           -0.99851368797590       -2.15689859156814        0.53916659323946
N           -0.40459312212917       -3.11805590423400        0.78278814793598
C           -3.12979972178699       -0.92931206537091        0.23687657741191
C           -3.93269682195911       -2.14514271276532        0.25456611568305
C           -5.00756169832413       -2.20977594122988        1.12342872569067
C           -5.75402143655212       -3.37976966312314        1.26221658538284
C           -5.42571949520768       -4.49766386628066        0.54025594606447
C           -4.37833310272558       -4.46060262765112       -0.40368306510335
C           -4.07103272063178       -5.58261555937953       -1.20198715801551
C           -3.10598688017593       -5.51619584141187       -2.16863438232472
C           -2.42631848458439       -4.31275951251213       -2.39544371121381
C           -2.68780544746086       -3.21310620846259       -1.62241508315740
C           -3.63518938115795       -3.26194655524317       -0.58080845039865
N           -3.74888420305933        0.21971654183925        0.30110664338293
C           -3.15188456293275        1.40964425805182        0.31191444455998
C           -3.94398071059308        2.59458646734683        0.45208220458391
C           -3.37555870498226        3.73558147917118        1.04171176264473
C           -4.11576207326416        4.87661279289158        1.29083373494637
C           -5.45292404871629        4.93184362305069        0.95579179480617
C           -6.07938596363008        3.82425116111926        0.35091451927526
C           -7.44560450598903        3.87018874189216        0.00709442026004
C           -8.06069866013513        2.81063355990539       -0.61459766638609
C           -7.32280589479288        1.66915930261579       -0.92004328550567
C           -5.98342346234099        1.59912222581891       -0.59755463107585
C           -5.33134752158326        2.64432964941949        0.07229928515916
C           -1.70253628339170        1.44684348756004        0.17666350656734
C           -0.99604766714766        2.60385546920651       -0.15343725180424
N           -0.35684759598327        3.51335406971157       -0.46952031196559
C            1.13933741200017       -0.47979526868350       -0.83388367408898
C            2.51927290144069       -0.48504537528125       -0.88557912946665
C            5.34354389331448       -0.89141873772789        0.49895286489319
C            4.61756962994168       -1.96230386206997        1.04337574267736
C            5.26359570087190       -3.07873738864676        1.52334960933371
C            6.64884797817495       -3.14877785470513        1.47583528327587
C            7.36900330692247       -2.08847343670586        0.95660672189191
C            6.74712889929183       -0.94810374445403        0.46551122558511
H            9.06896363472545       -1.14937884212706       -0.93599260676884
H            7.77928827761949       -0.68799660112988       -2.04795085535921
H            9.06053781013584        0.45823459605353       -1.65236665388844
H            7.90565180415757        1.06883950959884        1.88529371996079
H            9.13647175416907        1.50848145962986        0.70037995872700
H            9.14377453901376       -0.09826189542049        1.41957754250626
H            8.41656054792071        2.52224113660250       -1.14242314418109
H            7.10905331026140        4.40633905350954       -1.97471753246014
H            4.62974603010701        4.31660318915823       -1.90402825174561
H            3.50969658628129        2.35504842717817       -0.98313712183834
H            3.16315600718557        1.48745765081642        1.78961979825701
H            0.70030501540063        1.50679002154632        1.86753224438789
H           -5.24335684415385       -1.34199593959059        1.72223597825700
H           -6.57629485979549       -3.40188403431628        1.96232491156767
H           -5.97605832683105       -5.41832142477015        0.66934735816506
H           -4.62693459205475       -6.49555677352312       -1.04210844836845
H           -2.87673652023710       -6.38026157841928       -2.77493253759594
H           -1.69579022013552       -4.25339018620090       -3.18916680747962
H           -2.17593478708937       -2.28404039493804       -1.82915997944882
H           -2.34287067916392        3.70952701554505        1.35481253725724
H           -3.63846086428275        5.72331933129457        1.76273480362119
H           -6.03068749465625        5.82433527116046        1.14437106463764
H           -8.00528942874142        4.76258549477244        0.24894910719570
H           -9.10820829151089        2.86235873369506       -0.87333798196330
H           -7.79555167700032        0.83876555179836       -1.42367057081127
H           -5.42135920499985        0.71853285370623       -0.86627577605921
H            0.57298283743418       -1.03049386999421       -1.57018209396607
H            3.03435773785492       -1.03908219817039       -1.65565800137793
H            3.54109368155860       -1.91201674316986        1.08844805030013
H            4.68600074054458       -3.89199643830772        1.93512577337905
H            7.16307062071071       -4.02150162325584        1.84767085732409
H            8.44512604386116       -2.15605173516777        0.93754506883680

          :  Hamiltonian                  GFN2-xTB          :
         :: gradient norm              0.000143815667 Eh/a0 ::
         :: HOMO-LUMO gap              0.353359379977 eV    ::
         :: SCC energy              -133.239528523400 Eh    ::
         :: -> dispersion             -0.124167305453 Eh    ::
         :: -> Gsolv                  -0.066782546599 Eh    ::
         :: repulsion energy           2.488177296572 Eh    ::

    * Orbital Energies and Occupations

         #    Occupation            Energy/Eh            Energy/eV
      -------------------------------------------------------------
         1        2.0000           -0.6947892             -18.9062
       ...           ...                  ...                  ...
       111        2.0000           -0.4185298             -11.3888
       112        2.0000           -0.4173741             -11.3573
       113        2.0000           -0.4168931             -11.3442
       114        2.0000           -0.4114963             -11.1974
       115        2.0000           -0.4094648             -11.1421
       116        2.0000           -0.4043446             -11.0028
       117        2.0000           -0.4031275             -10.9697
       118        2.0000           -0.4028340             -10.9617
       119        2.0000           -0.3796075             -10.3296
       120        1.9999           -0.3782494             -10.2927
       121        1.5227           -0.3698730             -10.0648
       122        1.4775           -0.3697012             -10.0601
       123        0.9989           -0.2947239              -8.0198 (HOMO)
       124        0.0011           -0.2817384              -7.6665 (LUMO)
       125                         -0.2660484              -7.2395
       126                         -0.2505903              -6.8189
       127                         -0.2496336              -6.7929
       128                         -0.2469518              -6.7199
       129                         -0.2393234              -6.5123
       130                         -0.2373801              -6.4594
       131                         -0.2369666              -6.4482
       132                         -0.2308653              -6.2822
       133                         -0.2281948              -6.2095
       134                         -0.2143846              -5.8337
       ...                                ...                  ...
       240                          1.1604302              31.5769
      -------------------------------------------------------------
                  HL-Gap            0.0129855 Eh            0.3534 eV

     #   Z          covCN         q      C6AA      α(0)
     1   6 C        3.761    -0.109    22.634     6.782
     2   6 C        3.909     0.025    20.097     6.372
     3   6 C        3.761    -0.109    22.632     6.782
     4   6 C        2.978     0.002    27.987     8.678
     5   6 C        2.925    -0.031    28.775     8.797
     6   6 C        2.917    -0.028    28.705     8.786
     7   6 C        2.918    -0.025    28.625     8.774
     8   6 C        2.922    -0.046    29.141     8.852
     9   6 C        2.929     0.061    26.642     8.465
    10   7 N        2.755    -0.014    21.516     6.889
    11   6 C        2.931     0.063    26.597     8.458
    12   6 C        2.920    -0.034    28.835     8.806
    13   6 C        2.924    -0.025    28.626     8.774
    14   6 C        2.979     0.011    27.771     8.644
    15   6 C        2.999     0.025    27.432     8.592
    16   6 C        2.967    -0.036    28.880     8.815
    17   6 C        1.908     0.109    28.415     8.609
    18   7 N        0.911    -0.333    28.573     7.731
    19   6 C        2.932     0.089    26.015     8.365
    20   6 C        2.976    -0.006    28.162     8.705
    21   6 C        2.924    -0.032    28.793     8.800
    22   6 C        2.912    -0.031    28.769     8.795
    23   6 C        2.919    -0.037    28.928     8.820
    24   6 C        2.986     0.012    27.732     8.638
    25   6 C        2.920    -0.035    28.868     8.811
    26   6 C        2.915    -0.030    28.738     8.791
    27   6 C        2.916    -0.030    28.744     8.792
    28   6 C        2.918    -0.031    28.773     8.796
    29   6 C        2.984     0.007    27.851     8.657
    30   7 N        1.852    -0.229    26.852     7.680
    31   6 C        2.927     0.072    26.380     8.423
    32   6 C        2.969    -0.005    28.135     8.701
    33   6 C        2.921    -0.041    29.016     8.834
    34   6 C        2.909    -0.030    28.749     8.792
    35   6 C        2.919    -0.042    29.040     8.837
    36   6 C        2.984     0.013    27.720     8.636
    37   6 C        2.922    -0.034    28.853     8.809
    38   6 C        2.914    -0.028    28.712     8.787
    39   6 C        2.916    -0.030    28.756     8.794
    40   6 C        2.918    -0.031    28.781     8.797
    41   6 C        2.980     0.011    27.767     8.644
    42   6 C        2.966    -0.031    28.770     8.798
    43   6 C        1.914     0.110    28.377     8.603
    44   7 N        0.911    -0.330    28.489     7.720
    45   6 C        2.925    -0.025    28.616     8.773
    46   6 C        2.920    -0.034    28.838     8.806
    47   6 C        2.929     0.061    26.642     8.465
    48   6 C        2.922    -0.046    29.140     8.852
    49   6 C        2.918    -0.025    28.625     8.774
    50   6 C        2.917    -0.028    28.704     8.786
    51   6 C        2.925    -0.031    28.775     8.797
    52   6 C        2.978     0.002    27.986     8.678
    53   1 H        0.925     0.055     2.263     2.352
    54   1 H        0.925     0.039     2.463     2.454
    55   1 H        0.925     0.055     2.264     2.353
    56   1 H        0.925     0.039     2.465     2.455
    57   1 H        0.925     0.055     2.263     2.352
    58   1 H        0.925     0.055     2.264     2.353
    59   1 H        0.926     0.056     2.251     2.346
    60   1 H        0.926     0.049     2.336     2.390
    61   1 H        0.926     0.046     2.374     2.409
    62   1 H        0.926     0.040     2.446     2.446
    63   1 H        0.926     0.058     2.227     2.334
    64   1 H        0.926     0.041     2.433     2.439
    65   1 H        0.926     0.036     2.500     2.473
    66   1 H        0.926     0.038     2.478     2.462
    67   1 H        0.926     0.039     2.456     2.451
    68   1 H        0.926     0.039     2.459     2.452
    69   1 H        0.926     0.038     2.480     2.463
    70   1 H        0.926     0.033     2.547     2.496
    71   1 H        0.926     0.017     2.786     2.610
    72   1 H        0.926     0.024     2.680     2.560
    73   1 H        0.926     0.032     2.552     2.498
    74   1 H        0.926     0.037     2.495     2.470
    75   1 H        0.926     0.039     2.463     2.454
    76   1 H        0.926     0.038     2.476     2.461
    77   1 H        0.926     0.035     2.511     2.478
    78   1 H        0.926     0.051     2.313     2.378
    79   1 H        0.926     0.041     2.437     2.441
    80   1 H        0.926     0.058     2.227     2.334
    81   1 H        0.926     0.040     2.452     2.449
    82   1 H        0.926     0.046     2.376     2.410
    83   1 H        0.926     0.049     2.336     2.390
    84   1 H        0.926     0.056     2.250     2.346

molecular dipole:
                 x           y           z       tot (Debye)
 q only:        5.120      -0.209      -0.270
   full:        4.775      -0.155      -0.221      12.155

 projected vibrational frequencies (cm⁻¹)
eigval :       -0.00    -0.00    -0.00     0.00     0.00     0.00
eigval :       -8.91    14.14    17.05    21.73    25.55    28.54
eigval :       30.46    36.81    43.64    54.59    60.24    63.74
eigval :       79.11    92.41    98.24    98.84   109.57   116.17
eigval :      125.51   129.36   148.36   148.49   161.65   172.68
eigval :      178.29   193.43   204.85   208.90   212.04   218.46
eigval :      229.50   235.11   249.93   258.25   262.82   289.92
eigval :      301.28   304.80   314.60   325.23   338.68   365.56
eigval :      370.67   376.64   381.88   390.39   399.21   399.93
eigval :      403.12   411.04   425.43   433.37   440.92   447.08
eigval :      455.53   463.42   478.80   484.22   494.91   497.05
eigval :      498.99   499.96   509.47   513.65   519.36   519.83
eigval :      539.69   541.18   551.95   568.68   572.12   581.83
eigval :      588.30   592.46   594.22   621.65   627.12   631.69
eigval :      634.86   657.12   666.90   675.25   687.10   697.78
eigval :      701.74   712.54   719.87   725.45   731.09   744.76
eigval :      757.19   773.12   773.56   775.27   775.61   777.80
eigval :      791.27   805.97   810.08   827.01   847.99   851.48
eigval :      852.29   860.88   862.05   872.31   873.45   873.71
eigval :      884.02   900.87   905.32   907.90   909.58   913.54
eigval :      914.13   914.54   917.75   918.12   918.84   921.22
eigval :      925.28   925.30   926.45   934.73   937.72   947.08
eigval :      961.88  1013.56  1015.38  1067.67  1072.78  1084.71
eigval :     1085.83  1089.48  1094.61  1104.78  1110.25  1119.16
eigval :     1126.22  1133.25  1137.72  1141.17  1144.08  1157.69
eigval :     1164.02  1167.23  1175.25  1179.05  1179.53  1180.70
eigval :     1183.56  1185.81  1190.95  1199.95  1206.55  1216.24
eigval :     1224.55  1229.68  1233.87  1241.65  1249.95  1254.80
eigval :     1257.59  1262.31  1263.80  1281.03  1291.06  1306.21
eigval :     1309.26  1312.77  1317.88  1326.79  1331.12  1333.60
eigval :     1337.41  1344.22  1359.38  1376.63  1381.97  1390.28
eigval :     1398.62  1400.06  1406.39  1408.60  1414.10  1416.74
eigval :     1418.59  1419.15  1426.81  1443.96  1447.78  1451.00
eigval :     1471.54  1481.61  1482.96  1484.02  1488.58  1492.48
eigval :     1496.91  1503.34  1515.76  1519.12  1542.29  1546.63
eigval :     1559.05  1561.21  1563.21  1567.73  1574.12  1584.19
eigval :     1591.58  1600.53  2258.72  2294.20  3030.57  3032.96
eigval :     3051.79  3053.77  3058.50  3062.35  3066.80  3068.12
eigval :     3069.35  3071.76  3072.81  3076.38  3077.23  3078.69
eigval :     3083.07  3084.09  3085.41  3086.08  3087.34  3088.40
eigval :     3089.51  3089.65  3095.04  3096.01  3096.27  3097.19
eigval :     3097.48  3098.84  3104.80  3105.05  3111.18  3112.75

   temp. (K)  partition function   enthalpy   heat capacity  entropy
                                   cal/mol     cal/K/mol   cal/K/mol   J/K/mol
 298.15  VIB  0.783E+20            25402.081    157.823    157.859
         ROT  0.111E+09              888.752      2.981     39.798
         INT  0.870E+28            26290.833    160.804    197.657
         TR   0.166E+29             1481.254      4.968     45.344
         TOT                       27772.0874   165.7724   243.0009  1016.7158

       T/K    H(0)-H(T)+PV         H(T)/Eh          T*S/Eh         G(T)/Eh
   ------------------------------------------------------------------------
    298.15    0.442576E-01    0.682051E+00    0.115458E+00    0.566593E+00
   ------------------------------------------------------------------------

         :::::::::::::::::::::::::::::::::::::::::::::::::::::
         ::                  THERMODYNAMIC                  ::
         :::::::::::::::::::::::::::::::::::::::::::::::::::::
         :: total free energy        -130.184758213850 Eh   ::
         ::.................................................::
         :: total energy             -130.751351227496 Eh   ::
         :: zero point energy           0.637792953647 Eh   ::
         :: G(RRHO) w/o ZPVE           -0.071199940002 Eh   ::
         :: G(RRHO) contrib.            0.566593013646 Eh   ::
         :::::::::::::::::::::::::::::::::::::::::::::::::::::

           -------------------------------------------------
          | TOTAL ENERGY             -130.751351227496 Eh   |
          | TOTAL ENTHALPY           -130.069300635461 Eh   |
          | TOTAL FREE ENERGY        -130.184758213850 Eh   |
          | GRADIENT NORM               0.000143827147 Eh/α |
          | HOMO-LUMO GAP               0.353352549255 eV   |
           -------------------------------------------------

 * finished run on 2025/09/10 at 21:56:20.294
