   * xtb version 6.7.1 (edcfbbe) compiled by 'albert@albert-system' on 2024-07-22

   ID    Z sym.   atoms
    1    9 F      1, 7, 85, 90
    2    6 C      2-6, 8, 10-15, 17-22, 24-32, 34-48, 50-55, 57-65, 67-81,
                  83, 84, 86-89
    3    7 N      9, 23, 33, 56, 66, 82
    4    5 B      16, 49
    5    1 H      91-140

          program call               : xtb data2507/gas/4F-ν-DABNA/4F-ν-DABNA.xyz --gfn 2 --ohess vtight --parallel 40 --molden --ceasefiles --namespace data2507/gas/4F-ν-DABNA/4F-ν-DABNA_gas_S0_preOpt
          :  Hamiltonian                  GFN2-xTB          :
 * total energy  :  -231.4770844 Eh     change       -0.1034687E-07 Eh
 * total energy  :  -231.5408746 Eh     change       -0.6379017E-01 Eh
 * total energy  :  -231.5666133 Eh     change       -0.2573871E-01 Eh
 * total energy  :  -231.5767230 Eh     change       -0.1010967E-01 Eh
 * total energy  :  -231.5834509 Eh     change       -0.6727971E-02 Eh
 * total energy  :  -231.5878037 Eh     change       -0.4352723E-02 Eh
 * total energy  :  -231.5908166 Eh     change       -0.3012942E-02 Eh
 * total energy  :  -231.5931047 Eh     change       -0.2288052E-02 Eh
 * total energy  :  -231.5949929 Eh     change       -0.1888285E-02 Eh
 * total energy  :  -231.5966292 Eh     change       -0.1636277E-02 Eh
 * total energy  :  -231.6058338 Eh     change       -0.6999249E-06 Eh
 * total energy  :  -231.6058356 Eh     change       -0.1788280E-05 Eh
 * total energy  :  -231.6058374 Eh     change       -0.1833605E-05 Eh
 * total energy  :  -231.6058382 Eh     change       -0.7443072E-06 Eh
 * total energy  :  -231.6058388 Eh     change       -0.6245195E-06 Eh
 * total energy  :  -231.6058392 Eh     change       -0.4428498E-06 Eh
 * total energy  :  -231.6058396 Eh     change       -0.3608805E-06 Eh
 * total energy  :  -231.6058400 Eh     change       -0.3917575E-06 Eh
 * total energy  :  -231.6058400 Eh     change       -0.7772172E-08 Eh
   *** GEOMETRY OPTIMIZATION CONVERGED AFTER 68 ITERATIONS ***

 final structure:
================
140
 xtb: 6.7.1 (edcfbbe)
F            3.08051708202689       -2.35565359248861       -2.48625054238187
C            2.64675991179357       -3.08098741310122       -1.44269114816431
C            2.56504363505590       -4.45423138794987       -1.57039728469153
C            2.10992701415424       -5.20705218280724       -0.50213528303785
C            1.75588241713746       -4.58958258072811        0.68444793529202
C            1.86439482373848       -3.21546644818709        0.79060857956845
F            1.53302259792790       -2.62912593764771        1.95498006673926
C            2.29680846346650       -2.41454883872471       -0.26721088239490
N            2.38016112189378       -1.00717057083659       -0.18140264124333
C            1.20808401801230       -0.26188000429921       -0.13762694104884
C           -0.00660961084613       -0.92619350934146       -0.02665342229188
C           -1.21208542773057       -0.24450377102187        0.08114853383497
C           -1.21540936847860        1.16810257104571        0.16422631469188
C            0.01123237633468        1.79493336880160       -0.04167335478081
C            1.22981860929988        1.14949397993662       -0.23702241604072
B            2.57759912296621        1.84097791358606       -0.52772806393007
C            2.90141817351773        3.30323335036666       -0.90515266986595
C            1.95737240051242        4.25916319267757       -1.30238862286256
C            2.28604038351669        5.57420162188353       -1.54208111051940
C            3.60217003602224        5.98721310855597       -1.37796908512451
C            4.57316882423733        5.07358666017693       -1.03972283030366
C            4.25022473627057        3.72420838427559       -0.83926226288112
N            5.27262090870419        2.82894530548866       -0.57670275550487
C            6.60700088033510        3.31155609834476       -0.43827967567267
C            7.15380529202393        3.44376410008043        0.83167206410399
C            8.46408861563633        3.86174205501333        0.97802826709427
C            9.22964820131244        4.15185830880484       -0.13868340693732
C            8.68258739663312        4.02640846036031       -1.40499106614470
C            7.37424935540374        3.60399255644978       -1.55894278950782
C            5.09493788345930        1.46918248042092       -0.44154880109172
C            6.20600877441828        0.63167688689161       -0.36637503280793
C            6.03765565793105       -0.72717614645400       -0.13938655445422
N            7.15464390444106       -1.55878107871840       -0.01434086557276
C            7.09493931882235       -2.87959760440490       -0.47045337341526
C            6.38494051671438       -3.20051145934292       -1.62822226680786
C            6.30677978269939       -4.51096128602198       -2.05565208412264
C            6.94101084579887       -5.52041050611172       -1.34984195336959
C            7.66003635467392       -5.20548760785050       -0.20857165124590
C            7.73608227995363       -3.89894771283814        0.23334161337622
C            8.33554832768525       -1.06118196508198        0.54723298843445
C            8.29027913044316       -0.17192537865276        1.62140709315246
C            9.45728591266589        0.33986003393361        2.15213400274324
C           10.68696094214247       -0.03356398223120        1.63495193697864
C           10.73894728924001       -0.92830860218355        0.57903390163822
C            9.57626444771721       -1.43723323772282        0.03375338988359
C            4.75866745191284       -1.26533103357288       -0.03110403808743
C            3.64865050280789       -0.45001255617117       -0.21192264320483
C            3.79018702749547        0.93904309719367       -0.39389722814089
B           -2.55247237522739        1.87997491314379        0.45590336676012
C           -2.85503239927659        3.35077593787884        0.81842398866628
C           -1.89571508136739        4.30113055514745        1.19187989687455
C           -2.20639193695060        5.62304745279342        1.41732613289060
C           -3.51945975608025        6.04919601023593        1.26274226463439
C           -4.50473169536524        5.14224369182253        0.94881004676707
C           -4.19964877715468        3.78655325692408        0.76335380950983
N           -5.23552437318611        2.89975526791151        0.52634973169078
C           -6.56682140199158        3.39509152819584        0.40455762075372
C           -7.13563747181064        3.51381605610452       -0.85703319998555
C           -8.44395750589976        3.94361621789900       -0.98572361207385
C           -9.18560805389850        4.25904657295852        0.14022623837127
C           -8.61649187681993        4.14716876674525        1.39805778140438
C           -7.31007380187991        3.71300046077620        1.53445231389752
C           -5.07499924920352        1.53639434679838        0.40684415963728
C           -6.19652647067275        0.71079695992170        0.36084392388470
C           -6.04712323261928       -0.65293299586678        0.15092183236140
N           -7.17479712686543       -1.47436451082253        0.05908930523644
C           -7.12119764692746       -2.78723464293834        0.53862180885147
C           -6.39507639611713       -3.09461511933027        1.68999538011706
C           -6.32456056443869       -4.39764032786697        2.14083804717919
C           -6.98221408625446       -5.41263841080038        1.46506664191122
C           -7.71680508253114       -5.11086340950066        0.33016666748284
C           -7.78557799880032       -3.81202308121402       -0.13503462083476
C           -8.36174612916602       -0.97271125600072       -0.48561458212614
C           -9.59548207050021       -1.32779816225670        0.05875249533283
C          -10.76382218656746       -0.81486679192309       -0.47037991466405
C          -10.72435485962094        0.06327722231400       -1.54068216519296
C           -9.50177594601922        0.41589913618849       -2.08840352352030
C           -8.32940249497967       -0.10013230896179       -1.57383749678576
C           -4.77620818511405       -1.20689063778446        0.02853270736674
C           -3.65421800013579       -0.40217255148408        0.18119486286993
C           -3.77707016862004        0.99077928339840        0.34720211937047
N           -2.39297296772224       -0.97452641909257        0.14000065314383
C           -2.32462558240379       -2.38222137556576        0.23578556478202
C           -2.66470159615071       -3.03644497886556        1.42088846219746
F           -3.07527012277249       -2.29922825165417        2.46538881366170
C           -2.59612207923534       -4.40966000848033        1.55686690748880
C           -2.16461791827201       -5.17462765867058        0.48743655797563
C           -1.82051827835838       -4.56925905436963       -0.70831098889415
C           -1.91541877258533       -3.19478427883892       -0.82232410060895
F           -1.59275716580078       -2.61931285329341       -1.99446176805593
H            2.84829868408652       -4.91294108020915       -2.50348384164235
H            2.03470291641257       -6.27858831938171       -0.59267334063601
H            1.40489691539891       -5.15432600534080        1.53297282710037
H           -0.01397850167146       -2.00352181159885       -0.02232613662417
H            0.01844864234225        2.87052561266934       -0.04941837710393
H            0.93519635060597        3.94636965420802       -1.44548138600880
H            1.52821826182986        6.28162808166822       -1.84513375577562
H            3.87249072420258        7.02215309853762       -1.53101847456352
H            5.59584373996137        5.40457508612066       -0.93620671088218
H            6.54772811778473        3.20954707344573        1.69425214870830
H            8.88884020553405        3.96056006872385        1.96564529363099
H           10.25326389315950        4.47473296639028       -0.02275246426720
H            9.27863066383030        4.25193129505416       -2.27676547918111
H            6.93963151442994        3.49461929399776       -2.54163459131309
H            7.20443666159593        1.02284486575837       -0.47828360282035
H            5.89784984371634       -2.41623870461634       -2.18808541591711
H            5.75628070654639       -4.74285520307257       -2.95567373815002
H            6.87951509871593       -6.54361040349340       -1.68867460828353
H            8.15891655338315       -5.98506860882943        0.34850716230678
H            8.28824675543960       -3.65778980514251        1.13001136342185
H            7.33352016224296        0.11289866893220        2.03309232061418
H            9.40644479818347        1.02852038655769        2.98267481906918
H           11.59772626363004        0.36764815723789        2.05299618448551
H           11.69294408844662       -1.22515457867966        0.16833329897206
H            9.61968898824845       -2.12443639336435       -0.79866297155012
H            4.65216432373632       -2.31622637093065        0.19198832848395
H           -0.87552834830183        3.97887749931258        1.32756235312755
H           -1.43689562115503        6.32558928825899        1.70175052084682
H           -3.77602357205200        7.08925990507709        1.40429521942449
H           -5.52470841030128        5.48359534160620        0.85264412671132
H           -6.54822054115903        3.25978869919453       -1.72688071578355
H           -8.88592469723845        4.03179819605875       -1.96676876999859
H          -10.20777583147097        4.59105106666540        0.03814770710528
H           -9.19384492149733        4.39244801782946        2.27704818513088
H           -6.85847460724505        3.61398294424002        2.51056488311731
H           -7.18851588167052        1.11477477801436        0.48380539883229
H           -5.88963233554649       -2.30575458721253        2.22663393299746
H           -5.76159317170324       -4.61891256171194        3.03580702452373
H           -6.92684968901016       -6.42990819435883        1.82232665624798
H           -8.23392822218281       -5.89488911879468       -0.20354799447501
H           -8.35031118477587       -3.58113055808166       -1.02656698466902
H           -9.62889904882757       -2.00178157585786        0.90236755885808
H          -11.71214380828608       -1.09536035428022       -0.03572746881576
H          -11.63935699200058        0.46775772681515       -1.94613588592343
H           -9.46097705834398        1.09147520895863       -2.93017143479081
H           -7.37838711428352        0.16841147155712       -2.00910760345251
H           -4.68550833541267       -2.26196902904840       -0.18138118792470
H           -2.87102956327447       -4.85890496795032        2.49702424174721
H           -2.09980800595734       -6.24630061962675        0.58431670048772
H           -1.48745286666424       -5.14362629278725       -1.55759938560699

          :  Hamiltonian                  GFN2-xTB          :
         :: gradient norm              0.000061849090 Eh/a0 ::
         :: HOMO-LUMO gap              2.035262183427 eV    ::
         :: SCC energy              -235.582373960171 Eh    ::
         :: -> dispersion             -0.232407610945 Eh    ::
         :: repulsion energy           3.976533960660 Eh    ::

    * Orbital Energies and Occupations

         #    Occupation            Energy/Eh            Energy/eV
      -------------------------------------------------------------
         1        2.0000           -0.8322332             -22.6462
       ...           ...                  ...                  ...
       201        2.0000           -0.3923836             -10.6773
       202        2.0000           -0.3888757             -10.5818
       203        2.0000           -0.3857807             -10.4976
       204        2.0000           -0.3835143             -10.4360
       205        2.0000           -0.3767991             -10.2532
       206        2.0000           -0.3717337             -10.1154
       207        2.0000           -0.3669461              -9.9851
       208        2.0000           -0.3632845              -9.8855
       209        2.0000           -0.3551326              -9.6636
       210        2.0000           -0.3460649              -9.4169
       211        2.0000           -0.3444650              -9.3734
       212        2.0000           -0.3425157              -9.3203
       213        2.0000           -0.3369136              -9.1679 (HOMO)
       214                         -0.2621191              -7.1326 (LUMO)
       215                         -0.2617694              -7.1231
       216                         -0.2550495              -6.9402
       217                         -0.2544945              -6.9251
       218                         -0.2540388              -6.9127
       219                         -0.2415154              -6.5720
       220                         -0.2326933              -6.3319
       221                         -0.2323351              -6.3222
       222                         -0.2319994              -6.3130
       223                         -0.2319453              -6.3116
       224                         -0.2274607              -6.1895
       ...                                ...                  ...
       410                          0.7374254              20.0664
      -------------------------------------------------------------
                  HL-Gap            0.0747945 Eh            2.0353 eV

     #   Z          covCN         q      C6AA      α(0)
     1   9 F        0.787    -0.202    11.261     3.964
     2   6 C        2.792     0.163    24.479     8.105
     3   6 C        2.915    -0.054    29.347     8.883
     4   6 C        2.926    -0.033    28.814     8.803
     5   6 C        2.915    -0.059    29.462     8.901
     6   6 C        2.790     0.158    24.567     8.119
     7   9 F        0.787    -0.206    11.301     3.971
     8   6 C        2.927     0.045    26.999     8.521
     9   7 N        2.754    -0.035    21.926     6.955
    10   6 C        2.927     0.064    26.557     8.451
    11   6 C        2.924    -0.078    29.953     8.975
    12   6 C        2.927     0.064    26.556     8.451
    13   6 C        2.884    -0.089    30.221     9.013
    14   6 C        2.931    -0.036    28.902     8.817
    15   6 C        2.884    -0.089    30.222     9.013
    16   5 B        2.724     0.191    18.515     7.210
    17   6 C        2.887    -0.082    30.055     8.988
    18   6 C        2.924    -0.034    28.838     8.807
    19   6 C        2.914    -0.043    29.066     8.841
    20   6 C        2.920    -0.029    28.730     8.790
    21   6 C        2.920    -0.057    29.411     8.893
    22   6 C        2.925     0.059    26.682     8.471
    23   7 N        2.756    -0.051    22.232     7.003
    24   6 C        2.935     0.070    26.437     8.432
    25   6 C        2.922    -0.037    28.910     8.817
    26   6 C        2.920    -0.027    28.670     8.781
    27   6 C        2.920    -0.031    28.767     8.795
    28   6 C        2.920    -0.028    28.704     8.786
    29   6 C        2.921    -0.037    28.923     8.819
    30   6 C        2.931     0.062    26.606     8.459
    31   6 C        2.923    -0.090    30.247     9.019
    32   6 C        2.925     0.066    26.513     8.444
    33   7 N        2.754    -0.075    22.697     7.076
    34   6 C        2.924     0.066    26.525     8.446
    35   6 C        2.922    -0.049    29.207     8.863
    36   6 C        2.920    -0.031    28.783     8.798
    37   6 C        2.919    -0.041    29.023     8.834
    38   6 C        2.920    -0.031    28.766     8.795
    39   6 C        2.922    -0.049    29.209     8.863
    40   6 C        2.924     0.066    26.521     8.445
    41   6 C        2.923    -0.047    29.172     8.857
    42   6 C        2.920    -0.030    28.748     8.792
    43   6 C        2.919    -0.039    28.981     8.828
    44   6 C        2.920    -0.030    28.749     8.793
    45   6 C        2.923    -0.048    29.195     8.861
    46   6 C        2.923    -0.086    30.160     9.006
    47   6 C        2.930     0.065    26.543     8.449
    48   6 C        2.898    -0.109    30.766     9.094
    49   5 B        2.724     0.191    18.516     7.210
    50   6 C        2.887    -0.082    30.055     8.988
    51   6 C        2.924    -0.034    28.840     8.807
    52   6 C        2.914    -0.043    29.067     8.841
    53   6 C        2.920    -0.029    28.731     8.790
    54   6 C        2.920    -0.057    29.412     8.893
    55   6 C        2.925     0.059    26.682     8.471
    56   7 N        2.756    -0.051    22.231     7.003
    57   6 C        2.935     0.070    26.437     8.433
    58   6 C        2.922    -0.037    28.910     8.817
    59   6 C        2.920    -0.027    28.670     8.781
    60   6 C        2.920    -0.031    28.767     8.795
    61   6 C        2.920    -0.028    28.704     8.786
    62   6 C        2.921    -0.037    28.923     8.819
    63   6 C        2.932     0.062    26.607     8.459
    64   6 C        2.923    -0.090    30.248     9.019
    65   6 C        2.925     0.066    26.513     8.444
    66   7 N        2.754    -0.075    22.699     7.076
    67   6 C        2.924     0.066    26.526     8.446
    68   6 C        2.922    -0.049    29.205     8.862
    69   6 C        2.920    -0.031    28.782     8.798
    70   6 C        2.919    -0.041    29.023     8.834
    71   6 C        2.920    -0.031    28.767     8.795
    72   6 C        2.922    -0.049    29.208     8.863
    73   6 C        2.924     0.066    26.521     8.445
    74   6 C        2.923    -0.048    29.196     8.861
    75   6 C        2.920    -0.030    28.749     8.793
    76   6 C        2.919    -0.040    28.982     8.828
    77   6 C        2.920    -0.030    28.748     8.792
    78   6 C        2.923    -0.047    29.173     8.857
    79   6 C        2.923    -0.086    30.162     9.006
    80   6 C        2.930     0.065    26.543     8.449
    81   6 C        2.897    -0.109    30.766     9.094
    82   7 N        2.754    -0.035    21.924     6.954
    83   6 C        2.927     0.045    26.997     8.521
    84   6 C        2.792     0.163    24.476     8.104
    85   9 F        0.787    -0.202    11.259     3.964
    86   6 C        2.915    -0.054    29.347     8.883
    87   6 C        2.926    -0.033    28.814     8.803
    88   6 C        2.915    -0.059    29.462     8.901
    89   6 C        2.790     0.158    24.565     8.119
    90   9 F        0.787    -0.206    11.300     3.971
    91   1 H        0.926     0.074     2.040     2.234
    92   1 H        0.926     0.061     2.185     2.311
    93   1 H        0.926     0.069     2.094     2.263
    94   1 H        0.926     0.007     2.943     2.683
    95   1 H        0.926     0.044     2.393     2.419
    96   1 H        0.926     0.035     2.511     2.478
    97   1 H        0.926     0.022     2.707     2.573
    98   1 H        0.926     0.022     2.699     2.569
    99   1 H        0.926     0.019     2.749     2.593
   100   1 H        0.926     0.041     2.435     2.440
   101   1 H        0.926     0.038     2.476     2.461
   102   1 H        0.926     0.037     2.492     2.469
   103   1 H        0.926     0.038     2.476     2.461
   104   1 H        0.926     0.043     2.407     2.426
   105   1 H        0.926     0.023     2.694     2.567
   106   1 H        0.926     0.040     2.450     2.448
   107   1 H        0.926     0.029     2.594     2.519
   108   1 H        0.926     0.027     2.628     2.535
   109   1 H        0.926     0.030     2.591     2.517
   110   1 H        0.926     0.031     2.575     2.509
   111   1 H        0.926     0.033     2.547     2.496
   112   1 H        0.926     0.030     2.590     2.517
   113   1 H        0.926     0.029     2.603     2.523
   114   1 H        0.926     0.031     2.579     2.511
   115   1 H        0.926     0.031     2.571     2.507
   116   1 H        0.926     0.014     2.824     2.628
   117   1 H        0.926     0.035     2.511     2.478
   118   1 H        0.926     0.022     2.708     2.573
   119   1 H        0.926     0.022     2.699     2.569
   120   1 H        0.926     0.019     2.749     2.593
   121   1 H        0.926     0.041     2.435     2.440
   122   1 H        0.926     0.038     2.476     2.461
   123   1 H        0.926     0.037     2.492     2.469
   124   1 H        0.926     0.038     2.477     2.461
   125   1 H        0.926     0.043     2.407     2.426
   126   1 H        0.926     0.023     2.694     2.567
   127   1 H        0.926     0.040     2.449     2.447
   128   1 H        0.926     0.030     2.592     2.518
   129   1 H        0.926     0.027     2.628     2.535
   130   1 H        0.926     0.030     2.591     2.517
   131   1 H        0.926     0.031     2.575     2.509
   132   1 H        0.926     0.031     2.571     2.508
   133   1 H        0.926     0.030     2.579     2.512
   134   1 H        0.926     0.029     2.603     2.523
   135   1 H        0.926     0.030     2.591     2.517
   136   1 H        0.926     0.033     2.547     2.496
   137   1 H        0.926     0.014     2.825     2.629
   138   1 H        0.926     0.074     2.040     2.234
   139   1 H        0.926     0.061     2.185     2.312
   140   1 H        0.926     0.069     2.093     2.262

molecular dipole:
                 x           y           z       tot (Debye)
 q only:       -0.001      -1.122       0.010
   full:       -0.004      -1.479       0.018       3.758

 projected vibrational frequencies (cm⁻¹)
eigval :       -0.00    -0.00     0.00     0.00     0.00     0.00
eigval :        7.21     7.88    13.73    15.26    16.75    16.98
eigval :       17.57    22.21    24.20    25.49    31.20    31.77
eigval :       32.65    37.10    39.09    43.16    47.96    48.02
eigval :       48.76    55.55    57.14    59.83    62.80    64.81
eigval :       67.60    73.42    74.53    78.81    82.33    89.52
eigval :       90.22    94.72   100.08   115.73   116.40   119.41
eigval :      135.07   147.10   160.85   164.84   172.99   178.22
eigval :      182.11   191.15   196.17   197.82   198.14   215.14
eigval :      220.26   227.26   229.88   231.44   235.39   238.17
eigval :      243.63   243.96   248.60   259.76   259.87   269.58
eigval :      278.22   280.89   311.94   315.62   315.80   322.09
eigval :      325.80   340.11   340.26   350.61   357.69   369.55
eigval :      374.18   374.31   375.25   378.89   381.03   385.20
eigval :      385.22   388.01   392.51   394.01   395.55   404.67
eigval :      407.32   412.08   425.11   426.42   437.25   455.95
eigval :      470.27   474.31   474.69   475.30   481.27   482.95
eigval :      490.46   492.54   493.57   493.90   498.39   498.66
eigval :      503.52   521.15   530.28   531.30   535.97   539.43
eigval :      546.83   553.01   553.96   556.51   556.57   566.15
eigval :      570.86   577.08   580.72   584.57   585.93   588.20
eigval :      589.19   590.23   591.78   595.29   597.02   598.61
eigval :      608.97   611.12   612.48   621.75   623.42   632.13
eigval :      635.20   642.90   648.08   659.45   661.87   661.94
eigval :      666.74   670.06   672.09   677.14   678.44   679.32
eigval :      682.77   688.17   705.34   705.56   710.28   713.32
eigval :      726.00   739.55   745.14   747.39   756.98   757.26
eigval :      758.48   761.75   770.57   771.55   774.16   775.44
eigval :      795.97   804.53   806.32   823.16   823.58   824.67
eigval :      847.79   848.10   856.18   865.11   869.84   873.96
eigval :      873.98   876.80   876.89   877.71   877.81   879.96
eigval :      882.21   882.63   883.57   884.44   891.49   891.55
eigval :      894.32   894.41   896.98   899.61   901.39   901.84
eigval :      904.57   912.28   913.13   914.10   914.35   917.01
eigval :      918.98   922.68   923.81   925.87   925.91   926.75
eigval :      926.76   927.11   928.38   928.51   928.62   929.98
eigval :      929.99   932.43   932.47   932.73   932.87   965.85
eigval :      978.79   979.72   991.76   994.61   994.70   999.80
eigval :     1005.53  1005.58  1051.83  1069.64  1074.75  1078.59
eigval :     1079.20  1081.91  1083.49  1083.52  1084.19  1084.20
eigval :     1097.31  1103.06  1104.61  1108.46  1111.21  1113.60
eigval :     1113.79  1121.71  1122.08  1123.87  1124.90  1125.11
eigval :     1148.56  1156.32  1164.36  1164.75  1179.42  1179.44
eigval :     1180.27  1180.47  1180.94  1181.68  1181.69  1181.72
eigval :     1185.05  1186.75  1188.06  1188.07  1195.44  1195.64
eigval :     1195.96  1197.88  1204.48  1204.92  1214.73  1215.68
eigval :     1218.65  1219.95  1241.19  1245.72  1248.53  1255.05
eigval :     1256.73  1260.24  1267.87  1273.22  1273.73  1275.01
eigval :     1277.77  1278.48  1281.37  1286.90  1286.98  1291.08
eigval :     1295.39  1295.75  1299.77  1303.40  1307.68  1309.36
eigval :     1310.02  1311.79  1312.08  1315.78  1320.73  1321.06
eigval :     1323.54  1323.96  1327.63  1328.41  1328.46  1335.68
eigval :     1337.46  1337.90  1358.84  1359.97  1374.66  1388.35
eigval :     1413.98  1423.57  1427.05  1427.28  1429.40  1433.82
eigval :     1433.83  1436.87  1437.30  1441.61  1443.11  1445.02
eigval :     1446.17  1451.88  1453.68  1455.58  1465.56  1465.92
eigval :     1469.83  1471.35  1472.76  1473.87  1476.01  1477.43
eigval :     1477.51  1481.04  1506.89  1539.47  1542.87  1551.83
eigval :     1552.80  1564.93  1568.24  1569.56  1572.13  1576.76
eigval :     1576.81  1579.73  1581.09  1581.21  1584.00  1584.02
eigval :     1587.33  1587.70  1594.35  1594.53  1595.48  1595.49
eigval :     1596.91  1597.13  1601.29  1601.31  3069.02  3069.10
eigval :     3073.96  3073.97  3074.85  3074.89  3076.50  3076.52
eigval :     3076.79  3076.82  3079.37  3079.56  3080.01  3080.08
eigval :     3082.37  3082.39  3085.54  3085.56  3086.89  3086.92
eigval :     3088.64  3088.72  3089.22  3089.31  3090.06  3090.23
eigval :     3090.80  3090.83  3092.77  3092.84  3093.97  3093.98
eigval :     3097.00  3097.01  3097.79  3097.91  3099.82  3099.85
eigval :     3104.14  3105.15  3107.17  3107.34  3109.16  3109.34
eigval :     3113.03  3117.44  3117.84  3123.26  3123.42  3140.48

   temp. (K)  partition function   enthalpy   heat capacity  entropy
                                   cal/mol     cal/K/mol   cal/K/mol   J/K/mol
 298.15  VIB  0.225E+37            43725.838    266.411    276.574
         ROT  0.428E+09              888.752      2.981     42.475
         INT  0.964E+45            44614.590    269.392    319.049
         TR   0.387E+29             1481.254      4.968     47.025
         TOT                       46095.8442   274.3602   366.0740  1531.6538

       T/K    H(0)-H(T)+PV         H(T)/Eh          T*S/Eh         G(T)/Eh
   ------------------------------------------------------------------------
    298.15    0.734584E-01    0.111932E+01    0.173934E+00    0.945384E+00
   ------------------------------------------------------------------------

         :::::::::::::::::::::::::::::::::::::::::::::::::::::
         ::                  THERMODYNAMIC                  ::
         :::::::::::::::::::::::::::::::::::::::::::::::::::::
         :: total free energy        -230.660456277669 Eh   ::
         ::.................................................::
         :: total energy             -231.605839999508 Eh   ::
         :: zero point energy           1.045858906623 Eh   ::
         :: G(RRHO) w/o ZPVE           -0.100475184785 Eh   ::
         :: G(RRHO) contrib.            0.945383721839 Eh   ::
         :::::::::::::::::::::::::::::::::::::::::::::::::::::

           -------------------------------------------------
          | TOTAL ENERGY             -231.605839999508 Eh   |
          | TOTAL ENTHALPY           -230.486522689291 Eh   |
          | TOTAL FREE ENERGY        -230.660456277669 Eh   |
          | GRADIENT NORM               0.000061845863 Eh/α |
          | HOMO-LUMO GAP               2.035262420831 eV   |
           -------------------------------------------------

 * finished run on 2025/08/22 at 05:02:42.241
