   * xtb version 6.7.1 (edcfbbe) compiled by 'albert@albert-system' on 2024-07-22

   ID    Z sym.   atoms
    1    9 F      1, 7, 85, 90
    2    6 C      2-6, 8, 10-15, 17-22, 24-32, 34-48, 50-55, 57-65, 67-81,
                  83, 84, 86-89
    3    7 N      9, 23, 33, 56, 66, 82
    4    5 B      16, 49
    5    1 H      91-140

          program call               : xtb data2507/gas/4F-ν-DABNA/4F-ν-DABNA_gas_S0_crest.xyz --gfn 2 --ohess vtight --parallel 40 --molden --ceasefiles --namespace data2507/gas/4F-ν-DABNA/4F-ν-DABNA_gas_S0_finalOpt
          :  Hamiltonian                  GFN2-xTB          :
 * total energy  :  -231.6058220 Eh     change       -0.3479727E-08 Eh
 * total energy  :  -231.6058233 Eh     change       -0.1219539E-05 Eh
 * total energy  :  -231.6058249 Eh     change       -0.1599857E-05 Eh
 * total energy  :  -231.6058265 Eh     change       -0.1621486E-05 Eh
 * total energy  :  -231.6058273 Eh     change       -0.8615886E-06 Eh
 * total energy  :  -231.6058286 Eh     change       -0.1298499E-05 Eh
 * total energy  :  -231.6058297 Eh     change       -0.1022310E-05 Eh
 * total energy  :  -231.6058304 Eh     change       -0.6993684E-06 Eh
 * total energy  :  -231.6058310 Eh     change       -0.6926998E-06 Eh
 * total energy  :  -231.6058318 Eh     change       -0.7465051E-06 Eh
 * total energy  :  -231.6058400 Eh     change       -0.1186336E-06 Eh
 * total energy  :  -231.6058401 Eh     change       -0.1176634E-06 Eh
 * total energy  :  -231.6058402 Eh     change       -0.1509387E-06 Eh
 * total energy  :  -231.6058404 Eh     change       -0.1484587E-06 Eh
 * total energy  :  -231.6058405 Eh     change       -0.1236319E-06 Eh
 * total energy  :  -231.6058406 Eh     change       -0.1074077E-06 Eh
 * total energy  :  -231.6058407 Eh     change       -0.1136052E-06 Eh
 * total energy  :  -231.6058409 Eh     change       -0.1396448E-06 Eh
 * total energy  :  -231.6058409 Eh     change       -0.1498165E-08 Eh
   *** GEOMETRY OPTIMIZATION CONVERGED AFTER 44 ITERATIONS ***

 final structure:
================
140
 xtb: 6.7.1 (edcfbbe)
F            3.12938986615278       -2.23631036692012       -2.42594071041506
C            2.68525494212480       -2.97633499716149       -1.39725350912091
C            2.61354592669286       -4.34846709474770       -1.54189412641137
C            2.14790473593671       -5.11615408696092       -0.48885226995796
C            1.77332617523806       -4.51458341680356        0.69960169399507
C            1.87216309429226       -3.14116873510662        0.82306816953690
F            1.52058287103109       -2.57009883559016        1.98913660787399
C            2.31495300153592       -2.32575150437870       -0.21916816287555
N            2.38910952387235       -0.91889388963094       -0.11586413552066
C            1.21213943267261       -0.18062051135049       -0.08761875055276
C           -0.00041406293791       -0.85286263647620       -0.00369761416128
C           -1.21222812852821       -0.17912731432745        0.07972207161823
C           -1.22647336290130        1.23316835929683        0.16607339326109
C            0.00092570605626        1.86839666306582       -0.00601450260483
C            1.22765665409803        1.23148713533186       -0.17650812572847
B            2.57723689821468        1.93359968648620       -0.43071621228504
C            2.90032244696285        3.40144141182036       -0.78657389631980
C            1.95976570528298        4.35560091381938       -1.19616584886176
C            2.28525221219480        5.67528564541141       -1.41354451666293
C            3.59424059841925        6.09486779258860       -1.21313257744708
C            4.56300690212451        5.18368492452122       -0.86210079224062
C            4.24450269621744        3.83001892837122       -0.68471168319319
N            5.26633835445183        2.93791765788072       -0.40918094346985
C            6.59426452115595        3.42651919557539       -0.23521306138514
C            7.11429186814104        3.53926292392150        1.04781469870101
C            8.41832810523893        3.96333323355249        1.22841595916936
C            9.20422478329255        4.27908238082010        0.13298229412072
C            8.68388204432764        4.17294630326616       -1.14628270723286
C            7.38204822831917        3.74438596390919       -1.33452130704773
C            5.09427386179433        1.57538628809728       -0.29561388477236
C            6.20869400162173        0.74313883444672       -0.21164809082499
C            6.04373636156467       -0.62002093875971       -0.00966813627525
N            7.16254773690424       -1.44891867305867        0.11854361932655
C            7.11730518083294       -2.75906723623477       -0.36892630842803
C            6.42865360618344       -3.05595416938118       -1.54586150096049
C            6.36445530213456       -4.35625453474502       -2.00536025528033
C            6.99179267220157       -5.37908662878056       -1.31277138396794
C            7.68943660311120       -5.08783869190474       -0.15210747478288
C            7.75127691728916       -3.79176925676237        0.32174884287841
C            8.33051621656343       -0.95773052584829        0.71141185538000
C            8.26093029048829       -0.08959682975430        1.80146970021599
C            9.41537854635765        0.41620143539166        2.36440509107717
C           10.65630341179914        0.05760620293020        1.86385725292066
C           10.73225537766349       -0.81595336284466        0.79176359620773
C            9.58242452625665       -1.31862813154154        0.21442365833376
C            4.76621810481608       -1.16657351678611        0.06918117647534
C            3.65477441010642       -0.35474000859992       -0.11834402647729
C            3.79199537276353        1.03729111089373       -0.28010201550738
B           -2.57526707108464        1.93705704079658        0.42011825836647
C           -2.89681448835533        3.40624729704016        0.77222375483264
C           -1.95496036435410        4.36162035425050        1.17602734629417
C           -2.27942805212610        5.68217202739829        1.38966770124554
C           -3.58882640812481        6.10152993062818        1.19150945886968
C           -4.55880370516572        5.18937281324854        0.84647216989730
C           -4.24111039599889        3.83503715494420        0.67268899984751
N           -5.26413731707984        2.94254274649190        0.40317513872090
C           -6.59271704040722        3.43117761636374        0.23407336196508
C           -7.11759894677361        3.54426017262806       -1.04692582248768
C           -8.42236927580979        3.96827678587539       -1.22239386935893
C           -9.20415223846752        4.28346939391915       -0.12386327391413
C           -8.67893379236506        4.17699688209709        1.15338386625562
C           -7.37630591445822        3.74865716798459        1.33648980510196
C           -5.09297812847606        1.57970380518163        0.29242840880903
C           -6.20810401677626        0.74783805943761        0.21396431773548
C           -6.04446132183886       -0.61586159872992        0.01474083122256
N           -7.16372912016556       -1.44507243082875       -0.10680556630336
C           -7.11578502983811       -2.75416325985828        0.38350777368101
C           -6.42335580795097       -3.04772756047202        1.55903626020257
C           -6.35643758832985       -4.34695272524158        2.02117978903360
C           -6.98468190797384       -5.37193648351139        1.33260077457257
C           -7.68611095769707       -5.08395028451862        0.17340404350123
C           -7.75079934623877       -3.78895337836571       -0.30302258675258
C           -8.33506058427140       -0.95560672785213       -0.69431470166855
C           -9.58403970385733       -1.31702606739895       -0.19033978409265
C          -10.73734674950560       -0.81625600647523       -0.76235042730506
C          -10.66781471095899        0.05593313385644       -1.83599506393082
C           -9.42985258851140        0.41503677493828       -2.34347077878182
C           -8.27198207097165       -0.08889785572059       -1.78590121787658
C           -4.76741014627005       -1.16301650123856       -0.06742939425795
C           -3.65497048110027       -0.35140694747244        0.11504231534089
C           -3.79092025917002        1.04106701275366        0.27433272799340
N           -2.38972231222894       -0.91638490149047        0.11021362680240
C           -2.31622312091992       -2.32331300442831        0.21354163302837
C           -2.68366525273697       -2.97375179376854        1.39257849912017
F           -3.12428468891869       -2.23355072703729        2.42262309668601
C           -2.61267496708303       -4.34598512373804        1.53671853287584
C           -2.15064989565230       -5.11383379039306        0.48220814066022
C           -1.77873129662488       -4.51234477146038       -0.70713120060066
C           -1.87674858699160       -3.13882718074729       -0.83001282065424
F           -1.52750891940814       -2.56763581236177       -1.99670476074076
H            2.91272423418027       -4.79473916911625       -2.47603340819852
H            2.08031013589896       -6.18699496274030       -0.59275554658871
H            1.41353882594412       -5.09115969218634        1.53640311915220
H           -0.00106697038913       -1.93016587122647       -0.00302129027509
H            0.00164484632327        2.94396818248713       -0.00719710891089
H            0.94339737025288        4.03801917482732       -1.36724205160031
H            1.53012723960517        6.38110469184296       -1.72689797701898
H            3.86117366040455        7.13321394621045       -1.34794628326294
H            5.58059779346446        5.52021891839088       -0.73040941577523
H            6.49254462919470        3.28525717117059        1.89347710293979
H            8.82228266566776        4.04694167324760        2.22611444472608
H           10.22290086983658        4.60686680685266        0.27557643758996
H            9.29582845485909        4.41845426573093       -2.00148671228802
H            6.96826981973598        3.64992053777049       -2.32770475470587
H            7.20681276801955        1.14128725271522       -0.29929324295456
H            5.94696895668669       -2.26108580046387       -2.09535359169091
H            5.83049209530491       -4.56924550076668       -2.91990314720683
H            6.94154675190661       -6.39424572870928       -1.67672460773840
H            8.18264884979129       -5.87803570765199        0.39497460898611
H            8.28669784599337       -3.56933796459426        1.23328818314471
H            7.29523089255597        0.18340038134226        2.20009950890497
H            9.34573084768614        1.08832510524886        3.20704809205892
H           11.55720696512220        0.45393357651147        2.30715822134725
H           11.69517773202524       -1.10092090571915        0.39366413488503
H            9.64473949018985       -1.98905395306659       -0.63038057357992
H            4.66240404554933       -2.22144884075605        0.27403504269955
H           -0.93821266174439        4.04450684138686        1.34558359803904
H           -1.52317647796601        6.38881389573543        1.69841967245253
H           -3.85506021614538        7.14042766629182        1.32342251305009
H           -5.57673976674937        5.52561029765402        0.71664527002105
H           -6.49903341166755        3.29065537172086       -1.89503791685354
H           -8.83012368331784        4.05224202173293       -2.21851840587864
H          -10.22342762103829        4.61110441748882       -0.26246103230422
H           -9.28767088358199        4.42207346172460        2.01099642942744
H           -6.95865082201481        3.65398506136667        2.32802732095257
H           -7.20570646396919        1.14671544091552        0.30402619621600
H           -5.94081963101550       -2.25115541510512        2.10530020347149
H           -5.81963005400440       -4.55736097537634        2.93465204559851
H           -6.93224590043719       -6.38626165917725        1.69856951382659
H           -8.18008402632331       -5.87586407984244       -0.37049676537362
H           -8.28925674685098       -3.56895997965106       -1.21336644289186
H           -9.64130977531043       -1.98634793344099        0.65569760629030
H          -11.69790032597456       -1.10162455802910       -0.35884934036966
H          -11.57139583691918        0.45079065591747       -2.27513713016206
H           -9.36525371249734        1.08611085832502       -3.18735227480029
H           -7.30865017673546        0.18446817047460       -2.18996859560242
H           -4.66479518358366       -2.21835891914129       -0.27041867928915
H           -2.90965290817702       -4.79222651379726        2.47157016326735
H           -2.08375332918812       -6.18476279123278        0.58567054143744
H           -1.42163715419941       -5.08904784684470       -1.54499682924747

          :  Hamiltonian                  GFN2-xTB          :
         :: gradient norm              0.000018653502 Eh/a0 ::
         :: HOMO-LUMO gap              2.036930380132 eV    ::
         :: SCC energy              -235.582497993365 Eh    ::
         :: -> dispersion             -0.232334219655 Eh    ::
         :: repulsion energy           3.976657132108 Eh    ::

    * Orbital Energies and Occupations

         #    Occupation            Energy/Eh            Energy/eV
      -------------------------------------------------------------
         1        2.0000           -0.8323008             -22.6481
       ...           ...                  ...                  ...
       201        2.0000           -0.3924187             -10.6783
       202        2.0000           -0.3889011             -10.5825
       203        2.0000           -0.3858183             -10.4987
       204        2.0000           -0.3835455             -10.4368
       205        2.0000           -0.3768177             -10.2537
       206        2.0000           -0.3717565             -10.1160
       207        2.0000           -0.3669764              -9.9859
       208        2.0000           -0.3633354              -9.8869
       209        2.0000           -0.3551700              -9.6647
       210        2.0000           -0.3460828              -9.4174
       211        2.0000           -0.3444645              -9.3734
       212        2.0000           -0.3425480              -9.3212
       213        2.0000           -0.3369721              -9.1695 (HOMO)
       214                         -0.2621163              -7.1325 (LUMO)
       215                         -0.2617706              -7.1231
       216                         -0.2551126              -6.9420
       217                         -0.2544916              -6.9251
       218                         -0.2540841              -6.9140
       219                         -0.2416272              -6.5750
       220                         -0.2326889              -6.3318
       221                         -0.2323272              -6.3219
       222                         -0.2319828              -6.3126
       223                         -0.2319520              -6.3117
       224                         -0.2273944              -6.1877
       ...                                ...                  ...
       410                          0.7374736              20.0677
      -------------------------------------------------------------
                  HL-Gap            0.0748558 Eh            2.0369 eV

     #   Z          covCN         q      C6AA      α(0)
     1   9 F        0.787    -0.202    11.259     3.964
     2   6 C        2.792     0.163    24.476     8.104
     3   6 C        2.915    -0.054    29.345     8.883
     4   6 C        2.926    -0.033    28.812     8.803
     5   6 C        2.915    -0.059    29.461     8.901
     6   6 C        2.790     0.158    24.566     8.119
     7   9 F        0.787    -0.206    11.302     3.971
     8   6 C        2.927     0.045    26.997     8.521
     9   7 N        2.754    -0.035    21.927     6.955
    10   6 C        2.927     0.064    26.557     8.451
    11   6 C        2.924    -0.078    29.954     8.975
    12   6 C        2.927     0.064    26.557     8.451
    13   6 C        2.884    -0.089    30.222     9.013
    14   6 C        2.931    -0.036    28.904     8.817
    15   6 C        2.884    -0.089    30.222     9.013
    16   5 B        2.724     0.191    18.515     7.210
    17   6 C        2.887    -0.082    30.055     8.988
    18   6 C        2.924    -0.034    28.839     8.807
    19   6 C        2.914    -0.043    29.066     8.841
    20   6 C        2.920    -0.029    28.731     8.790
    21   6 C        2.920    -0.057    29.412     8.893
    22   6 C        2.925     0.059    26.682     8.471
    23   7 N        2.756    -0.051    22.232     7.003
    24   6 C        2.935     0.070    26.438     8.433
    25   6 C        2.923    -0.037    28.910     8.817
    26   6 C        2.920    -0.027    28.670     8.781
    27   6 C        2.920    -0.031    28.767     8.795
    28   6 C        2.920    -0.028    28.704     8.786
    29   6 C        2.921    -0.037    28.923     8.819
    30   6 C        2.932     0.062    26.607     8.459
    31   6 C        2.923    -0.089    30.244     9.019
    32   6 C        2.925     0.066    26.513     8.444
    33   7 N        2.754    -0.075    22.699     7.076
    34   6 C        2.924     0.066    26.526     8.446
    35   6 C        2.922    -0.049    29.206     8.862
    36   6 C        2.920    -0.031    28.782     8.798
    37   6 C        2.919    -0.041    29.024     8.835
    38   6 C        2.920    -0.031    28.767     8.795
    39   6 C        2.922    -0.049    29.210     8.863
    40   6 C        2.924     0.066    26.521     8.445
    41   6 C        2.923    -0.047    29.174     8.858
    42   6 C        2.920    -0.030    28.748     8.792
    43   6 C        2.919    -0.040    28.982     8.828
    44   6 C        2.920    -0.030    28.749     8.793
    45   6 C        2.923    -0.048    29.197     8.861
    46   6 C        2.923    -0.086    30.159     9.006
    47   6 C        2.930     0.065    26.543     8.449
    48   6 C        2.898    -0.109    30.765     9.094
    49   5 B        2.724     0.191    18.516     7.210
    50   6 C        2.887    -0.082    30.055     8.988
    51   6 C        2.924    -0.034    28.839     8.807
    52   6 C        2.914    -0.043    29.067     8.841
    53   6 C        2.920    -0.029    28.731     8.790
    54   6 C        2.920    -0.057    29.412     8.893
    55   6 C        2.925     0.059    26.682     8.471
    56   7 N        2.756    -0.051    22.232     7.003
    57   6 C        2.935     0.070    26.437     8.433
    58   6 C        2.922    -0.037    28.910     8.817
    59   6 C        2.920    -0.027    28.670     8.781
    60   6 C        2.920    -0.031    28.767     8.795
    61   6 C        2.920    -0.028    28.704     8.786
    62   6 C        2.921    -0.037    28.923     8.819
    63   6 C        2.932     0.062    26.607     8.459
    64   6 C        2.923    -0.090    30.245     9.019
    65   6 C        2.925     0.066    26.513     8.444
    66   7 N        2.754    -0.075    22.699     7.076
    67   6 C        2.924     0.066    26.526     8.446
    68   6 C        2.922    -0.049    29.205     8.862
    69   6 C        2.920    -0.031    28.782     8.798
    70   6 C        2.919    -0.041    29.024     8.834
    71   6 C        2.920    -0.031    28.767     8.795
    72   6 C        2.922    -0.049    29.209     8.863
    73   6 C        2.924     0.066    26.521     8.445
    74   6 C        2.923    -0.048    29.197     8.861
    75   6 C        2.920    -0.030    28.749     8.793
    76   6 C        2.919    -0.040    28.983     8.828
    77   6 C        2.920    -0.030    28.748     8.792
    78   6 C        2.923    -0.047    29.175     8.858
    79   6 C        2.923    -0.086    30.160     9.006
    80   6 C        2.930     0.065    26.543     8.449
    81   6 C        2.898    -0.109    30.766     9.094
    82   7 N        2.754    -0.035    21.927     6.955
    83   6 C        2.927     0.045    26.997     8.521
    84   6 C        2.792     0.163    24.475     8.104
    85   9 F        0.787    -0.202    11.259     3.964
    86   6 C        2.915    -0.054    29.345     8.883
    87   6 C        2.926    -0.033    28.812     8.803
    88   6 C        2.915    -0.059    29.461     8.901
    89   6 C        2.790     0.158    24.566     8.119
    90   9 F        0.787    -0.206    11.302     3.971
    91   1 H        0.926     0.074     2.039     2.233
    92   1 H        0.926     0.061     2.184     2.311
    93   1 H        0.926     0.069     2.094     2.263
    94   1 H        0.926     0.007     2.940     2.681
    95   1 H        0.926     0.044     2.392     2.418
    96   1 H        0.926     0.035     2.511     2.478
    97   1 H        0.926     0.022     2.707     2.573
    98   1 H        0.926     0.022     2.699     2.569
    99   1 H        0.926     0.019     2.748     2.592
   100   1 H        0.926     0.041     2.435     2.440
   101   1 H        0.926     0.038     2.476     2.461
   102   1 H        0.926     0.037     2.492     2.469
   103   1 H        0.926     0.038     2.477     2.461
   104   1 H        0.926     0.043     2.407     2.426
   105   1 H        0.926     0.023     2.694     2.567
   106   1 H        0.926     0.040     2.451     2.448
   107   1 H        0.926     0.030     2.592     2.518
   108   1 H        0.926     0.027     2.628     2.535
   109   1 H        0.926     0.030     2.592     2.517
   110   1 H        0.926     0.031     2.575     2.509
   111   1 H        0.926     0.033     2.548     2.496
   112   1 H        0.926     0.030     2.591     2.517
   113   1 H        0.926     0.029     2.604     2.523
   114   1 H        0.926     0.030     2.580     2.512
   115   1 H        0.926     0.031     2.571     2.507
   116   1 H        0.926     0.014     2.825     2.628
   117   1 H        0.926     0.035     2.511     2.478
   118   1 H        0.926     0.022     2.708     2.573
   119   1 H        0.926     0.022     2.699     2.569
   120   1 H        0.926     0.019     2.749     2.593
   121   1 H        0.926     0.041     2.435     2.440
   122   1 H        0.926     0.038     2.476     2.461
   123   1 H        0.926     0.037     2.492     2.469
   124   1 H        0.926     0.038     2.477     2.461
   125   1 H        0.926     0.043     2.407     2.426
   126   1 H        0.926     0.023     2.694     2.567
   127   1 H        0.926     0.040     2.450     2.448
   128   1 H        0.926     0.030     2.591     2.517
   129   1 H        0.926     0.027     2.628     2.535
   130   1 H        0.926     0.030     2.591     2.517
   131   1 H        0.926     0.031     2.575     2.509
   132   1 H        0.926     0.031     2.572     2.508
   133   1 H        0.926     0.030     2.580     2.512
   134   1 H        0.926     0.029     2.604     2.523
   135   1 H        0.926     0.030     2.591     2.517
   136   1 H        0.926     0.033     2.548     2.496
   137   1 H        0.926     0.014     2.825     2.629
   138   1 H        0.926     0.074     2.039     2.233
   139   1 H        0.926     0.061     2.185     2.311
   140   1 H        0.926     0.069     2.094     2.263

molecular dipole:
                 x           y           z       tot (Debye)
 q only:       -0.002      -1.122       0.002
   full:       -0.002      -1.477       0.003       3.755

 projected vibrational frequencies (cm⁻¹)
eigval :       -0.00    -0.00    -0.00     0.00     0.00     0.00
eigval :        7.26     7.85    13.82    15.29    16.79    17.02
eigval :       17.61    22.12    24.08    25.46    30.99    31.78
eigval :       32.51    37.02    39.07    43.02    47.81    48.00
eigval :       48.76    55.33    56.94    59.61    62.67    64.74
eigval :       67.63    73.37    74.40    78.84    82.27    89.43
eigval :       90.16    94.73   100.06   115.83   116.42   119.51
eigval :      134.98   147.08   160.76   164.86   172.96   178.25
eigval :      181.86   191.25   196.33   197.76   198.15   215.11
eigval :      220.19   227.06   229.85   231.37   235.38   238.14
eigval :      243.47   243.80   248.77   259.80   259.94   269.61
eigval :      278.27   280.82   311.92   315.66   315.84   322.09
eigval :      325.77   340.00   340.11   350.62   357.69   369.36
eigval :      374.16   374.30   375.26   378.85   380.96   385.18
eigval :      385.19   387.97   392.40   393.91   395.41   404.67
eigval :      407.30   412.00   425.17   426.48   437.25   455.87
eigval :      470.26   474.29   474.68   475.27   481.24   482.87
eigval :      490.45   492.47   493.43   493.95   498.39   498.68
eigval :      503.46   521.12   530.27   531.25   535.96   539.50
eigval :      546.83   553.00   553.94   556.48   556.52   566.02
eigval :      570.75   577.01   580.67   584.57   585.92   588.21
eigval :      589.19   590.23   591.78   595.23   596.98   598.68
eigval :      609.03   611.22   612.56   621.83   623.46   632.19
eigval :      635.22   642.90   648.07   659.44   661.82   661.90
eigval :      666.70   670.04   672.11   677.11   678.40   679.38
eigval :      682.84   688.17   705.42   705.54   710.27   713.38
eigval :      726.01   739.56   745.15   747.41   756.93   757.21
eigval :      758.47   761.73   770.59   771.56   774.17   775.42
eigval :      795.97   804.57   806.31   822.99   823.48   824.49
eigval :      847.76   848.02   856.19   865.08   869.87   873.95
eigval :      873.96   876.82   876.88   877.69   877.82   879.83
eigval :      882.17   882.54   883.57   884.33   891.39   891.44
eigval :      894.24   894.34   896.98   899.62   901.43   901.88
eigval :      904.58   912.29   913.13   914.25   914.39   917.01
eigval :      919.03   922.66   923.79   925.87   925.91   926.72
eigval :      926.74   927.10   928.45   928.55   928.68   929.93
eigval :      929.97   932.42   932.46   932.70   932.77   965.90
eigval :      978.78   979.72   991.76   994.61   994.65   999.78
eigval :     1005.53  1005.58  1051.88  1069.65  1074.72  1078.59
eigval :     1079.21  1081.90  1083.50  1083.52  1084.20  1084.20
eigval :     1097.34  1103.09  1104.64  1108.47  1111.22  1113.61
eigval :     1113.81  1121.74  1122.11  1123.90  1124.94  1125.15
eigval :     1148.56  1156.36  1164.30  1164.85  1179.45  1179.46
eigval :     1180.26  1180.46  1180.93  1181.66  1181.67  1181.68
eigval :     1185.01  1186.77  1188.05  1188.06  1195.47  1195.66
eigval :     1196.00  1197.90  1204.39  1204.91  1214.72  1215.66
eigval :     1218.67  1219.96  1241.23  1245.73  1248.55  1255.03
eigval :     1256.69  1260.37  1267.85  1273.23  1273.75  1275.04
eigval :     1277.79  1278.49  1281.38  1286.96  1287.01  1291.08
eigval :     1295.49  1295.81  1299.86  1303.49  1307.66  1309.37
eigval :     1310.04  1311.84  1312.13  1315.92  1320.75  1321.07
eigval :     1323.79  1324.18  1327.68  1328.43  1328.49  1335.74
eigval :     1337.38  1337.87  1358.83  1359.98  1374.64  1388.30
eigval :     1414.04  1423.55  1427.04  1427.25  1429.43  1433.82
eigval :     1433.83  1436.87  1437.30  1441.64  1443.13  1445.02
eigval :     1446.16  1451.91  1453.68  1455.58  1465.56  1465.90
eigval :     1469.83  1471.36  1472.78  1473.89  1475.97  1477.49
eigval :     1477.56  1481.04  1507.00  1539.56  1542.96  1551.84
eigval :     1552.81  1564.96  1568.28  1569.58  1572.13  1576.74
eigval :     1576.79  1579.83  1581.08  1581.22  1584.02  1584.03
eigval :     1587.39  1587.78  1594.33  1594.52  1595.50  1595.50
eigval :     1596.91  1597.13  1601.32  1601.34  3069.05  3069.14
eigval :     3073.95  3073.96  3074.85  3074.86  3076.50  3076.51
eigval :     3076.78  3076.78  3079.40  3079.59  3080.00  3080.07
eigval :     3082.35  3082.35  3085.55  3085.55  3086.90  3086.91
eigval :     3088.61  3088.74  3089.25  3089.32  3090.12  3090.31
eigval :     3090.79  3090.79  3092.75  3092.81  3093.93  3093.95
eigval :     3096.99  3097.00  3097.80  3097.84  3099.79  3099.82
eigval :     3104.17  3104.96  3107.16  3107.31  3108.87  3108.99
eigval :     3113.81  3117.44  3117.89  3123.33  3123.47  3141.48

   temp. (K)  partition function   enthalpy   heat capacity  entropy
                                   cal/mol     cal/K/mol   cal/K/mol   J/K/mol
 298.15  VIB  0.232E+37            43729.793    266.387    276.593
         ROT  0.214E+09              888.752      2.981     41.097
         INT  0.496E+45            44618.546    269.368    317.690
         TR   0.387E+29             1481.254      4.968     47.025
         TOT                       46099.7996   274.3363   364.7156  1525.9703

       T/K    H(0)-H(T)+PV         H(T)/Eh          T*S/Eh         G(T)/Eh
   ------------------------------------------------------------------------
    298.15    0.734647E-01    0.111932E+01    0.173288E+00    0.946032E+00
   ------------------------------------------------------------------------

         :::::::::::::::::::::::::::::::::::::::::::::::::::::
         ::                  THERMODYNAMIC                  ::
         :::::::::::::::::::::::::::::::::::::::::::::::::::::
         :: total free energy        -230.659808891009 Eh   ::
         ::.................................................::
         :: total energy             -231.605840861254 Eh   ::
         :: zero point energy           1.045855436791 Eh   ::
         :: G(RRHO) w/o ZPVE           -0.099823466546 Eh   ::
         :: G(RRHO) contrib.            0.946031970245 Eh   ::
         :::::::::::::::::::::::::::::::::::::::::::::::::::::

           -------------------------------------------------
          | TOTAL ENERGY             -231.605840861254 Eh   |
          | TOTAL ENTHALPY           -230.486520717522 Eh   |
          | TOTAL FREE ENERGY        -230.659808891009 Eh   |
          | GRADIENT NORM               0.000018658222 Eh/α |
          | HOMO-LUMO GAP               2.036930423730 eV   |
           -------------------------------------------------

 * finished run on 2025/08/22 at 05:25:53.330
