   * xtb version 6.7.1 (edcfbbe) compiled by 'albert@albert-system' on 2024-07-22

   ID    Z sym.   atoms
    1    9 F      1, 7, 85, 90
    2    6 C      2-6, 8, 10-15, 17-22, 24-32, 34-48, 50-55, 57-65, 67-81,
                  83, 84, 86-89
    3    7 N      9, 23, 33, 56, 66, 82
    4    5 B      16, 49
    5    1 H      91-140

          program call               : xtb data2507/gas/4F-ν-DABNA/4F-ν-DABNA_gas_S0_finalOpt.xtbopt.xyz --gfn 2 --spinpol --tblite --uhf 2 --ohess vtight --parallel 40 --molden --ceasefiles --namespace data2507/gas/4F-ν-DABNA/4F-ν-DABNA_gas_T1_preOpt
 * total energy  :  -231.5242478 Eh     change        0.1965390E-08 Eh
 * total energy  :  -231.5248405 Eh     change       -0.5927106E-03 Eh
 * total energy  :  -231.5249625 Eh     change       -0.1219169E-03 Eh
 * total energy  :  -231.5249753 Eh     change       -0.1282407E-04 Eh
 * total energy  :  -231.5249848 Eh     change       -0.9513935E-05 Eh
 * total energy  :  -231.5249913 Eh     change       -0.6488436E-05 Eh
 * total energy  :  -231.5250092 Eh     change       -0.1788729E-04 Eh
 * total energy  :  -231.5250168 Eh     change       -0.7631784E-05 Eh
 * total energy  :  -231.5250230 Eh     change       -0.6171620E-05 Eh
 * total energy  :  -231.5250314 Eh     change       -0.8412767E-05 Eh
 * total energy  :  -231.5251577 Eh     change       -0.3572098E-06 Eh
 * total energy  :  -231.5251582 Eh     change       -0.4391065E-06 Eh
 * total energy  :  -231.5251586 Eh     change       -0.4932046E-06 Eh
 * total energy  :  -231.5251591 Eh     change       -0.5059609E-06 Eh
 * total energy  :  -231.5251596 Eh     change       -0.4458966E-06 Eh
 * total energy  :  -231.5251600 Eh     change       -0.4186219E-06 Eh
 * total energy  :  -231.5251605 Eh     change       -0.4386872E-06 Eh
 * total energy  :  -231.5251608 Eh     change       -0.3197411E-06 Eh
 * total energy  :  -231.5251608 Eh     change       -0.2200116E-07 Eh
   *** GEOMETRY OPTIMIZATION CONVERGED AFTER 68 ITERATIONS ***

 final structure:
================
140
 xtb: 6.7.1 (edcfbbe)
F            3.13458701103638       -2.32890610172236       -2.30453347410885
C            2.67268484972982       -3.02342579545394       -1.24693255558041
C            2.58167649596651       -4.39504556510619       -1.33161769887271
C            2.09859557400660       -5.11437038985727       -0.24595472321546
C            1.72781484427803       -4.45179168043168        0.91710069998697
C            1.84244218034677       -3.08031048661397        0.97971292205991
F            1.49234669720080       -2.44460241329028        2.11576592392125
C            2.30291614668399       -2.31354602610332       -0.09804781653067
N            2.38427896819430       -0.90135413338666       -0.05572075310887
C            1.21545067593306       -0.16599225097239       -0.06026869149166
C           -0.00031156158491       -0.83711084308192        0.00119444760817
C           -1.21556394286005       -0.16498267487698        0.06116561409402
C           -1.23032393627173        1.25536605806355        0.16816769276709
C            0.00064126886858        1.89251829374200       -0.00229113470923
C            1.23118549165085        1.25406937700835       -0.17095114799939
B            2.58067545474046        1.94582937739528       -0.43888858972268
C            2.90556383708253        3.40530424021009       -0.81588032035960
C            1.96720352664087        4.36488933530608       -1.22228898517364
C            2.30191784743413        5.68060651652099       -1.45812841017231
C            3.61629222343211        6.09601067933989       -1.28652851016909
C            4.58564082305636        5.17730217741016       -0.94329228868597
C            4.25780822377881        3.83047572473396       -0.74620386990903
N            5.27734929979836        2.93158350242529       -0.47922428513358
C            6.61359415882721        3.41210178904466       -0.35933087441538
C            7.17970120809557        3.53815217703841        0.90318813855535
C            8.49124609788581        3.95770506014428        1.03112961459740
C            9.23914599182441        4.25461226111136       -0.09594305067101
C            8.67275801356327        4.13449562116893       -1.35433270008061
C            7.36275664226472        3.71139527194268       -1.49059760214551
C            5.09790540679566        1.57288001790943       -0.32829489928072
C            6.21077540833787        0.73791154467522       -0.24184869114711
C            6.04533863699799       -0.62311947119229        0.00560927812607
N            7.16119867968776       -1.45293121832801        0.14607583876187
C            7.10485958962963       -2.77315061473962       -0.31323395004954
C            6.39871753371979       -3.09136381688100       -1.47423076684555
C            6.32146590595336       -4.40088155940270       -1.90410685800278
C            6.95186321554339       -5.41178019999874       -1.19664426353567
C            7.66575156468461       -5.09950075627120       -0.05116422812578
C            7.74169369529562       -3.79388286618378        0.39296798468274
C            8.33528479813328       -0.95124443152214        0.71524610991156
C            8.27748034741890       -0.04665561080387        1.77686272990449
C            9.43811840763628        0.47089623249169        2.31524264966667
C           10.67398973358218        0.09061421712300        1.81756752084779
C           10.73829140266285       -0.81764267726502        0.77340246636012
C            9.58254892671676       -1.33377887817435        0.22107899049131
C            4.76362213698142       -1.15516613816286        0.11712467570981
C            3.65065418917282       -0.34116027697722       -0.08178637263430
C            3.79003073403391        1.04723831993600       -0.28171949177699
B           -2.57928871574733        1.94874518027967        0.43461816468775
C           -2.90310029781594        3.40945207914648        0.80776040418596
C           -1.96396637364207        4.36957980561190        1.21111256962018
C           -2.29774578602050        5.68617179161699        1.44336083038859
C           -3.61189677420937        6.10196148055562        1.27102019379141
C           -4.58197906198349        5.18289813329941        0.93078355980125
C           -4.25508616367442        3.83530845063334        0.73748469795367
N           -5.27534219500357        2.93629318910002        0.47361291600780
C           -6.61138809983569        3.41722411923063        0.35338695248375
C           -7.17859627608819        3.53951633017933       -0.90900780247018
C           -8.49002986064280        3.95936862752368       -1.03708449435541
C           -9.23671955427770        4.26032568387759        0.08971825434059
C           -8.66922083434059        4.14397955558278        1.34796201124667
C           -7.35932885838784        3.72059405770768        1.48437673240746
C           -5.09680029794896        1.57706024634690        0.32637714482570
C           -6.21022908702435        0.74254867261386        0.24310297060292
C           -6.04581575610204       -0.61927206559759       -0.00067429260842
N           -7.16232780857316       -1.44874078212512       -0.13789501590833
C           -7.10663325267114       -2.76767181605676        0.32515178361466
C           -6.39945787181419       -3.08320691583762        1.48624717230426
C           -6.32291760512470       -4.39156032193436        1.91978380649796
C           -6.95507798036675       -5.40389550908401        1.21596195537001
C           -7.67001341355129       -5.09423594373771        0.07042505502285
C           -7.74524195886260       -3.78983048299438       -0.37737546598225
C           -8.33660175970095       -0.94769707500001       -0.70728288665582
C           -9.58366478667327       -1.32751505160639       -0.21054069802395
C          -10.73952760082819       -0.81190175910740       -0.76310656315916
C          -10.67551583333477        0.09312102841283       -1.81009242327476
C           -9.43984254409755        0.47065990348488       -2.31033959275674
C           -8.27910282512123       -0.04639903916332       -1.77170295563075
C           -4.76450269279959       -1.15240094274235       -0.11172006223085
C           -3.65091295816533       -0.33853102784235        0.08417907591042
C           -3.78927683918134        1.05050206604126        0.28041958675471
N           -2.38490293399958       -0.89958636635713        0.05883751478076
C           -2.30436808684135       -2.31172935544649        0.10456496480962
C           -2.67364777289970       -3.01858078797319        1.25545153510488
F           -3.13439232011842       -2.32123288947693        2.31169813731796
C           -2.58329241365764       -4.39005501123373        1.34340550670926
C           -2.10142068808012       -5.11225415491389        0.25912895559887
C           -1.73117819772206       -4.45272917290111       -0.90582028410013
C           -1.84511291137862       -3.08132681540419       -0.97167495363105
F           -1.49548001602914       -2.44853583242888       -2.10950025670749
H            2.87808159534647       -4.88713949302114       -2.24326275512264
H            2.01489314623732       -6.18667208455813       -0.30401467280147
H            1.35643910954803       -4.98773777368141        1.77530805392216
H           -0.00068016207110       -1.91383526654311        0.00248117138995
H            0.00101891205978        2.96763208585660       -0.00372249607948
H            0.94544322023809        4.05525162068064       -1.37224016571254
H            1.54537347297476        6.38904554715514       -1.76287695073154
H            3.88821743816772        7.13069895914211       -1.43492123880671
H            5.60756780917491        5.50789695371009       -0.83298010801637
H            6.58709311393144        3.29967419807457        1.77381523134495
H            8.93067318470415        4.05238886679023        2.01255377273067
H           10.26374149538140        4.57875621369036        0.00585702487094
H            9.25467879703411        4.36511687651390       -2.23413395284997
H            6.91295387683609        3.60674826086449       -2.46685714590275
H            7.20973864125633        1.12766363800870       -0.35421159633660
H            5.91428501627611       -2.30632968704264       -2.03526867818735
H            5.77357561565736       -4.63053249959930       -2.80599176567264
H            6.89054610395689       -6.43441174317527       -1.53684659156067
H            8.16027547399328       -5.88063902310932        0.50749153118028
H            8.28854405338686       -3.55448643295970        1.29332960895702
H            7.31594745777125        0.24213369743776        2.17458807060088
H            9.37771919367252        1.16928619743535        3.13696591671896
H           11.57978006768745        0.49661369969365        2.24155958784361
H           11.69708448691784       -1.11959991818193        0.37802201499066
H            9.63562865033336       -2.03099177660607       -0.60230359244634
H            4.65277918446674       -2.20226177085502        0.35535088598907
H           -0.94234524504675        4.05972011230346        1.36153230937061
H           -1.54063007687267        6.39497391485452        1.74583131133561
H           -3.88308655828260        7.13725039587252        1.41652579565404
H           -5.60372251425089        5.51385743736408        0.81987323712969
H           -6.58693811281091        3.29788017988532       -1.77940985857703
H           -8.93032444008271        4.05110591212347       -2.01839770957320
H          -10.26123756773410        4.58468139325104       -0.01217634488568
H           -9.25019185249475        4.37776740339842        2.22755389636522
H           -6.90867294909390        3.61886210479305        2.46055083036906
H           -7.20886745982471        1.13320177256045        0.35517333610774
H           -5.91368001917362       -2.29702529436285        2.04450523984256
H           -5.77420007351364       -4.61912517845335        2.82169423191619
H           -6.89432535397169       -6.42560187391537        1.55903296510648
H           -8.16592981238936       -5.87650772154302       -0.48540273936994
H           -8.29291979212060       -3.55251287897925       -1.27778406402555
H           -9.63648474960781       -2.02217596070032        0.61501233583644
H          -11.69816651736457       -1.11168745906882       -0.36570729832276
H          -11.58138774365892        0.49874240528382       -2.23427098349296
H           -9.37969649408843        1.16648095841673       -3.13425666941094
H           -7.31773020811685        0.24024124091929       -2.17136710833651
H           -4.65448392004670       -2.20021372879745       -0.34713052580624
H           -2.87927054352728       -4.87976982440144        2.25647404612235
H           -2.01824842651800       -6.18446949169062        0.31973063327033
H           -1.36074205518014       -4.99095759431331       -1.76300946338277

 projected vibrational frequencies (cm⁻¹)
eigval :       -0.00    -0.00    -0.00     0.00     0.00     0.00
eigval :        6.56     7.31    13.01    14.34    16.81    17.03
eigval :       17.30    21.64    23.81    25.46    30.77    31.63
eigval :       32.88    36.41    38.40    42.69    47.12    47.24
eigval :       48.22    54.95    57.18    60.04    62.72    64.60
eigval :       67.87    74.16    74.68    77.91    82.33    89.01
eigval :       90.16    91.21    98.67   112.40   113.91   117.99
eigval :      133.24   146.18   159.89   162.70   172.23   176.16
eigval :      179.10   188.30   195.54   196.10   197.24   214.30
eigval :      219.84   221.00   231.06   231.68   234.80   237.38
eigval :      242.12   242.64   247.05   258.61   260.39   268.18
eigval :      272.57   279.77   311.37   316.13   316.92   322.27
eigval :      323.43   340.01   341.51   351.40   356.69   362.18
eigval :      373.32   373.42   375.82   378.05   380.98   383.53
eigval :      384.87   384.97   392.18   392.55   396.19   401.73
eigval :      404.98   405.69   424.03   424.37   436.35   451.51
eigval :      465.55   469.43   473.82   474.24   476.48   481.26
eigval :      487.91   490.11   491.06   492.07   495.66   496.22
eigval :      499.99   510.52   517.28   519.21   525.23   530.02
eigval :      539.89   541.13   543.62   547.25   549.08   555.82
eigval :      562.64   570.38   573.43   583.53   584.35   585.45
eigval :      586.75   589.10   589.20   593.69   595.25   596.10
eigval :      602.17   607.25   607.45   617.48   618.65   629.15
eigval :      633.36   637.71   639.81   652.72   659.89   660.18
eigval :      661.41   666.61   666.97   668.29   673.10   675.36
eigval :      676.70   680.46   693.21   700.13   704.07   705.05
eigval :      719.55   734.55   741.85   744.09   755.48   755.92
eigval :      757.13   760.07   761.25   762.93   771.92   773.34
eigval :      783.15   786.23   791.26   808.21   808.63   815.84
eigval :      843.57   844.97   845.22   852.54   861.98   863.79
eigval :      871.40   871.86   872.61   872.73   876.22   876.30
eigval :      877.06   877.27   878.36   879.84   883.97   884.01
eigval :      890.10   890.16   892.51   893.85   894.33   894.36
eigval :      897.59   899.88   900.04   902.96   904.57   911.26
eigval :      912.11   916.80   919.07   920.34   922.57   924.96
eigval :      924.99   926.14   926.15   928.06   928.12   929.15
eigval :      929.21   931.68   931.71   932.27   932.36   958.86
eigval :      977.51   978.25   980.17   983.62   992.01   996.51
eigval :     1004.04  1004.08  1043.06  1063.55  1067.75  1071.64
eigval :     1078.60  1078.66  1082.30  1082.57  1083.28  1083.32
eigval :     1085.92  1098.13  1100.43  1104.39  1106.55  1113.63
eigval :     1113.70  1116.97  1121.99  1122.06  1124.67  1124.73
eigval :     1143.19  1149.20  1149.86  1151.66  1173.94  1175.35
eigval :     1178.96  1178.99  1179.90  1179.91  1181.16  1181.19
eigval :     1181.27  1184.42  1186.23  1186.83  1190.17  1193.99
eigval :     1194.61  1195.09  1199.13  1200.78  1208.76  1209.66
eigval :     1211.32  1214.50  1224.41  1237.18  1242.89  1245.87
eigval :     1252.17  1256.19  1261.87  1266.37  1272.10  1273.31
eigval :     1274.92  1277.28  1277.98  1280.64  1280.93  1283.64
eigval :     1285.88  1291.09  1293.12  1297.10  1301.21  1302.09
eigval :     1311.07  1311.16  1312.62  1319.20  1319.45  1320.76
eigval :     1320.89  1321.96  1322.79  1325.36  1328.83  1328.88
eigval :     1329.23  1350.08  1351.87  1357.18  1363.46  1368.16
eigval :     1373.03  1399.04  1401.96  1406.58  1408.39  1412.02
eigval :     1414.00  1414.81  1416.80  1417.30  1433.80  1433.81
eigval :     1435.66  1436.46  1443.29  1443.45  1445.71  1446.71
eigval :     1449.17  1451.13  1453.78  1457.76  1466.61  1467.37
eigval :     1469.30  1469.66  1472.94  1473.57  1474.08  1475.88
eigval :     1498.41  1498.87  1510.79  1514.46  1531.56  1533.47
eigval :     1537.55  1553.73  1559.71  1571.38  1572.02  1572.19
eigval :     1577.03  1577.07  1580.79  1580.82  1591.00  1591.06
eigval :     1592.41  1592.50  1595.67  1596.61  3070.61  3070.84
eigval :     3075.11  3075.12  3075.76  3075.79  3076.95  3076.96
eigval :     3079.15  3079.16  3079.76  3080.04  3081.87  3081.90
eigval :     3084.08  3084.09  3086.23  3086.24  3087.53  3087.54
eigval :     3090.11  3090.16  3090.27  3090.51  3090.66  3091.02
eigval :     3091.59  3091.92  3093.59  3093.71  3095.44  3095.46
eigval :     3097.29  3097.35  3098.48  3098.58  3101.15  3101.29
eigval :     3107.47  3107.89  3108.36  3108.60  3111.20  3111.37
eigval :     3117.20  3117.52  3122.49  3123.81  3124.36  3144.88

   temp. (K)  partition function   enthalpy   heat capacity  entropy
                                   cal/mol     cal/K/mol   cal/K/mol   J/K/mol
 298.15  VIB  0.503E+37            44018.944    268.257    278.574
         ROT  0.214E+09              888.752      2.981     41.096
         INT  0.108E+46            44907.696    271.238    319.670
         TR   0.387E+29             1481.254      4.968     47.025
         TOT                       46388.9502   276.2057   366.6954  1534.2535

       T/K    H(0)-H(T)+PV         H(T)/Eh          T*S/Eh         G(T)/Eh
   ------------------------------------------------------------------------
    298.15    0.739255E-01    0.111444E+01    0.174229E+00    0.940207E+00
   ------------------------------------------------------------------------

         :::::::::::::::::::::::::::::::::::::::::::::::::::::
         ::                  THERMODYNAMIC                  ::
         :::::::::::::::::::::::::::::::::::::::::::::::::::::
         :: total free energy        -230.584954131907 Eh   ::
         ::.................................................::
         :: total energy             -231.525160784278 Eh   ::
         :: zero point energy           1.040509962846 Eh   ::
         :: G(RRHO) w/o ZPVE           -0.100303310475 Eh   ::
         :: G(RRHO) contrib.            0.940206652371 Eh   ::
         :::::::::::::::::::::::::::::::::::::::::::::::::::::

           -------------------------------------------------
          | TOTAL ENERGY             -231.525160784278 Eh   |
          | TOTAL ENTHALPY           -230.410725323681 Eh   |
          | TOTAL FREE ENERGY        -230.584954131907 Eh   |
          | GRADIENT NORM               0.000096853136 Eh/α |
           -------------------------------------------------

 * finished run on 2025/08/22 at 05:26:52.244
