   * xtb version 6.7.1 (edcfbbe) compiled by 'albert@albert-system' on 2024-07-22

   ID    Z sym.   atoms
    1    9 F      1, 7, 85, 90
    2    6 C      2-6, 8, 10-15, 17-22, 24-32, 34-48, 50-55, 57-65, 67-81,
                  83, 84, 86-89
    3    7 N      9, 23, 33, 56, 66, 82
    4    5 B      16, 49
    5    1 H      91-140

          program call               : xtb data2507/gas/4F-ν-DABNA/4F-ν-DABNA_gas_T1_crest.xyz --gfn 2 --spinpol --tblite --uhf 2 --ohess vtight --parallel 40 --molden --ceasefiles --namespace data2507/gas/4F-ν-DABNA/4F-ν-DABNA_gas_T1_finalOpt
 * total energy  :  -231.5251984 Eh     change        0.1713053E-06 Eh
 * total energy  :  -231.5252007 Eh     change       -0.2373305E-05 Eh
 * total energy  :  -231.5252017 Eh     change       -0.9373102E-06 Eh
 * total energy  :  -231.5252032 Eh     change       -0.1516008E-05 Eh
 * total energy  :  -231.5252044 Eh     change       -0.1207872E-05 Eh
 * total energy  :  -231.5252055 Eh     change       -0.1070742E-05 Eh
 * total energy  :  -231.5252062 Eh     change       -0.7422375E-06 Eh
 * total energy  :  -231.5252067 Eh     change       -0.5150559E-06 Eh
 * total energy  :  -231.5252072 Eh     change       -0.4863822E-06 Eh
 * total energy  :  -231.5252079 Eh     change       -0.7144814E-06 Eh
 * total energy  :  -231.5252084 Eh     change       -0.4330073E-06 Eh
 * total energy  :  -231.5252087 Eh     change       -0.2981194E-06 Eh
 * total energy  :  -231.5252089 Eh     change       -0.2019460E-06 Eh
 * total energy  :  -231.5252090 Eh     change       -0.1688073E-06 Eh
 * total energy  :  -231.5252091 Eh     change       -0.7914900E-07 Eh
   *** GEOMETRY OPTIMIZATION CONVERGED AFTER 15 ITERATIONS ***

 final structure:
================
140
 xtb: 6.7.1 (edcfbbe)
F            3.16742238204591       -2.38718475868435       -2.22963845489229
C            2.69290485715863       -3.05543221065462       -1.16058713974064
C            2.60351129649209       -4.42878638113795       -1.21227494486765
C            2.10683236394436       -5.12145630560382       -0.11551009004245
C            1.72093520111731       -4.43048031990871        1.02598370806305
C            1.83401713046888       -3.05784922706675        1.05597037843193
F            1.46896017826446       -2.39422445684059        2.17106761924350
C            2.30795712166718       -2.31746100689727       -0.03448806328198
N            2.38620120241659       -0.90488065690100       -0.02501524518362
C            1.21555774971929       -0.17296463146714       -0.04650202404714
C            0.00050507971820       -0.84601458445726        0.00768960046992
C           -1.21520353151584       -0.17409664446006        0.06061623412553
C           -1.22975886324592        1.24534796020075        0.18222009175846
C           -0.00078134319538        1.88492181525528        0.00712138377250
C            1.22871894698836        1.24644366352790       -0.16863518981827
B            2.57477842255841        1.93473528727480       -0.45978457800674
C            2.89275395469345        3.38492650813203       -0.87499030251226
C            1.94706192546559        4.33201621391609       -1.29334040699284
C            2.27755168032785        5.63996107099436       -1.57398696043329
C            3.59481889727953        6.05956079105208       -1.43824364312208
C            4.56990806065279        5.15187856719581       -1.08207854691981
C            4.24544960379718        3.81215677445960       -0.83708679649138
N            5.26888209389760        2.92252841094832       -0.55432737173554
C            6.60607360429298        3.40799909223901       -0.46733691575143
C            7.18462792480705        3.58759558631776        0.78289469152769
C            8.49758348061583        4.01128220531242        0.87956892319954
C            9.23413784533775        4.25921988309197       -0.26662010878408
C            8.65510109919817        4.08608347363968       -1.51301249881662
C            7.34370359156011        3.65836821057674       -1.61784431846732
C            5.09321405413922        1.56893258136593       -0.35989362470358
C            6.20797695511827        0.73961375006452       -0.24801586672456
C            6.04621720552822       -0.61327699880176        0.04321890025794
N            7.16523565466683       -1.43223388083766        0.21749980400052
C            7.11872550749035       -2.76849267708663       -0.19376712317052
C            6.42040981321107       -3.13321822401601       -1.34572513291672
C            6.35389350860166       -4.45800288191328       -1.72809815689925
C            6.98730354942132       -5.43834638952670       -0.98144075230419
C            7.69327124973945       -5.08003302435566        0.15545175509450
C            7.75849299363965       -3.75869716324397        0.55217937018941
C            8.33416217071565       -0.90396841442237        0.77353335721209
C            8.26670693509256        0.03587821438332        1.80351020164767
C            9.42195643340885        0.57982049673923        2.32721541759340
C           10.66203000558315        0.19145185752639        1.84646096879983
C           10.73596816107662       -0.75191460494387        0.83459930997518
C            9.58558294178687       -1.29484443333756        0.29687362862252
C            4.76595431259813       -1.14642334827356        0.16570389609447
C            3.65123368078719       -0.34160699586147       -0.05910039224529
C            3.78686497784712        1.04167572737042       -0.29389816571463
B           -2.57688201173838        1.93264031914465        0.47091767190392
C           -2.89691027206614        3.38263839323030        0.88503508828353
C           -1.95295567497077        4.33023787469992        1.30611818814207
C           -2.28505684602095        5.63796626944442        1.58588459660813
C           -3.60223548226186        6.05669336165430        1.44659101870631
C           -4.57576633590704        5.14845121964526        1.08757447364438
C           -4.24974958324017        3.80901435695314        0.84308178957531
N           -5.27179685162175        2.91892682632158        0.55672621305291
C           -6.60886304742425        3.40402760204822        0.46533683514600
C           -7.18215350673624        3.58685309298089       -0.78683129663459
C           -8.49483634241456        4.01039650655285       -0.88788808268635
C           -9.23627808668659        4.25499025015932        0.25586113344064
C           -8.66246817122705        4.07861451886864        1.50421760823038
C           -7.35138854351324        3.65100252503406        1.61341234558617
C           -5.09485276833988        1.56553774942512        0.36212433096030
C           -6.20870137311170        0.73575905411525        0.24440929361506
C           -6.04493810766599       -0.61684513492013       -0.04728589194412
N           -7.16281176907754       -1.43583820440195       -0.22893745647293
C           -7.11760084414037       -2.77328935587900        0.17839367992732
C           -6.42458748309131       -3.14120170333159        1.33257166815608
C           -6.35866811618807       -4.46717223902195        1.71091983759347
C           -6.98762416428463       -5.44567037750858        0.95811129182169
C           -7.68855852873153       -5.08424342695568       -0.18090005980822
C           -7.75294392172915       -3.76171143599896       -0.57372061518968
C           -8.32775798264971       -0.90766215246600       -0.79341228239403
C           -9.58253680671135       -1.30059468230403       -0.32733963555884
C          -10.72920876416156       -0.75865359639010       -0.87389233889716
C          -10.64825754800646        0.18598218828187       -1.88405108457536
C           -9.40481055404514        0.57675189150143       -2.35398128909048
C           -8.25314821878248        0.03367546778835       -1.82151862001320
C           -4.76387038702338       -1.14941507795745       -0.16350235048422
C           -3.65065682978870       -0.34412711327563        0.06677253799685
C           -3.78796709395709        1.03899875156822        0.30121663211582
N           -2.38524848366653       -0.90687844653321        0.03795540722901
C           -2.30690571897267       -2.31938057807203        0.05267014683904
C           -2.69573437743731       -3.05278831118057        1.18043847791756
F           -3.17375045262438       -2.38012269779531        2.24518675259410
C           -2.60669289261780       -4.42590279440674        1.23807358937903
C           -2.10673775114803       -5.12312756453247        0.14568718606788
C           -1.71729459142988       -4.43684892385451       -0.99741853563379
C           -1.82992092896215       -3.06431317506625       -1.03335365756861
F           -1.46159193347178       -2.40544516311993       -2.15021535977776
H            2.91172131105884       -4.94312137103379       -2.10759764396797
H            2.02421850981105       -6.19490798078743       -0.14811755379905
H            1.33908060888212       -4.94532136482871        1.89247448860782
H            0.00101244792596       -1.92294771482880        0.00816077312732
H           -0.00127293827079        2.96042260814785        0.00737377860487
H            0.92306550321230        4.01760176275221       -1.41589319742573
H            1.51598556140327        6.33940101913033       -1.88690273886984
H            3.86420225379105        7.08885352263476       -1.62410085822972
H            5.59353141381260        5.48533217693059       -0.99932694911376
H            6.60083143904745        3.38672051932238        1.66880872243129
H            8.94706554034812        4.14709261953408        1.85155911539046
H           10.25987567986853        4.58645227062796       -0.18904001378163
H            9.22817163027578        4.27865425826050       -2.40764480343254
H            6.88391193183847        3.51243307977606       -2.58409585452484
H            7.20608838759058        1.12812583219817       -0.37138321230367
H            5.93394547476362       -2.37218617530067       -1.93723559661724
H            5.81221603798921       -4.72398605246469       -2.62373172974039
H            6.93445995426964       -6.47301100203183       -1.28467371514087
H            8.19000511861476       -5.83708596951126        0.74448149675707
H            8.29923465486780       -3.48308392071129        1.44585087010371
H            7.30188870301555        0.33138285795731        2.18814610416786
H            9.35408145831041        1.30558003514184        3.12427736139205
H           11.56359174948232        0.61836626331687        2.25875321651873
H           11.69808120086133       -1.06068168294366        0.45280337844500
H            9.64616779282134       -2.01973231457283       -0.50171947184139
H            4.65720476673845       -2.18641038173947        0.43418628417617
H           -0.92911440380056        4.01635969248855        1.43144576086377
H           -1.52482747602013        6.33790745720996        1.90092359124492
H           -3.87280436511346        7.08577287928940        1.63191927597824
H           -5.59939474262200        5.48123103727055        1.00215707864554
H           -6.59452525223964        3.38865410556531       -1.67081181861265
H           -8.94024423389919        4.14877324571239       -1.86139388422047
H          -10.26176750534521        4.58217951762560        0.17485101582910
H           -9.23938297670290        4.26856297629928        2.39693888634899
H           -6.89559010010896        3.50259830864913        2.58117371138919
H           -7.20759240062480        1.12378971910850        0.36295998758165
H           -5.94163269350853       -2.38167983901214        1.92889400948365
H           -5.82087881900870       -4.73567274581149        2.60813790481331
H           -6.93515139929524       -6.48128000927835        1.25813688276355
H           -8.18184845723000       -5.83977321966404       -0.77475301338148
H           -8.28949512276030       -3.48383628085514       -1.46920781243132
H           -9.64868908287177       -2.02654942762298        0.46983995136525
H          -11.69402336610959       -1.06927777449166       -0.50049515440829
H          -11.54700713875322        0.61198486315721       -2.30337742445942
H           -9.33133938497337        1.30365586992333       -3.14950705589268
H           -7.28565921833532        0.33092096221746       -2.19801270162204
H           -4.65310875907891       -2.18914997840423       -0.43215290290048
H           -2.91766932015408       -4.93648885160435        2.13458380098034
H           -2.02444398657044       -6.19644909107005        0.18291489601360
H           -1.33304060383711       -4.95530475381151       -1.86068651450125

 projected vibrational frequencies (cm⁻¹)
eigval :       -0.00    -0.00    -0.00     0.00     0.00     0.00
eigval :        6.07     7.96    12.69    14.35    16.85    16.95
eigval :       17.05    21.40    23.74    25.20    30.28    31.50
eigval :       31.78    35.56    37.01    42.68    46.39    47.53
eigval :       47.59    54.96    57.17    59.99    62.65    64.57
eigval :       67.52    74.36    75.09    77.41    82.36    89.27
eigval :       90.13    91.20    98.70   111.83   113.92   117.64
eigval :      133.31   146.01   160.78   162.88   172.17   176.35
eigval :      180.20   188.66   195.14   195.42   197.37   214.20
eigval :      219.71   221.24   231.04   231.83   234.63   237.27
eigval :      242.17   242.62   246.56   258.72   259.80   267.80
eigval :      271.95   279.74   311.41   316.09   316.52   322.35
eigval :      323.81   340.44   341.66   351.13   356.81   362.26
eigval :      372.90   373.04   375.65   377.95   380.99   383.46
eigval :      384.81   384.85   392.09   392.37   396.27   401.82
eigval :      405.00   405.35   424.06   424.20   436.54   451.87
eigval :      465.53   469.31   473.91   474.27   476.56   481.26
eigval :      487.90   489.99   491.26   492.04   495.39   496.02
eigval :      500.40   510.58   516.98   518.87   525.25   530.09
eigval :      539.87   541.02   543.56   547.77   548.91   555.71
eigval :      562.56   570.55   573.47   583.55   584.45   585.46
eigval :      586.79   589.08   589.21   593.81   595.51   596.00
eigval :      602.07   607.21   607.42   617.64   618.66   628.86
eigval :      633.11   637.61   639.60   652.65   659.86   660.21
eigval :      661.32   666.65   666.98   668.13   673.13   675.19
eigval :      676.52   680.19   692.78   700.02   703.84   704.80
eigval :      718.97   734.63   741.84   744.16   755.44   755.91
eigval :      757.10   759.90   760.56   762.14   771.78   773.30
eigval :      782.84   786.20   791.21   807.13   807.86   816.02
eigval :      844.15   844.90   845.37   852.45   860.92   864.09
eigval :      871.56   872.18   872.54   872.87   875.77   875.81
eigval :      877.18   877.36   878.34   880.12   883.63   884.09
eigval :      890.16   890.21   892.57   893.78   894.31   894.47
eigval :      897.64   899.50   899.55   902.56   903.90   911.28
eigval :      912.12   916.58   918.96   920.46   921.92   924.84
eigval :      924.90   926.09   926.10   927.99   928.05   928.71
eigval :      928.87   931.20   931.45   932.29   932.35   958.85
eigval :      977.56   978.18   980.48   984.00   992.11   996.67
eigval :     1004.05  1004.10  1043.21  1063.62  1067.39  1071.08
eigval :     1078.58  1078.62  1082.37  1082.60  1083.27  1083.36
eigval :     1085.29  1098.38  1100.28  1104.34  1106.39  1113.49
eigval :     1113.55  1116.53  1122.02  1122.08  1124.66  1124.72
eigval :     1143.34  1149.57  1150.57  1151.59  1174.42  1175.63
eigval :     1178.90  1178.94  1179.78  1179.79  1181.00  1181.01
eigval :     1181.47  1184.27  1186.48  1186.67  1189.84  1194.02
eigval :     1194.64  1195.16  1199.29  1201.04  1208.93  1209.59
eigval :     1211.12  1214.42  1224.41  1237.40  1242.80  1246.23
eigval :     1252.07  1256.26  1262.22  1266.73  1272.05  1273.16
eigval :     1274.80  1277.33  1278.07  1280.86  1280.91  1283.11
eigval :     1286.15  1291.11  1293.22  1296.30  1301.32  1302.35
eigval :     1310.88  1310.96  1313.12  1319.27  1319.52  1320.84
eigval :     1321.16  1322.00  1322.78  1325.35  1328.81  1328.88
eigval :     1329.33  1350.25  1351.79  1356.61  1363.35  1368.17
eigval :     1372.77  1399.12  1402.21  1409.21  1409.96  1412.40
eigval :     1414.07  1415.01  1417.00  1417.18  1433.74  1433.75
eigval :     1435.63  1436.46  1443.21  1443.35  1445.65  1446.73
eigval :     1449.15  1451.28  1453.66  1457.93  1466.72  1467.43
eigval :     1469.42  1469.78  1473.03  1473.47  1474.08  1475.75
eigval :     1498.11  1498.73  1511.39  1515.01  1531.11  1533.68
eigval :     1536.70  1553.72  1559.69  1571.54  1572.07  1572.28
eigval :     1577.07  1577.12  1581.28  1581.35  1591.12  1591.18
eigval :     1592.86  1592.94  1595.76  1596.61  3070.51  3070.70
eigval :     3075.10  3075.13  3075.67  3075.70  3076.85  3076.87
eigval :     3079.07  3079.10  3079.74  3079.99  3081.80  3081.82
eigval :     3084.12  3084.12  3086.27  3086.30  3087.53  3087.56
eigval :     3089.77  3090.03  3090.11  3090.19  3090.79  3091.01
eigval :     3091.72  3091.86  3093.59  3093.71  3095.42  3095.44
eigval :     3097.17  3097.26  3098.48  3098.56  3101.09  3101.24
eigval :     3107.27  3107.71  3108.61  3108.88  3111.32  3111.51
eigval :     3117.42  3117.53  3119.59  3124.03  3124.50  3139.51

   temp. (K)  partition function   enthalpy   heat capacity  entropy
                                   cal/mol     cal/K/mol   cal/K/mol   J/K/mol
 298.15  VIB  0.609E+37            44030.979    268.177    278.671
         ROT  0.214E+09              888.752      2.981     41.096
         INT  0.130E+46            44919.731    271.158    319.768
         TR   0.387E+29             1481.254      4.968     47.025
         TOT                       46400.9851   276.1259   366.7930  1534.6618

       T/K    H(0)-H(T)+PV         H(T)/Eh          T*S/Eh         G(T)/Eh
   ------------------------------------------------------------------------
    298.15    0.739447E-01    0.111441E+01    0.174275E+00    0.940132E+00
   ------------------------------------------------------------------------

         :::::::::::::::::::::::::::::::::::::::::::::::::::::
         ::                  THERMODYNAMIC                  ::
         :::::::::::::::::::::::::::::::::::::::::::::::::::::
         :: total free energy        -230.585077541988 Eh   ::
         ::.................................................::
         :: total energy             -231.525209108989 Eh   ::
         :: zero point energy           1.040462069427 Eh   ::
         :: G(RRHO) w/o ZPVE           -0.100330502427 Eh   ::
         :: G(RRHO) contrib.            0.940131567001 Eh   ::
         :::::::::::::::::::::::::::::::::::::::::::::::::::::

           -------------------------------------------------
          | TOTAL ENERGY             -231.525209108989 Eh   |
          | TOTAL ENTHALPY           -230.410802362947 Eh   |
          | TOTAL FREE ENERGY        -230.585077541988 Eh   |
          | GRADIENT NORM               0.000100614465 Eh/α |
           -------------------------------------------------

 * finished run on 2025/08/22 at 06:08:00.885
