   * xtb version 6.7.1 (edcfbbe) compiled by 'albert@albert-system' on 2024-07-22

   ID    Z sym.   atoms
    1    7 N      1, 21, 28, 36, 56, 73
    2    6 C      2-20, 22-27, 29-35, 37-55, 57-72, 74-76
    3    1 H      77-120

          program call               : xtb data2507/toluene/TNPZ/TNPZ_toluene_T1_crest.xyz --gfn 2 --uhf 2 --gbsa toluene --ohess vtight --parallel 40 --molden --ceasefiles --namespace data2507/toluene/TNPZ/TNPZ_toluene_T1_finalOpt
      * Solvation model:               GBSA
        Solvent                        toluene
        Solvent mass                       9.2140E+01 g/mol
          :  Hamiltonian                  GFN2-xTB          :
 * total energy  :  -189.8848324 Eh     change       -0.8978830E-07 Eh
 * total energy  :  -189.8849430 Eh     change       -0.1105663E-03 Eh
 * total energy  :  -189.8850118 Eh     change       -0.6882973E-04 Eh
 * total energy  :  -189.8850145 Eh     change       -0.2634275E-05 Eh
 * total energy  :  -189.8850476 Eh     change       -0.3318100E-04 Eh
 * total energy  :  -189.8850665 Eh     change       -0.1887641E-04 Eh
 * total energy  :  -189.8851055 Eh     change       -0.3898750E-04 Eh
 * total energy  :  -189.8851493 Eh     change       -0.4377853E-04 Eh
 * total energy  :  -189.8851934 Eh     change       -0.4413668E-04 Eh
 * total energy  :  -189.8852318 Eh     change       -0.3833152E-04 Eh
 * total energy  :  -189.8868258 Eh     change       -0.1847401E-06 Eh
 * total energy  :  -189.8868260 Eh     change       -0.1841708E-06 Eh
 * total energy  :  -189.8868262 Eh     change       -0.2049195E-06 Eh
 * total energy  :  -189.8868264 Eh     change       -0.2129887E-06 Eh
 * total energy  :  -189.8868267 Eh     change       -0.2153149E-06 Eh
 * total energy  :  -189.8868269 Eh     change       -0.2522461E-06 Eh
 * total energy  :  -189.8868272 Eh     change       -0.2939532E-06 Eh
 * total energy  :  -189.8868272 Eh     change        0.1166865E-07 Eh
 * total energy  :  -189.8868272 Eh     change       -0.4729586E-07 Eh
   *** GEOMETRY OPTIMIZATION CONVERGED AFTER 153 ITERATIONS ***

 final structure:
================
120
 xtb: 6.7.1 (edcfbbe)
N           12.74002635389818       -6.46090471928933       -0.69728842216648
C           11.76570549984972       -5.85454281181321       -0.63862689942847
C           10.56965521204230       -5.11253109621019       -0.56707543824280
C            9.46881673346982       -5.62195052579739        0.12775657646879
C            8.30007226787196       -4.89484930138093        0.18878662256067
C            8.19510532818701       -3.64628933165090       -0.43101053512900
C            6.94666492267931       -2.88129496177400       -0.35838809736975
C            5.70405610385763       -3.53529362767153       -0.43232822828795
C            4.54364286750708       -2.81537107306837       -0.36083988308947
C            4.56201228643165       -1.41839297328726       -0.20413239694370
C            5.80236037659156       -0.73991947697840       -0.12620865131206
C            6.97026202285302       -1.50451734339173       -0.21070234190073
C            5.81438425614733        0.69706171015605        0.03983149747155
C            6.99506566725595        1.44101301431072        0.13135252501808
C            6.99490998050761        2.81769023582369        0.28166520607256
C            8.25632383339430        3.56008422879030        0.36475640377434
C            9.35135579312414        3.03923246347627        1.06022228434650
C           10.53674430730053        3.73692625935981        1.14337787319714
C           10.65560242495480        4.98343004786719        0.52213206812036
C           11.86431006688058        5.70353314873753        0.60429859958334
N           12.84903090140692        6.29192923271910        0.67157231054891
C            9.56908785908303        5.51428779368180       -0.17913827866826
C            8.38808415633688        4.80822862835549       -0.25067049025566
C            5.76362933578540        3.49332641239736        0.34950146746685
C            4.59117740415282        2.79386052552174        0.27063182156494
C            4.58576032552004        1.39703638995268        0.11241679641137
C            3.33679806268381        0.70890821508994        0.02963607093795
N            2.18894754637491        1.36951307696759        0.09590931711953
C            1.01522262662982        0.73692864556079        0.02580681108619
C           -0.20078028482583        1.41138750000296        0.08351995682003
C           -1.41633330083949        0.74036851555704        0.01551780463619
C           -2.66607046196165        1.51096226183751        0.00812792483667
C           -3.66061107920759        1.24779815398473       -0.93562682717681
C           -4.84108853886135        1.95632132579120       -0.93838791904790
C           -5.07221624654004        2.95240434910477        0.01363276076422
N           -6.28727013876542        3.64069251427841        0.03644552741933
C           -6.31606286451879        5.00219925163234        0.35970280581579
C           -7.35613957415640        5.52563214492895        1.12892628914857
C           -7.37933646639393        6.87099126209926        1.44179413186462
C           -6.36959307812358        7.71208390286806        1.00099260381319
C           -5.33248092661928        7.19622443409086        0.23977709818547
C           -5.30286472896828        5.85351520854950       -0.08349595699835
C           -7.47550359686425        2.96220281954993       -0.25740552242409
C           -8.50136000875199        3.59816527720953       -0.95808343151336
C           -9.67119422257201        2.92070931429151       -1.24377862112846
C           -9.83604844763730        1.60345904398808       -0.84530595408137
C           -8.81937638399934        0.96661180235946       -0.15085835532645
C           -7.64933710838201        1.63725641041746        0.14682253477049
C           -4.06873664153030        3.24081741607014        0.94098873418443
C           -2.88357748225125        2.53614155272901        0.92844513463156
C           -1.42689519315689       -0.66349672895129       -0.09164747351410
C           -2.68611513029356       -1.42221527665771       -0.06156215492838
C           -2.95587077710128       -2.40169787452105       -1.01641858457072
C           -4.14118874021805       -3.10611472650018       -0.99411480741549
C           -5.08726785947965       -2.86515812815912        0.00379840965778
N           -6.29367645084767       -3.57225329260803        0.02153516251084
C           -6.94839069831152       -3.84593505240243       -1.18550410548425
C           -7.59144549986249       -5.06818533000185       -1.38431708239401
C           -8.23802973990669       -5.32617902171217       -2.57769693491614
C           -8.24956267085189       -4.37843792715407       -3.58916033729940
C           -7.60888805532885       -3.16431876270429       -3.39755208760460
C           -6.96374637449549       -2.89428852251993       -2.20629644567110
C           -6.83977502602778       -4.00053060550695        1.23485205014116
C           -8.22306815056299       -4.02181199734179        1.42226916437734
C           -8.75600681690633       -4.44677594730225        2.62373425197172
C           -7.92531546381506       -4.85077531880787        3.65715267087186
C           -6.55110264946647       -4.83053234501170        3.47711535944322
C           -6.00805116521553       -4.41339768117196        2.27749688444009
C           -4.80748790595516       -1.90840583166447        0.98143009346139
C           -3.62793615872126       -1.19731835383477        0.94316861591194
C           -0.22382011854997       -1.35341880737373       -0.17315677791485
C            1.00360233549236       -0.69837885622303       -0.12317748341194
N            2.16618879457227       -1.34992734941091       -0.19572903909560
C            3.32511408046835       -0.70881494578490       -0.12552586828633
C            9.30428514262208       -3.14692913230586       -1.11978233121987
C           10.47766370999278       -3.86579696618631       -1.19244287836705
H            9.54516705289018       -6.58348288226399        0.61456406515656
H            7.46018791675970       -5.28651904603101        0.74260485215788
H            5.66943183957477       -4.60502926568698       -0.57344079499863
H            3.58108321233752       -3.30036743444845       -0.42414786795513
H            7.93050080041955       -1.02109808636141       -0.13151901833121
H            7.94702914131307        0.94083795625004        0.05651398742178
H            9.26136891229883        2.08714506443434        1.56147196663288
H           11.37673650320171        3.33187781652046        1.68911845572599
H            9.66589379180633        6.47570060328858       -0.66255141092456
H            7.55940187915309        5.21635063298076       -0.80938800716756
H            5.74674421713798        4.56330205511080        0.49204691175930
H            3.63703164600057        3.29558519925138        0.32977791725725
H           -0.17789736882294        2.48850526072021        0.15451781393488
H           -3.49192218234809        0.49204311700353       -1.68773319199939
H           -5.59524544730310        1.74983472786065       -1.68337458316541
H           -8.13787027517979        4.86973135042832        1.48301107410080
H           -8.18746194390217        7.26399733913345        2.04107240068418
H           -6.39057737068403        8.76245220575234        1.24921723197535
H           -4.54451088903667        7.84570321316011       -0.11241909449231
H           -4.50034033629423        5.45516250921091       -0.68692361960620
H           -8.37127974252281        4.62072010491959       -1.28087989821030
H          -10.45608854223496        3.42310185868886       -1.78987061528232
H          -10.75016066322031        1.07697998256984       -1.07437392327546
H           -8.94193636752382       -0.05715802992496        0.17051260034070
H           -6.86382678394532        1.14478370269319        0.70022981173223
H           -4.23272718017590        4.00986189973157        1.68149236691326
H           -2.12619442799459        2.75466556409635        1.66720304869317
H           -2.23223735439615       -2.59778089418271       -1.79442427117604
H           -4.34139026932735       -3.85483718762481       -1.74661420064543
H           -7.57292458123196       -5.81243573687737       -0.60168538815899
H           -8.72863771218956       -6.27758302295506       -2.72201105270975
H           -8.75423121798744       -4.58509172834361       -4.52083467421557
H           -7.61854843889313       -2.41823019431664       -4.17854165354747
H           -6.47380470361004       -1.94383466369383       -2.05342339093525
H           -8.87349348380716       -3.69965195471541        0.62243294222326
H           -9.82793797617902       -4.45498666369516        2.75700020036976
H           -8.34552448037845       -5.17994137409296        4.59546717545899
H           -5.89622592322621       -5.15080764277287        4.27427588201439
H           -4.93719120126969       -4.41149038322839        2.13596657495528
H           -5.52769280386350       -1.72243492580526        1.76457888766874
H           -3.42457818111987       -0.45931998987143        1.70474837337320
H           -0.21948285344571       -2.43077614581826       -0.24532273712753
H            9.23467648373946       -2.19474970172850       -1.62407224425987
H           11.32880244582767       -3.47735511995435       -1.73302328247141

          :  Hamiltonian                  GFN2-xTB          :
         :: gradient norm              0.000117941644 Eh/a0 ::
         :: HOMO-LUMO gap              0.507358290961 eV    ::
         :: SCC energy              -193.534673579498 Eh    ::
         :: -> dispersion             -0.174137173190 Eh    ::
         :: -> Gsolv                  -0.090351107251 Eh    ::
         :: repulsion energy           3.647846336514 Eh    ::

    * Orbital Energies and Occupations

         #    Occupation            Energy/Eh            Energy/eV
      -------------------------------------------------------------
         1        2.0000           -0.6745341             -18.3550
       ...           ...                  ...                  ...
       166        2.0000           -0.4114069             -11.1950
       167        2.0000           -0.4112178             -11.1898
       168        2.0000           -0.4102017             -11.1622
       169        2.0000           -0.4101212             -11.1600
       170        2.0000           -0.4032606             -10.9733
       171        2.0000           -0.4010054             -10.9119
       172        2.0000           -0.3963556             -10.7854
       173        2.0000           -0.3843201             -10.4579
       174        2.0000           -0.3831798             -10.4269
       175        1.9571           -0.3579317              -9.7398
       176        1.7363           -0.3559569              -9.6861
       177        1.3066           -0.3542060              -9.6384
       178        0.9999           -0.3035951              -8.2612 (HOMO)
       179        0.0001           -0.2849505              -7.7539 (LUMO)
       180                         -0.2747804              -7.4772
       181                         -0.2606549              -7.0928
       182                         -0.2530954              -6.8871
       183                         -0.2440108              -6.6399
       184                         -0.2392482              -6.5103
       185                         -0.2392183              -6.5095
       186                         -0.2385807              -6.4921
       187                         -0.2374501              -6.4613
       188                         -0.2371160              -6.4523
       189                         -0.2350094              -6.3949
       ...                                ...                  ...
       348                          1.1601353              31.5689
      -------------------------------------------------------------
                  HL-Gap            0.0186447 Eh            0.5073 eV

     #   Z          covCN         q      C6AA      α(0)
     1   7 N        0.911    -0.282    27.279     7.554
     2   6 C        1.912     0.117    28.217     8.579
     3   6 C        2.973     0.011    27.766     8.643
     4   6 C        2.923    -0.020    28.501     8.755
     5   6 C        2.923    -0.030    28.757     8.794
     6   6 C        2.976     0.021    27.536     8.608
     7   6 C        2.974     0.006    27.876     8.661
     8   6 C        2.920    -0.037    28.927     8.820
     9   6 C        2.921    -0.030    28.759     8.794
    10   6 C        2.987    -0.011    28.283     8.724
    11   6 C        2.975    -0.001    28.059     8.689
    12   6 C        2.926    -0.039    28.971     8.827
    13   6 C        2.975    -0.001    28.058     8.689
    14   6 C        2.926    -0.039    28.971     8.827
    15   6 C        2.974     0.006    27.875     8.660
    16   6 C        2.976     0.021    27.536     8.608
    17   6 C        2.923    -0.031    28.771     8.796
    18   6 C        2.923    -0.020    28.503     8.755
    19   6 C        2.973     0.011    27.765     8.643
    20   6 C        1.912     0.117    28.217     8.579
    21   7 N        0.911    -0.282    27.278     7.554
    22   6 C        2.923    -0.020    28.501     8.755
    23   6 C        2.923    -0.030    28.756     8.794
    24   6 C        2.920    -0.037    28.927     8.820
    25   6 C        2.921    -0.030    28.758     8.794
    26   6 C        2.987    -0.011    28.283     8.724
    27   6 C        2.942     0.082    26.181     8.392
    28   7 N        1.849    -0.248    27.317     7.746
    29   6 C        2.940     0.085    26.109     8.380
    30   6 C        2.923    -0.066    29.648     8.929
    31   6 C        2.975    -0.000    28.035     8.685
    32   6 C        2.977     0.010    27.800     8.649
    33   6 C        2.923    -0.031    28.781     8.798
    34   6 C        2.920    -0.046    29.139     8.852
    35   6 C        2.925     0.063    26.584     8.455
    36   7 N        2.752    -0.058    22.366     7.024
    37   6 C        2.924     0.065    26.554     8.451
    38   6 C        2.922    -0.045    29.114     8.848
    39   6 C        2.919    -0.028    28.702     8.785
    40   6 C        2.919    -0.035    28.869     8.811
    41   6 C        2.919    -0.028    28.702     8.785
    42   6 C        2.922    -0.045    29.114     8.848
    43   6 C        2.924     0.064    26.556     8.451
    44   6 C        2.921    -0.045    29.119     8.849
    45   6 C        2.919    -0.028    28.701     8.785
    46   6 C        2.919    -0.035    28.871     8.811
    47   6 C        2.919    -0.028    28.689     8.783
    48   6 C        2.922    -0.045    29.117     8.849
    49   6 C        2.920    -0.046    29.134     8.851
    50   6 C        2.923    -0.033    28.834     8.806
    51   6 C        2.976    -0.000    28.029     8.684
    52   6 C        2.977     0.010    27.779     8.646
    53   6 C        2.923    -0.033    28.829     8.805
    54   6 C        2.920    -0.045    29.116     8.849
    55   6 C        2.925     0.063    26.581     8.455
    56   7 N        2.752    -0.060    22.394     7.028
    57   6 C        2.925     0.065    26.551     8.450
    58   6 C        2.921    -0.045    29.112     8.848
    59   6 C        2.919    -0.028    28.703     8.786
    60   6 C        2.919    -0.035    28.869     8.811
    61   6 C        2.919    -0.028    28.698     8.785
    62   6 C        2.922    -0.045    29.107     8.847
    63   6 C        2.923     0.065    26.549     8.450
    64   6 C        2.922    -0.046    29.138     8.852
    65   6 C        2.919    -0.028    28.708     8.786
    66   6 C        2.919    -0.036    28.887     8.814
    67   6 C        2.919    -0.028    28.704     8.786
    68   6 C        2.922    -0.046    29.137     8.852
    69   6 C        2.920    -0.045    29.125     8.850
    70   6 C        2.923    -0.031    28.775     8.797
    71   6 C        2.923    -0.066    29.642     8.928
    72   6 C        2.941     0.085    26.103     8.379
    73   7 N        1.849    -0.248    27.314     7.746
    74   6 C        2.942     0.081    26.186     8.393
    75   6 C        2.923    -0.031    28.771     8.796
    76   6 C        2.923    -0.020    28.503     8.755
    77   1 H        0.926     0.041     2.436     2.441
    78   1 H        0.926     0.048     2.350     2.397
    79   1 H        0.926     0.040     2.450     2.448
    80   1 H        0.926     0.046     2.377     2.411
    81   1 H        0.926     0.043     2.415     2.430
    82   1 H        0.926     0.043     2.415     2.430
    83   1 H        0.926     0.046     2.364     2.404
    84   1 H        0.926     0.041     2.441     2.443
    85   1 H        0.926     0.041     2.435     2.440
    86   1 H        0.926     0.048     2.349     2.397
    87   1 H        0.926     0.040     2.449     2.447
    88   1 H        0.926     0.046     2.375     2.410
    89   1 H        0.926     0.043     2.405     2.425
    90   1 H        0.926     0.036     2.501     2.473
    91   1 H        0.926     0.038     2.471     2.458
    92   1 H        0.926     0.038     2.479     2.462
    93   1 H        0.926     0.039     2.468     2.457
    94   1 H        0.926     0.037     2.492     2.469
    95   1 H        0.926     0.038     2.478     2.462
    96   1 H        0.926     0.036     2.496     2.471
    97   1 H        0.926     0.037     2.492     2.469
    98   1 H        0.926     0.038     2.472     2.459
    99   1 H        0.926     0.037     2.487     2.466
   100   1 H        0.926     0.038     2.476     2.461
   101   1 H        0.926     0.036     2.498     2.472
   102   1 H        0.926     0.039     2.461     2.453
   103   1 H        0.926     0.038     2.471     2.458
   104   1 H        0.926     0.038     2.476     2.461
   105   1 H        0.926     0.039     2.465     2.455
   106   1 H        0.926     0.037     2.490     2.467
   107   1 H        0.926     0.038     2.476     2.461
   108   1 H        0.926     0.037     2.494     2.470
   109   1 H        0.926     0.038     2.474     2.460
   110   1 H        0.926     0.037     2.493     2.469
   111   1 H        0.926     0.037     2.489     2.467
   112   1 H        0.926     0.038     2.476     2.461
   113   1 H        0.926     0.036     2.506     2.475
   114   1 H        0.926     0.037     2.494     2.470
   115   1 H        0.926     0.035     2.514     2.480
   116   1 H        0.926     0.038     2.469     2.457
   117   1 H        0.926     0.035     2.512     2.479
   118   1 H        0.926     0.043     2.413     2.429
   119   1 H        0.926     0.046     2.364     2.404
   120   1 H        0.926     0.041     2.441     2.443

molecular dipole:
                 x           y           z       tot (Debye)
 q only:       -8.634       0.121      -0.008
   full:       -9.234       0.122      -0.003      23.472

 projected vibrational frequencies (cm⁻¹)
eigval :       -0.00    -0.00     0.00     0.00     0.00     0.00
eigval :        4.34     9.58    11.83    12.99    15.04    17.43
eigval :       23.17    24.44    25.75    32.42    35.30    39.57
eigval :       43.62    49.93    50.80    52.37    53.40    58.83
eigval :       61.21    65.29    71.90    73.25    77.81    83.96
eigval :       92.64    96.36   103.19   105.54   108.76   115.51
eigval :      117.12   125.18   138.26   144.72   153.02   169.04
eigval :      171.41   184.00   193.26   203.79   207.57   215.81
eigval :      221.27   224.64   231.80   234.67   245.99   261.46
eigval :      278.57   287.70   303.57   306.13   313.55   316.45
eigval :      322.98   336.98   341.14   347.91   357.58   361.56
eigval :      367.78   368.53   376.51   377.05   379.08   381.33
eigval :      385.89   386.99   387.90   389.65   398.73   402.78
eigval :      411.94   418.95   430.55   431.67   442.62   444.47
eigval :      470.03   474.64   475.34   480.15   484.21   491.67
eigval :      497.65   510.69   515.26   527.14   532.13   534.43
eigval :      536.98   538.94   543.47   545.50   563.55   579.18
eigval :      580.51   582.94   583.57   587.63   589.36   592.97
eigval :      593.59   603.04   603.68   609.74   613.84   614.76
eigval :      615.78   620.10   625.19   627.38   651.43   657.57
eigval :      659.54   660.02   661.07   670.63   673.56   678.17
eigval :      684.35   690.21   691.22   697.09   701.81   706.64
eigval :      712.59   723.36   736.13   740.37   755.80   755.94
eigval :      762.02   763.73   769.29   806.07   806.44   810.11
eigval :      811.36   813.34   818.87   829.77   833.73   834.57
eigval :      845.62   856.30   863.26   865.66   867.38   868.16
eigval :      870.81   873.53   874.42   875.32   876.99   888.48
eigval :      891.31   892.46   895.92   898.25   901.43   908.96
eigval :      909.11   915.19   915.49   917.63   917.90   919.59
eigval :      919.77   919.85   925.95   926.20   927.41   927.75
eigval :      928.08   928.62   929.10   929.38   931.00   931.84
eigval :      931.93   933.15   938.07   952.74   981.61   987.89
eigval :      994.63  1002.98  1003.00  1007.75  1012.17  1027.95
eigval :     1033.97  1061.03  1076.23  1078.56  1080.71  1080.89
eigval :     1082.00  1082.12  1094.13  1120.28  1120.59  1122.77
eigval :     1122.86  1136.28  1137.14  1138.63  1141.44  1156.63
eigval :     1156.93  1177.51  1177.85  1178.72  1178.82  1179.24
eigval :     1181.46  1186.36  1187.95  1191.64  1192.56  1192.79
eigval :     1194.17  1199.19  1211.26  1212.14  1213.00  1221.17
eigval :     1235.00  1235.67  1238.98  1245.84  1248.74  1262.43
eigval :     1266.03  1266.80  1268.32  1268.98  1272.07  1275.53
eigval :     1275.74  1277.42  1278.55  1280.49  1287.70  1291.05
eigval :     1302.79  1303.95  1305.03  1309.30  1311.40  1313.92
eigval :     1314.26  1315.38  1316.59  1322.08  1323.79  1324.22
eigval :     1324.45  1328.44  1341.43  1349.49  1379.71  1391.71
eigval :     1392.86  1399.68  1403.64  1409.10  1410.12  1419.93
eigval :     1421.34  1432.62  1432.73  1439.46  1439.71  1455.61
eigval :     1461.05  1464.04  1464.19  1464.96  1465.40  1469.16
eigval :     1478.01  1482.25  1483.61  1490.61  1501.42  1508.47
eigval :     1526.82  1531.74  1540.10  1540.90  1547.36  1549.12
eigval :     1563.50  1564.54  1571.26  1571.46  1574.84  1575.05
eigval :     1582.29  1585.23  1585.49  1585.86  1587.26  1590.72
eigval :     1593.59  1594.07  2347.53  2349.50  3075.08  3075.55
eigval :     3075.75  3075.90  3075.92  3076.17  3076.59  3077.24
eigval :     3077.36  3078.49  3079.61  3079.91  3080.27  3081.14
eigval :     3081.36  3081.36  3083.25  3083.82  3084.92  3085.34
eigval :     3085.38  3085.54  3086.47  3086.69  3087.23  3088.01
eigval :     3088.27  3088.98  3089.39  3090.61  3091.58  3091.88
eigval :     3092.43  3094.18  3094.25  3094.37  3095.66  3096.07
eigval :     3096.19  3096.64  3096.89  3097.77  3100.15  3109.81

   temp. (K)  partition function   enthalpy   heat capacity  entropy
                                   cal/mol     cal/K/mol   cal/K/mol   J/K/mol
 298.15  VIB  0.126E+32            37023.620    226.097    235.473
         ROT  0.525E+09              888.752      2.981     42.882
         INT  0.662E+40            37912.373    229.078    278.356
         TR   0.292E+29             1481.254      4.968     46.467
         TOT                       39393.6265   234.0462   324.8226  1359.0579

       T/K    H(0)-H(T)+PV         H(T)/Eh          T*S/Eh         G(T)/Eh
   ------------------------------------------------------------------------
    298.15    0.627777E-01    0.968226E+00    0.154334E+00    0.813892E+00
   ------------------------------------------------------------------------

         :::::::::::::::::::::::::::::::::::::::::::::::::::::
         ::                  THERMODYNAMIC                  ::
         :::::::::::::::::::::::::::::::::::::::::::::::::::::
         :: total free energy        -189.072935257498 Eh   ::
         ::.................................................::
         :: total energy             -189.886827244093 Eh   ::
         :: zero point energy           0.905447960995 Eh   ::
         :: G(RRHO) w/o ZPVE           -0.091555974401 Eh   ::
         :: G(RRHO) contrib.            0.813891986595 Eh   ::
         :::::::::::::::::::::::::::::::::::::::::::::::::::::

           -------------------------------------------------
          | TOTAL ENERGY             -189.886827244093 Eh   |
          | TOTAL ENTHALPY           -188.918601543281 Eh   |
          | TOTAL FREE ENERGY        -189.072935257498 Eh   |
          | GRADIENT NORM               0.000121175154 Eh/α |
          | HOMO-LUMO GAP               0.507347224406 eV   |
           -------------------------------------------------

 * finished run on 2025/09/03 at 23:11:47.660
