   * xtb version 6.7.1 (edcfbbe) compiled by 'albert@albert-system' on 2024-07-22

   ID    Z sym.   atoms
    1    7 N      1, 21, 28, 36, 56, 73
    2    6 C      2-20, 22-27, 29-35, 37-55, 57-72, 74-76
    3    1 H      77-120

          program call               : xtb data2507/toluene/TNPZ/TNPZ.xyz --gfn 2 --gbsa toluene --ohess vtight --parallel 40 --molden --ceasefiles --namespace data2507/toluene/TNPZ/TNPZ_toluene_S0_preOpt
      * Solvation model:               GBSA
        Solvent                        toluene
        Solvent mass                       9.2140E+01 g/mol
          :  Hamiltonian                  GFN2-xTB          :
 * total energy  :  -189.8903434 Eh     change       -0.4510412E-08 Eh
 * total energy  :  -189.9140309 Eh     change       -0.2368747E-01 Eh
 * total energy  :  -189.9223300 Eh     change       -0.8299074E-02 Eh
 * total energy  :  -189.9251376 Eh     change       -0.2807645E-02 Eh
 * total energy  :  -189.9269905 Eh     change       -0.1852952E-02 Eh
 * total energy  :  -189.9279609 Eh     change       -0.9703515E-03 Eh
 * total energy  :  -189.9284910 Eh     change       -0.5301421E-03 Eh
 * total energy  :  -189.9288316 Eh     change       -0.3405607E-03 Eh
 * total energy  :  -189.9291409 Eh     change       -0.3092501E-03 Eh
 * total energy  :  -189.9294971 Eh     change       -0.3562639E-03 Eh
 * total energy  :  -189.9338221 Eh     change       -0.9692598E-06 Eh
 * total energy  :  -189.9338230 Eh     change       -0.8991093E-06 Eh
 * total energy  :  -189.9338235 Eh     change       -0.5530369E-06 Eh
 * total energy  :  -189.9338238 Eh     change       -0.2743026E-06 Eh
 * total energy  :  -189.9338238 Eh     change        0.3772496E-07 Eh
 * total energy  :  -189.9338241 Eh     change       -0.3396236E-06 Eh
 * total energy  :  -189.9338245 Eh     change       -0.3778232E-06 Eh
 * total energy  :  -189.9338246 Eh     change       -0.1791197E-06 Eh
 * total energy  :  -189.9338247 Eh     change       -0.1441839E-07 Eh
   *** GEOMETRY OPTIMIZATION CONVERGED AFTER 143 ITERATIONS ***

 final structure:
================
120
 xtb: 6.7.1 (edcfbbe)
N           13.34682590936010       -6.32438304249259       -0.23182492602575
C           12.35975526114134       -5.73958354072454       -0.18298748802141
C           11.14631047889612       -5.02136888771351       -0.12469756418391
C           10.03933122793378       -5.45834557300709       -0.85616590657927
C            8.85611137316649       -4.75272940221360       -0.79448291818068
C            8.74955896619790       -3.60042274415004       -0.01382152614473
C            7.48582985052429       -2.85137185086646        0.03439658053252
C            6.26253254782916       -3.52668408317782        0.11168788768035
C            5.08819512945691       -2.81587595811818        0.13089708566703
C            5.09064855378972       -1.41848536774527        0.06979336190211
C            6.31162063621362       -0.71723159843852        0.01084279047258
C            7.49151196417182       -1.46542786344124       -0.00863450897416
C            6.30905631146087        0.73960328842529       -0.03632024938984
C            7.48658503384334        1.49161895786484       -0.02182787711274
C            7.47618005549643        2.87754101062336       -0.06376339884391
C            8.73779109667927        3.63042227793873       -0.01911816642163
C            8.84409122178896        4.78063715679327        0.76464346921773
C           10.02564370411042        5.48923426336085        0.82411555929620
C           11.13093312731252        5.05758263637728        0.08697219625234
C           12.34278155972565        5.77862251237250        0.14361845417238
N           13.32910474187222        6.36479406055077        0.19108855320073
C           11.03452462368004        3.91135179084595       -0.70541838201283
C            9.84903531250400        3.20780664989010       -0.75044162774565
C            6.25040441247736        3.54891618238464       -0.13551026572354
C            5.07828411557488        2.83428851458739       -0.15011060543763
C            5.08550878698542        1.43687246297505       -0.08957963957762
C            3.83182951963871        0.71829583958525       -0.06312966661238
N            2.70059270676158        1.40008966854504       -0.13032964883012
C            1.55054516675416        0.71351601586135       -0.07368742383608
C            0.31837653772156        1.39238875916093       -0.12818106885447
C           -0.87062580872954        0.71074545078172       -0.05047991158157
C           -2.13068943626552        1.46711986142018       -0.00787250959666
C           -2.40208847976670        2.46556598599489       -0.94098382670669
C           -3.56164258967303        3.20759698408769       -0.86973115571209
C           -4.47438011841791        3.00459491466146        0.16896434262483
N           -5.62173680223639        3.78802377706827        0.26491740333506
C           -6.78597442277045        3.29502581773447        0.87135514966962
C           -7.19410718284775        1.97689225498661        0.66883057709252
C           -8.33487309790971        1.49985833950975        1.28605993748075
C           -9.09643596555949        2.32868934993998        2.09408653783410
C           -8.70402090975550        3.64335689791980        2.28601334481832
C           -7.55560713684243        4.12453643561284        1.68704371309719
C           -5.60758537427666        5.11838564745314       -0.18729954102928
C           -4.50594999615974        5.94013969612618        0.04691157175239
C           -4.50566814424945        7.24705290511461       -0.40233442679425
C           -5.60176691575911        7.75623576344173       -1.08019716155584
C           -6.70208887597346        6.94558756685237       -1.30851260992507
C           -6.70786368310245        5.63505672067986       -0.87008301334654
C           -4.19795433384187        2.00989430982346        1.11085080006787
C           -3.05522801532192        1.24651970787795        1.01174749089170
C           -0.86786644185250       -0.71359457543206        0.05442080928173
C           -2.12526515901370       -1.47459661752241        0.01628615721632
C           -3.05451182137205       -1.25706892252310       -0.99970518725853
C           -4.19492284309921       -2.02443122968157       -1.09448716056536
C           -4.46411546053038       -3.02044376146281       -0.15187502615750
N           -5.60936321002881       -3.80740333708440       -0.24353506018294
C           -6.77703532845858       -3.31753255402654       -0.84612257998088
C           -7.54524622890708       -4.14802920427796       -1.66208863983148
C           -8.69672238155569       -3.66972116611512       -2.25748571576151
C           -9.09372290561510       -2.35704588568443       -2.06138512623980
C           -8.33364417494755       -1.52730021817818       -1.25289607837681
C           -7.18968643079615       -2.00148843926173       -0.63938981450125
C           -5.58995489418719       -5.13797858576886        0.20761512011675
C           -6.68728752059845       -5.65856303712524        0.89221066715194
C           -6.67674459875857       -6.96948088327837        1.32936831488865
C           -5.57449934665964       -7.77665702946698        1.09804558701116
C           -4.48129729424336       -7.26356880291178        0.41845031772092
C           -4.48636876087552       -5.95625541765397       -0.02960235800202
C           -3.54646536193213       -3.22072121170091        0.88301058638449
C           -2.38937363553733       -2.47445029059850        0.95000506540195
C            0.32392288195093       -1.39081573640308        0.12780852696667
C            1.55334195657780       -0.70736191623496        0.06883656328155
N            2.70600445623731       -1.38985064430692        0.12077475095200
C            3.83452061528172       -0.70409521080449        0.04871969111500
C            9.86259695904438       -3.17235982033273        0.71163094278108
C           11.04983866403405       -3.87276715281879        0.66423355827200
H           10.12002806140118       -6.34547003784222       -1.46726082629815
H            8.00771067822987       -5.08398272492119       -1.37411203266734
H            6.24622920873590       -4.60430450332571        0.17336293553737
H            4.13305690269169       -3.31453058245924        0.18699054749298
H            8.44382956127204       -0.96768942652042       -0.09161458737238
H            8.44092104889327        0.99700314973045        0.05658086122882
H            7.99689854074094        5.10775006506823        1.34839998772298
H           10.10640596403052        6.37450343365064        1.43789522071523
H           11.89039768085557        3.58561653528727       -1.27854793108276
H            9.77428336250119        2.33206192460050       -1.37751905158146
H            6.23043342872212        4.62653250256407       -0.19624482672193
H            4.12132242023418        3.32992797091339       -0.20186613646791
H            0.33502456114759        2.46976837909086       -0.19955059696771
H           -1.70556815721905        2.64147439020551       -1.74833584304524
H           -3.76598765384459        3.95854322561444       -1.61856281045333
H           -6.61074415391978        1.33461628822235        0.02520397711616
H           -8.63663047109908        0.47428932934819        1.13210399599486
H           -9.98943240074202        1.95209846578760        2.56995077512273
H           -9.28931128860773        4.29725250861991        2.91613594501063
H           -7.24451579814728        5.14621722608516        1.84995498925207
H           -3.65508016049720        5.54784853013641        0.58488750129861
H           -3.64683833726733        7.87453378648683       -0.21300232477685
H           -5.59895960976657        8.77879479452582       -1.42671169424700
H           -7.55989800232690        7.33386585364290       -1.83804567422643
H           -7.56411612273163        5.00204499544617       -1.05253623291654
H           -4.88008993659963        1.84792679646229        1.93214751662825
H           -2.85395228307644        0.49284042338076        1.75860172879668
H           -2.85893181137781       -0.50244148750163       -1.74711196228208
H           -4.88093055714555       -1.86453324860897       -1.91296555671726
H           -7.23049725744848       -5.16806823585510       -1.82822042181130
H           -9.28076507596477       -4.32419273440647       -2.88816174371191
H           -9.98916299152304       -1.98267045526305       -2.53440474363857
H           -8.63909925698661       -0.50333767333884       -1.09560836144649
H           -6.60723331548408       -1.35862157679200        0.00447653303876
H           -7.54506033735364       -5.02828616257686        1.07699948349777
H           -7.53221816533885       -7.36073178753538        1.86048730137832
H           -5.56790561759093       -8.79949899534305        1.44367384104747
H           -3.62101603156177       -7.88833409997889        0.22673539684924
H           -3.63785784722921       -5.56104816933828       -0.56916544097231
H           -3.74501907940624       -3.97280817522485        1.63225971932010
H           -1.68900739010854       -2.64824165728204        1.75447914366181
H            0.34492352886875       -2.46813272560721        0.19901213406133
H            9.78801061476294       -2.29474961318357        1.33610427491572
H           11.90701516947659       -3.54280137447368        1.23295428566383

          :  Hamiltonian                  GFN2-xTB          :
         :: gradient norm              0.000120318371 Eh/a0 ::
         :: HOMO-LUMO gap              1.195252436201 eV    ::
         :: SCC energy              -193.580863940120 Eh    ::
         :: -> dispersion             -0.174933046850 Eh    ::
         :: -> Gsolv                  -0.087916436928 Eh    ::
         :: repulsion energy           3.647039277202 Eh    ::

    * Orbital Energies and Occupations

         #    Occupation            Energy/Eh            Energy/eV
      -------------------------------------------------------------
         1        2.0000           -0.6772037             -18.4277
       ...           ...                  ...                  ...
       165        2.0000           -0.4096823             -11.1480
       166        2.0000           -0.4075895             -11.0911
       167        2.0000           -0.4075594             -11.0903
       168        2.0000           -0.4071158             -11.0782
       169        2.0000           -0.4062567             -11.0548
       170        2.0000           -0.4060328             -11.0487
       171        2.0000           -0.4022462             -10.9457
       172        2.0000           -0.4022450             -10.9456
       173        2.0000           -0.3913413             -10.6489
       174        2.0000           -0.3898083             -10.6072
       175        2.0000           -0.3546798              -9.6513
       176        2.0000           -0.3528905              -9.6026
       177        2.0000           -0.3503390              -9.5332 (HOMO)
       178                         -0.3064143              -8.3380 (LUMO)
       179                         -0.2882256              -7.8430
       180                         -0.2788529              -7.5880
       181                         -0.2637688              -7.1775
       182                         -0.2601024              -7.0777
       183                         -0.2440524              -6.6410
       184                         -0.2440418              -6.6407
       185                         -0.2430045              -6.6125
       186                         -0.2370999              -6.4518
       187                         -0.2327357              -6.3331
       188                         -0.2326430              -6.3305
       ...                                ...                  ...
       348                          1.1575983              31.4999
      -------------------------------------------------------------
                  HL-Gap            0.0439247 Eh            1.1953 eV

     #   Z          covCN         q      C6AA      α(0)
     1   7 N        0.911    -0.274    27.084     7.527
     2   6 C        1.912     0.118    28.188     8.574
     3   6 C        2.973     0.015    27.671     8.629
     4   6 C        2.924    -0.018    28.460     8.749
     5   6 C        2.923    -0.028    28.706     8.786
     6   6 C        2.977     0.023    27.486     8.600
     7   6 C        2.975     0.014    27.707     8.634
     8   6 C        2.921    -0.032    28.804     8.801
     9   6 C        2.921    -0.028    28.701     8.785
    10   6 C        2.988    -0.007    28.178     8.707
    11   6 C        2.975     0.005    27.910     8.666
    12   6 C        2.928    -0.039    28.964     8.826
    13   6 C        2.975     0.005    27.910     8.666
    14   6 C        2.928    -0.039    28.964     8.826
    15   6 C        2.975     0.014    27.706     8.634
    16   6 C        2.977     0.023    27.486     8.600
    17   6 C        2.923    -0.028    28.706     8.786
    18   6 C        2.924    -0.018    28.460     8.749
    19   6 C        2.973     0.015    27.671     8.629
    20   6 C        1.912     0.118    28.188     8.574
    21   7 N        0.911    -0.274    27.084     7.527
    22   6 C        2.924    -0.018    28.465     8.749
    23   6 C        2.923    -0.029    28.721     8.788
    24   6 C        2.921    -0.032    28.804     8.801
    25   6 C        2.921    -0.028    28.701     8.785
    26   6 C        2.988    -0.007    28.178     8.707
    27   6 C        2.960     0.083    26.137     8.386
    28   7 N        1.848    -0.268    27.807     7.815
    29   6 C        2.964     0.081    26.183     8.393
    30   6 C        2.923    -0.054    29.345     8.884
    31   6 C        2.975     0.011    27.765     8.643
    32   6 C        2.978     0.002    27.971     8.675
    33   6 C        2.923    -0.034    28.839     8.807
    34   6 C        2.921    -0.050    29.245     8.868
    35   6 C        2.921     0.066    26.517     8.444
    36   7 N        2.751    -0.075    22.697     7.076
    37   6 C        2.924     0.065    26.554     8.451
    38   6 C        2.922    -0.047    29.171     8.857
    39   6 C        2.919    -0.031    28.765     8.795
    40   6 C        2.919    -0.039    28.959     8.825
    41   6 C        2.919    -0.030    28.743     8.792
    42   6 C        2.923    -0.047    29.177     8.858
    43   6 C        2.925     0.065    26.545     8.449
    44   6 C        2.922    -0.046    29.149     8.854
    45   6 C        2.919    -0.030    28.742     8.792
    46   6 C        2.919    -0.037    28.931     8.820
    47   6 C        2.919    -0.030    28.738     8.791
    48   6 C        2.922    -0.046    29.138     8.852
    49   6 C        2.921    -0.050    29.251     8.869
    50   6 C        2.924    -0.031    28.772     8.796
    51   6 C        2.975     0.011    27.765     8.643
    52   6 C        2.978     0.002    27.971     8.675
    53   6 C        2.924    -0.031    28.772     8.796
    54   6 C        2.921    -0.050    29.252     8.869
    55   6 C        2.921     0.066    26.516     8.444
    56   7 N        2.751    -0.075    22.698     7.076
    57   6 C        2.924     0.065    26.554     8.451
    58   6 C        2.923    -0.047    29.176     8.858
    59   6 C        2.919    -0.030    28.742     8.792
    60   6 C        2.919    -0.039    28.958     8.825
    61   6 C        2.919    -0.031    28.764     8.795
    62   6 C        2.922    -0.047    29.169     8.857
    63   6 C        2.925     0.065    26.545     8.449
    64   6 C        2.922    -0.046    29.139     8.852
    65   6 C        2.919    -0.030    28.738     8.791
    66   6 C        2.919    -0.037    28.931     8.820
    67   6 C        2.919    -0.030    28.742     8.792
    68   6 C        2.922    -0.046    29.150     8.854
    69   6 C        2.921    -0.050    29.245     8.868
    70   6 C        2.923    -0.034    28.839     8.807
    71   6 C        2.923    -0.054    29.345     8.884
    72   6 C        2.964     0.081    26.183     8.393
    73   7 N        1.848    -0.268    27.807     7.815
    74   6 C        2.960     0.083    26.137     8.386
    75   6 C        2.923    -0.029    28.721     8.789
    76   6 C        2.924    -0.018    28.466     8.749
    77   1 H        0.926     0.045     2.386     2.416
    78   1 H        0.926     0.051     2.304     2.374
    79   1 H        0.926     0.046     2.368     2.406
    80   1 H        0.926     0.057     2.235     2.338
    81   1 H        0.926     0.049     2.330     2.387
    82   1 H        0.926     0.049     2.330     2.387
    83   1 H        0.926     0.051     2.304     2.374
    84   1 H        0.926     0.045     2.386     2.416
    85   1 H        0.926     0.045     2.387     2.416
    86   1 H        0.926     0.051     2.311     2.377
    87   1 H        0.926     0.046     2.368     2.406
    88   1 H        0.926     0.057     2.235     2.338
    89   1 H        0.926     0.049     2.335     2.390
    90   1 H        0.926     0.034     2.524     2.484
    91   1 H        0.926     0.036     2.508     2.477
    92   1 H        0.926     0.034     2.533     2.489
    93   1 H        0.926     0.037     2.487     2.466
    94   1 H        0.926     0.033     2.550     2.497
    95   1 H        0.926     0.033     2.537     2.491
    96   1 H        0.926     0.031     2.571     2.508
    97   1 H        0.926     0.033     2.539     2.492
    98   1 H        0.926     0.035     2.516     2.480
    99   1 H        0.926     0.034     2.532     2.488
   100   1 H        0.926     0.035     2.512     2.479
   101   1 H        0.926     0.034     2.537     2.491
   102   1 H        0.926     0.035     2.518     2.481
   103   1 H        0.926     0.032     2.557     2.500
   104   1 H        0.926     0.032     2.557     2.501
   105   1 H        0.926     0.035     2.518     2.481
   106   1 H        0.926     0.031     2.571     2.507
   107   1 H        0.926     0.034     2.537     2.491
   108   1 H        0.926     0.033     2.549     2.497
   109   1 H        0.926     0.037     2.486     2.466
   110   1 H        0.926     0.034     2.532     2.489
   111   1 H        0.926     0.033     2.537     2.491
   112   1 H        0.926     0.035     2.513     2.479
   113   1 H        0.926     0.034     2.533     2.489
   114   1 H        0.926     0.035     2.516     2.480
   115   1 H        0.926     0.033     2.539     2.492
   116   1 H        0.926     0.036     2.508     2.477
   117   1 H        0.926     0.034     2.524     2.484
   118   1 H        0.926     0.049     2.335     2.390
   119   1 H        0.926     0.051     2.311     2.377
   120   1 H        0.926     0.045     2.387     2.416

molecular dipole:
                 x           y           z       tot (Debye)
 q only:       -3.980      -0.004       0.003
   full:       -4.631      -0.004       0.004      11.770

 projected vibrational frequencies (cm⁻¹)
eigval :       -0.00    -0.00    -0.00    -0.00     0.00     0.00
eigval :        5.21    11.23    12.72    14.71    15.08    22.68
eigval :       25.22    28.54    34.45    35.12    40.67    45.80
eigval :       47.18    48.12    48.86    51.78    59.12    61.10
eigval :       61.67    69.83    72.23    72.72    80.04    83.48
eigval :       92.61    94.03   101.60   108.60   110.64   114.29
eigval :      118.70   124.99   142.29   148.05   148.27   164.83
eigval :      165.94   184.51   192.97   203.74   218.34   218.73
eigval :      223.20   228.08   235.83   236.89   246.92   263.78
eigval :      284.61   286.77   304.96   306.16   317.00   320.75
eigval :      332.19   337.05   347.27   349.61   361.76   362.73
eigval :      367.00   367.74   378.24   378.56   380.53   383.01
eigval :      386.34   388.49   392.08   392.31   400.50   403.06
eigval :      412.16   418.83   437.04   438.18   449.51   451.17
eigval :      462.86   479.08   479.89   481.09   488.53   492.33
eigval :      495.52   510.22   513.70   532.11   534.96   535.55
eigval :      542.13   542.22   547.17   549.74   571.57   581.25
eigval :      582.97   583.90   584.14   587.63   591.55   593.86
eigval :      594.05   604.77   605.71   611.19   615.65   616.94
eigval :      623.88   626.32   634.12   647.02   658.88   661.11
eigval :      661.74   663.81   671.31   674.82   679.02   685.37
eigval :      689.40   694.39   704.14   709.53   714.99   716.26
eigval :      734.45   744.86   749.27   754.62   754.86   762.35
eigval :      764.32   768.65   769.95   809.83   812.46   815.85
eigval :      818.63   820.25   840.16   841.36   849.40   855.27
eigval :      862.33   866.90   871.12   871.21   871.67   872.97
eigval :      873.16   877.75   877.81   879.16   879.55   887.93
eigval :      888.33   889.44   894.53   895.87   901.74   909.04
eigval :      909.07   917.04   919.02   919.05   919.58   920.19
eigval :      924.92   924.94   924.95   925.06   925.87   927.05
eigval :      928.22   929.00   929.56   930.27   930.80   931.56
eigval :      931.98   941.43   947.16   959.03   982.65   989.66
eigval :     1000.10  1004.07  1004.70  1009.06  1010.92  1031.44
eigval :     1041.88  1063.45  1076.01  1080.54  1080.98  1081.08
eigval :     1083.19  1085.62  1097.46  1118.99  1119.89  1120.69
eigval :     1124.17  1135.55  1136.08  1143.49  1144.68  1154.83
eigval :     1155.82  1175.68  1177.99  1178.10  1181.94  1183.92
eigval :     1185.57  1187.66  1187.84  1190.80  1194.35  1195.58
eigval :     1198.40  1201.62  1210.25  1211.35  1214.56  1226.76
eigval :     1229.82  1232.35  1237.17  1255.04  1262.23  1264.26
eigval :     1268.60  1270.05  1271.99  1273.05  1274.18  1275.57
eigval :     1276.40  1278.75  1281.61  1282.06  1304.49  1305.09
eigval :     1306.18  1309.08  1312.33  1313.42  1313.67  1314.77
eigval :     1318.99  1321.88  1322.77  1324.49  1324.68  1325.65
eigval :     1327.30  1337.24  1362.22  1378.33  1386.18  1392.31
eigval :     1401.82  1409.47  1409.90  1420.95  1429.98  1431.55
eigval :     1433.99  1434.82  1440.01  1440.84  1449.78  1465.71
eigval :     1466.59  1468.26  1469.26  1471.67  1472.69  1484.12
eigval :     1486.78  1489.90  1495.56  1498.14  1520.90  1541.85
eigval :     1543.66  1549.92  1551.62  1553.13  1555.79  1576.11
eigval :     1576.38  1576.49  1578.78  1580.21  1580.83  1582.21
eigval :     1588.86  1590.35  1590.58  1591.46  1594.19  1594.55
eigval :     1599.26  1601.99  2360.08  2360.34  3072.51  3072.62
eigval :     3072.86  3072.92  3073.18  3073.44  3074.57  3074.61
eigval :     3076.13  3076.83  3080.59  3080.83  3082.38  3082.49
eigval :     3082.59  3082.63  3083.16  3083.41  3083.84  3083.86
eigval :     3085.04  3085.38  3085.87  3086.85  3088.28  3088.33
eigval :     3088.35  3089.04  3089.29  3089.92  3093.21  3093.36
eigval :     3093.72  3093.92  3094.74  3094.87  3095.82  3096.60
eigval :     3096.70  3096.89  3104.32  3106.86  3107.08  3113.91

   temp. (K)  partition function   enthalpy   heat capacity  entropy
                                   cal/mol     cal/K/mol   cal/K/mol   J/K/mol
 298.15  VIB  0.168E+31            36755.676    225.453    233.196
         ROT  0.266E+09              888.752      2.981     41.531
         INT  0.448E+39            37644.428    228.434    274.727
         TR   0.292E+29             1481.254      4.968     46.467
         TOT                       39125.6823   233.4019   321.1941  1343.8761

       T/K    H(0)-H(T)+PV         H(T)/Eh          T*S/Eh         G(T)/Eh
   ------------------------------------------------------------------------
    298.15    0.623507E-01    0.970886E+00    0.152610E+00    0.818276E+00
   ------------------------------------------------------------------------

         :::::::::::::::::::::::::::::::::::::::::::::::::::::
         ::                  THERMODYNAMIC                  ::
         :::::::::::::::::::::::::::::::::::::::::::::::::::::
         :: total free energy        -189.115548222293 Eh   ::
         ::.................................................::
         :: total energy             -189.933824661601 Eh   ::
         :: zero point energy           0.908535373538 Eh   ::
         :: G(RRHO) w/o ZPVE           -0.090258934229 Eh   ::
         :: G(RRHO) contrib.            0.818276439308 Eh   ::
         :::::::::::::::::::::::::::::::::::::::::::::::::::::

           -------------------------------------------------
          | TOTAL ENERGY             -189.933824661601 Eh   |
          | TOTAL ENTHALPY           -188.962938544522 Eh   |
          | TOTAL FREE ENERGY        -189.115548222293 Eh   |
          | GRADIENT NORM               0.000120242679 Eh/α |
          | HOMO-LUMO GAP               1.195252825530 eV   |
           -------------------------------------------------

 * finished run on 2025/09/03 at 22:23:13.942
