   * xtb version 6.7.1 (edcfbbe) compiled by 'albert@albert-system' on 2024-07-22

   ID    Z sym.   atoms
    1    7 N      1, 21, 28, 36, 56, 73
    2    6 C      2-20, 22-27, 29-35, 37-55, 57-72, 74-76
    3    1 H      77-120

          program call               : xtb data2507/toluene/TNPZ/TNPZ_toluene_S0_crest.xyz --gfn 2 --gbsa toluene --ohess vtight --parallel 40 --molden --ceasefiles --namespace data2507/toluene/TNPZ/TNPZ_toluene_S0_finalOpt
      * Solvation model:               GBSA
        Solvent                        toluene
        Solvent mass                       9.2140E+01 g/mol
          :  Hamiltonian                  GFN2-xTB          :
 * total energy  :  -189.9332068 Eh     change       -0.5849444E-08 Eh
 * total energy  :  -189.9332690 Eh     change       -0.6220460E-04 Eh
 * total energy  :  -189.9333016 Eh     change       -0.3265350E-04 Eh
 * total energy  :  -189.9332914 Eh     change        0.1021446E-04 Eh
 * total energy  :  -189.9333489 Eh     change       -0.5751718E-04 Eh
 * total energy  :  -189.9333401 Eh     change        0.8817255E-05 Eh
 * total energy  :  -189.9333905 Eh     change       -0.5043749E-04 Eh
 * total energy  :  -189.9334226 Eh     change       -0.3204430E-04 Eh
 * total energy  :  -189.9334699 Eh     change       -0.4728574E-04 Eh
 * total energy  :  -189.9335121 Eh     change       -0.4223304E-04 Eh
 * total energy  :  -189.9347226 Eh     change       -0.7694134E-06 Eh
 * total energy  :  -189.9347233 Eh     change       -0.6556117E-06 Eh
 * total energy  :  -189.9347238 Eh     change       -0.5002760E-06 Eh
 * total energy  :  -189.9347243 Eh     change       -0.5530829E-06 Eh
 * total energy  :  -189.9347247 Eh     change       -0.4352985E-06 Eh
 * total energy  :  -189.9347251 Eh     change       -0.3531335E-06 Eh
 * total energy  :  -189.9347255 Eh     change       -0.3656391E-06 Eh
 * total energy  :  -189.9347256 Eh     change       -0.1816790E-06 Eh
 * total energy  :  -189.9347257 Eh     change       -0.9296230E-07 Eh
   *** GEOMETRY OPTIMIZATION CONVERGED AFTER 117 ITERATIONS ***

 final structure:
================
120
 xtb: 6.7.1 (edcfbbe)
N           12.77854515984378       -6.40845395375815       -0.31068026604071
C           11.79532574829971       -5.81533399271625       -0.29915326218053
C           10.58703703535027       -5.08638392325041       -0.28412466343944
C            9.50033646852815       -5.54891612072616        0.46184884633378
C            8.32162527692126       -4.83320270745424        0.47043228925911
C            8.19965995994530       -3.64542355933663       -0.25280878930935
C            6.94037055081282       -2.88776449216426       -0.23017168390619
C            5.71067579884713       -3.55258777289327       -0.29590273169982
C            4.54142377115774       -2.83399586103546       -0.26275931498024
C            4.55536701662263       -1.43925844762442       -0.15691155496506
C            5.78228455338168       -0.74849767991021       -0.09506536010183
C            6.95675463026059       -1.50432939309653       -0.13614680799189
C            5.79117441798253        0.70536981877517        0.01184911927090
C            6.97486886012198        1.44679291301722        0.05136271836310
C            6.97546524203669        2.83039168174392        0.14369433595418
C            8.24428038721161        3.57214597821312        0.16517242192025
C            9.32962482379964        3.10865606613696        0.91062501378569
C           10.52094000100961        3.80327387879754        0.93224253351751
C           10.64993037950526        4.98211710922127        0.19416648165383
C           11.86765963935220        5.69527233158995        0.20759388995807
N           12.85836054310455        6.27585581056608        0.21774711929272
C            9.57117871466457        5.45436387857297       -0.55725346577295
C            8.38320008380293        4.75408571015943       -0.56442664167868
C            5.75419175746949        3.51049320724494        0.20891961608176
C            4.57619365371135        2.80611677926750        0.17846815136631
C            4.57290630589999        1.41117736728095        0.07483937912893
C            3.31340055904899        0.70407052383480        0.02545994047750
N            2.18777637181706        1.39426364736045        0.09705159606913
C            1.03205747064187        0.71703370190757        0.03934607000535
C           -0.19433134934800        1.40569677160310        0.10142917350632
C           -1.38926994087396        0.73299995150975        0.03697054066264
C           -2.65079986893979        1.48777210259629        0.04119639655989
C           -3.63792466459468        1.23845849650717       -0.91198514795836
C           -4.81873888302275        1.94760697437674       -0.91032652482636
C           -5.06141875403526        2.92305159328462        0.05968579417076
N           -6.27272826956031        3.61441429143811        0.08244569822747
C           -6.30820571989031        4.96258753419063        0.46495853477076
C           -7.35737180748845        5.44934008253252        1.24412608616327
C           -7.38990368318922        6.78038634174015        1.61371989586511
C           -6.37873504130798        7.64304614671438        1.22200699081541
C           -5.33269355980830        7.16360092223802        0.45002105706818
C           -5.29579800953954        5.83612419259935        0.06844811039803
C           -7.46144145211506        2.95789471144335       -0.26521328928923
C           -8.45553941710425        3.62623940031239       -0.97939310651859
C           -9.62854839779994        2.97639157742622       -1.31350692816579
C           -9.82679869808675        1.65378320652835       -0.95107496101658
C           -8.84095765888529        0.98437596146119       -0.24385917269491
C           -7.66890422239313        1.62833529840432        0.10258554411870
C           -4.06726266112458        3.18836615139213        1.00362421105564
C           -2.87903962088944        2.48895232594363        0.98347293644941
C           -1.39658418803366       -0.69208545433668       -0.07086206940166
C           -2.66556717960711       -1.43819050656407       -0.05204441542877
C           -2.95015460152358       -2.38347179151899       -1.03486970462663
C           -4.14169033009398       -3.07807064342807       -1.02507798571338
C           -5.07864457085170       -2.86124495437308       -0.01352158322443
N           -6.29100127743746       -3.55562598529155       -0.00938586825475
C           -6.95181801314439       -3.80256597422368       -1.22077904707097
C           -7.60436812077442       -5.01554948284321       -1.43886566839661
C           -8.25886819074412       -5.24805310355602       -2.63350702815637
C           -8.26744648949181       -4.28385614910871       -3.62875680501450
C           -7.61707434820392       -3.07850877376654       -3.41818712817559
C           -6.96608210906121       -2.83389124920639       -2.22431228607932
C           -6.84729895020068       -3.99699546977474        1.19709862920241
C           -8.22917529346908       -3.98356979206901        1.38767391700105
C           -8.77278887590585       -4.42495570924842        2.57880433015986
C           -7.95304378121065       -4.87885236284878        3.59957812975316
C           -6.57960052074860       -4.89277763018571        3.41647338411977
C           -6.02709498978573       -4.46075583291858        2.22608967833805
C           -4.78154233041139       -1.93780306382590        0.99042119117817
C           -3.59678917716284       -1.23393676479820        0.96468264678361
C           -0.21153982529997       -1.37827428833017       -0.15255305963599
C            1.02372403876846       -0.70369797076140       -0.10182102320158
N            2.17064386155723       -1.39407788930974       -0.16787079575181
C            3.30482657070497       -0.71707787577796       -0.10259708287558
C            9.29289927086509       -3.19185948611218       -0.99288686581076
C           10.47522349589740       -3.90161247677819       -1.01548407166630
H            9.59299541291256       -6.46385305813877        1.02861172254116
H            7.48935646235590       -5.18552461565511        1.06094013529462
H            5.68485968116057       -4.62732110138619       -0.39361043011688
H            3.58174896651992       -3.32429232625225       -0.31489331048706
H            7.91476650599965       -1.01584349510648       -0.06598604014525
H            7.92687613586680        0.94666200856430       -0.01869087953855
H            9.22947139209530        2.20744836643674        1.49673637477460
H           11.35635965028729        3.44579762886292        1.51649638417354
H            9.67712122629690        6.36463112590411       -1.12918201758054
H            7.55683232820297        5.11371294338374       -1.15877594291312
H            5.74169881338703        4.58567802907514        0.30443749557242
H            3.62263152988979        3.30808446732910        0.23126166162389
H           -0.16778111286661        2.48279420857781        0.17269157868204
H           -3.46452450823310        0.49821540309922       -1.67852782766105
H           -5.56650079453669        1.75310680098782       -1.66492859690004
H           -8.14304379697330        4.77720423692498        1.55741045601184
H           -8.20702905326774        7.14435673500065        2.21951383691101
H           -6.40613613655730        8.68161040327957        1.51573983513471
H           -4.54290321504441        7.82993177816604        0.13465735559882
H           -4.48447723072336        5.46662067137536       -0.54188213881787
H           -8.30082176279298        4.65502586608474       -1.27072721678409
H          -10.38974581462620        3.50539532998144       -1.86839798307934
H          -10.74290970050246        1.14833078307704       -1.21728404798657
H           -8.98933277551877       -0.04426664011183        0.05057152316999
H           -6.90674289851486        1.10811225053010        0.66370142025267
H           -4.23811638692139        3.94097131486078        1.75932332321603
H           -2.12770055658628        2.69435701325416        1.73239323514754
H           -2.23461753529184       -2.56001367722366       -1.82520942294118
H           -4.35535716510746       -3.79808404589033       -1.80151695217925
H           -7.59222037688125       -5.77189002588653       -0.66745383499778
H           -8.75839434045523       -6.19295691948488       -2.79112630993777
H           -8.77752212031132       -4.47055253815805       -4.56188053921591
H           -7.62399604361785       -2.31821256084495       -4.18576084243431
H           -6.46735577116893       -1.89001343960843       -2.05828470407587
H           -8.87172456598501       -3.62612153462866        0.59622647711091
H           -9.84470079353905       -4.40688466167740        2.71332576584939
H           -8.38115744555200       -5.22060819830774        4.52996411174870
H           -5.93248405647842       -5.25180091008591        4.20371663473851
H           -4.95637635535545       -4.48276385731425        2.08332310315174
H           -5.49293902690015       -1.77052323105069        1.78578919045722
H           -3.38349528715248       -0.51989775281758        1.74647589099233
H           -0.19937528764136       -2.45546374643348       -0.22767525435469
H            9.20589709634028       -2.28629800150650       -1.57433708492235
H           11.31685584571641       -3.55151256023161       -1.59531225239801

          :  Hamiltonian                  GFN2-xTB          :
         :: gradient norm              0.000050606402 Eh/a0 ::
         :: HOMO-LUMO gap              1.189701564539 eV    ::
         :: SCC energy              -193.581830506663 Eh    ::
         :: -> dispersion             -0.174211734563 Eh    ::
         :: -> Gsolv                  -0.088916381245 Eh    ::
         :: repulsion energy           3.647104762806 Eh    ::

    * Orbital Energies and Occupations

         #    Occupation            Energy/Eh            Energy/eV
      -------------------------------------------------------------
         1        2.0000           -0.6779503             -18.4480
       ...           ...                  ...                  ...
       165        2.0000           -0.4088806             -11.1262
       166        2.0000           -0.4082369             -11.1087
       167        2.0000           -0.4068523             -11.0710
       168        2.0000           -0.4067334             -11.0678
       169        2.0000           -0.4060793             -11.0500
       170        2.0000           -0.4057387             -11.0407
       171        2.0000           -0.4026598             -10.9569
       172        2.0000           -0.4019420             -10.9374
       173        2.0000           -0.3917551             -10.6602
       174        2.0000           -0.3896672             -10.6034
       175        2.0000           -0.3553030              -9.6683
       176        2.0000           -0.3524840              -9.5916
       177        2.0000           -0.3508790              -9.5479 (HOMO)
       178                         -0.3071583              -8.3582 (LUMO)
       179                         -0.2885408              -7.8516
       180                         -0.2790285              -7.5928
       181                         -0.2643887              -7.1944
       182                         -0.2604476              -7.0871
       183                         -0.2441370              -6.6433
       184                         -0.2441051              -6.6424
       185                         -0.2440299              -6.6404
       186                         -0.2382259              -6.4825
       187                         -0.2321271              -6.3165
       188                         -0.2317471              -6.3062
       ...                                ...                  ...
       348                          1.1576872              31.5023
      -------------------------------------------------------------
                  HL-Gap            0.0437207 Eh            1.1897 eV

     #   Z          covCN         q      C6AA      α(0)
     1   7 N        0.911    -0.274    27.083     7.527
     2   6 C        1.912     0.118    28.188     8.574
     3   6 C        2.973     0.015    27.670     8.628
     4   6 C        2.924    -0.018    28.460     8.749
     5   6 C        2.923    -0.028    28.706     8.786
     6   6 C        2.977     0.023    27.487     8.600
     7   6 C        2.975     0.014    27.702     8.633
     8   6 C        2.921    -0.032    28.802     8.801
     9   6 C        2.921    -0.028    28.700     8.785
    10   6 C        2.988    -0.007    28.175     8.707
    11   6 C        2.974     0.005    27.906     8.665
    12   6 C        2.928    -0.039    28.963     8.826
    13   6 C        2.974     0.005    27.905     8.665
    14   6 C        2.928    -0.039    28.963     8.826
    15   6 C        2.975     0.014    27.701     8.633
    16   6 C        2.977     0.023    27.487     8.600
    17   6 C        2.923    -0.029    28.721     8.789
    18   6 C        2.924    -0.018    28.465     8.749
    19   6 C        2.973     0.015    27.670     8.628
    20   6 C        1.912     0.118    28.188     8.574
    21   7 N        0.911    -0.274    27.082     7.527
    22   6 C        2.924    -0.018    28.459     8.748
    23   6 C        2.923    -0.028    28.705     8.786
    24   6 C        2.921    -0.032    28.802     8.801
    25   6 C        2.921    -0.028    28.699     8.785
    26   6 C        2.988    -0.007    28.176     8.707
    27   6 C        2.960     0.084    26.132     8.385
    28   7 N        1.848    -0.267    27.782     7.812
    29   6 C        2.963     0.081    26.184     8.393
    30   6 C        2.923    -0.054    29.337     8.882
    31   6 C        2.975     0.011    27.763     8.643
    32   6 C        2.977     0.003    27.951     8.672
    33   6 C        2.923    -0.031    28.764     8.795
    34   6 C        2.921    -0.048    29.200     8.861
    35   6 C        2.923     0.066    26.515     8.444
    36   7 N        2.752    -0.075    22.704     7.077
    37   6 C        2.924     0.065    26.547     8.449
    38   6 C        2.922    -0.047    29.170     8.857
    39   6 C        2.919    -0.030    28.743     8.792
    40   6 C        2.919    -0.038    28.954     8.824
    41   6 C        2.919    -0.030    28.745     8.792
    42   6 C        2.922    -0.047    29.178     8.858
    43   6 C        2.924     0.065    26.548     8.450
    44   6 C        2.922    -0.047    29.177     8.858
    45   6 C        2.919    -0.030    28.744     8.792
    46   6 C        2.919    -0.038    28.953     8.824
    47   6 C        2.919    -0.029    28.725     8.789
    48   6 C        2.922    -0.047    29.170     8.857
    49   6 C        2.920    -0.049    29.210     8.863
    50   6 C        2.923    -0.033    28.834     8.806
    51   6 C        2.975     0.011    27.761     8.643
    52   6 C        2.978     0.004    27.918     8.667
    53   6 C        2.923    -0.033    28.831     8.805
    54   6 C        2.921    -0.048    29.183     8.859
    55   6 C        2.924     0.066    26.513     8.444
    56   7 N        2.752    -0.077    22.730     7.081
    57   6 C        2.924     0.065    26.541     8.449
    58   6 C        2.922    -0.047    29.174     8.857
    59   6 C        2.919    -0.030    28.746     8.792
    60   6 C        2.919    -0.038    28.956     8.824
    61   6 C        2.919    -0.030    28.740     8.791
    62   6 C        2.922    -0.047    29.168     8.857
    63   6 C        2.923     0.065    26.543     8.449
    64   6 C        2.922    -0.048    29.191     8.860
    65   6 C        2.919    -0.030    28.750     8.793
    66   6 C        2.919    -0.039    28.975     8.827
    67   6 C        2.919    -0.030    28.749     8.793
    68   6 C        2.922    -0.048    29.203     8.862
    69   6 C        2.921    -0.047    29.176     8.858
    70   6 C        2.923    -0.030    28.760     8.795
    71   6 C        2.923    -0.053    29.325     8.880
    72   6 C        2.964     0.081    26.181     8.393
    73   7 N        1.848    -0.267    27.778     7.811
    74   6 C        2.961     0.084    26.136     8.385
    75   6 C        2.923    -0.029    28.721     8.789
    76   6 C        2.924    -0.018    28.465     8.749
    77   1 H        0.926     0.045     2.386     2.415
    78   1 H        0.926     0.051     2.302     2.373
    79   1 H        0.926     0.046     2.365     2.405
    80   1 H        0.926     0.057     2.232     2.336
    81   1 H        0.926     0.049     2.326     2.385
    82   1 H        0.926     0.049     2.327     2.385
    83   1 H        0.926     0.051     2.310     2.377
    84   1 H        0.926     0.045     2.387     2.416
    85   1 H        0.926     0.045     2.385     2.415
    86   1 H        0.926     0.051     2.302     2.373
    87   1 H        0.926     0.046     2.365     2.405
    88   1 H        0.926     0.057     2.231     2.336
    89   1 H        0.926     0.050     2.319     2.381
    90   1 H        0.926     0.033     2.539     2.492
    91   1 H        0.926     0.035     2.519     2.482
    92   1 H        0.926     0.033     2.550     2.497
    93   1 H        0.926     0.034     2.526     2.485
    94   1 H        0.926     0.033     2.545     2.495
    95   1 H        0.926     0.034     2.525     2.485
    96   1 H        0.926     0.033     2.551     2.497
    97   1 H        0.926     0.032     2.553     2.498
    98   1 H        0.926     0.034     2.527     2.486
    99   1 H        0.926     0.033     2.548     2.496
   100   1 H        0.926     0.033     2.540     2.492
   101   1 H        0.926     0.032     2.565     2.504
   102   1 H        0.926     0.036     2.497     2.471
   103   1 H        0.926     0.036     2.498     2.471
   104   1 H        0.926     0.036     2.502     2.474
   105   1 H        0.926     0.036     2.497     2.471
   106   1 H        0.926     0.032     2.552     2.498
   107   1 H        0.926     0.034     2.531     2.488
   108   1 H        0.926     0.033     2.551     2.498
   109   1 H        0.926     0.034     2.533     2.489
   110   1 H        0.926     0.032     2.561     2.503
   111   1 H        0.926     0.032     2.563     2.503
   112   1 H        0.926     0.034     2.536     2.490
   113   1 H        0.926     0.032     2.562     2.503
   114   1 H        0.926     0.033     2.544     2.494
   115   1 H        0.926     0.031     2.571     2.507
   116   1 H        0.926     0.035     2.515     2.480
   117   1 H        0.926     0.033     2.544     2.494
   118   1 H        0.926     0.050     2.324     2.384
   119   1 H        0.926     0.051     2.309     2.376
   120   1 H        0.926     0.045     2.387     2.416

molecular dipole:
                 x           y           z       tot (Debye)
 q only:       -3.710       0.101      -0.020
   full:       -4.382       0.097      -0.013      11.140

 projected vibrational frequencies (cm⁻¹)
eigval :       -0.00    -0.00    -0.00     0.00     0.00     0.00
eigval :       -7.23     2.39     5.38     9.26    12.91    13.84
eigval :       15.54    18.20    23.52    24.56    32.76    37.19
eigval :       40.88    43.15    49.60    50.58    53.02    57.97
eigval :       61.10    63.23    70.89    73.75    77.40    83.96
eigval :       90.85    96.36   103.33   105.43   108.90   114.07
eigval :      118.02   124.12   138.71   143.37   148.23   166.34
eigval :      170.26   184.21   192.88   203.20   211.01   215.91
eigval :      223.87   227.81   233.31   235.81   244.16   261.96
eigval :      284.06   286.81   304.25   306.14   316.64   323.63
eigval :      325.59   339.08   345.61   351.27   358.05   361.17
eigval :      362.07   363.18   377.07   377.83   378.89   381.19
eigval :      386.69   388.13   390.25   392.13   402.69   404.99
eigval :      410.35   419.74   437.02   438.29   449.24   454.45
eigval :      462.05   477.04   478.05   480.77   485.85   490.40
eigval :      493.02   507.98   513.85   531.29   534.44   535.15
eigval :      540.32   540.80   546.35   546.59   571.47   580.85
eigval :      581.76   583.93   584.59   588.11   591.38   593.54
eigval :      594.57   605.22   605.88   610.07   615.44   616.73
eigval :      623.88   627.28   635.51   647.69   657.92   659.18
eigval :      660.58   663.09   672.26   674.46   678.08   684.64
eigval :      690.72   691.39   704.26   710.93   714.76   716.08
eigval :      737.35   744.66   749.42   753.07   758.60   761.72
eigval :      763.21   769.20   770.69   808.68   811.04   813.50
eigval :      816.22   818.42   839.54   839.76   848.92   855.59
eigval :      861.38   865.66   868.65   869.32   869.80   871.98
eigval :      874.95   875.87   876.21   876.59   879.53   886.70
eigval :      888.26   892.09   894.25   895.26   901.68   909.21
eigval :      909.40   916.06   917.67   917.85   918.11   921.23
eigval :      924.00   924.71   924.95   925.23   927.52   927.70
eigval :      928.31   928.85   929.69   929.76   930.12   930.44
eigval :      931.34   935.52   947.09   959.17   982.05   989.41
eigval :      999.75  1003.95  1003.98  1008.51  1011.55  1030.44
eigval :     1041.37  1063.29  1073.36  1079.48  1081.29  1081.61
eigval :     1082.54  1082.62  1097.02  1119.92  1120.29  1122.34
eigval :     1122.41  1133.85  1135.22  1138.47  1144.30  1154.88
eigval :     1156.01  1177.47  1178.31  1178.99  1179.40  1183.27
eigval :     1184.89  1185.96  1187.19  1192.39  1193.19  1194.04
eigval :     1196.87  1198.77  1209.86  1211.38  1213.62  1225.65
eigval :     1229.30  1232.01  1236.85  1253.48  1261.28  1263.17
eigval :     1265.74  1268.39  1271.48  1272.38  1273.90  1276.22
eigval :     1276.86  1278.97  1280.33  1281.60  1304.65  1307.36
eigval :     1308.74  1310.03  1312.02  1314.16  1314.52  1315.16
eigval :     1318.18  1321.33  1322.70  1323.37  1324.62  1324.94
eigval :     1325.97  1337.20  1360.82  1378.01  1386.02  1392.03
eigval :     1401.63  1407.15  1408.96  1421.41  1430.15  1431.77
eigval :     1433.94  1434.94  1440.73  1440.95  1449.04  1465.33
eigval :     1466.37  1468.99  1469.77  1472.35  1472.57  1483.61
eigval :     1486.32  1489.72  1493.52  1498.03  1521.65  1542.08
eigval :     1543.39  1549.84  1552.20  1554.53  1556.01  1575.63
eigval :     1575.84  1576.11  1579.16  1579.62  1581.30  1582.45
eigval :     1588.74  1590.58  1591.21  1591.28  1594.33  1595.31
eigval :     1599.28  1601.52  2359.99  2360.28  3071.17  3071.85
eigval :     3072.12  3072.13  3072.58  3073.04  3073.21  3073.53
eigval :     3074.51  3075.20  3078.35  3081.69  3081.80  3082.13
eigval :     3082.20  3082.40  3083.27  3083.54  3083.64  3083.76
eigval :     3084.32  3084.64  3085.60  3086.19  3086.75  3088.09
eigval :     3088.35  3088.60  3088.85  3090.06  3090.73  3093.24
eigval :     3093.53  3093.61  3093.78  3094.18  3094.58  3095.74
eigval :     3096.76  3096.91  3104.23  3106.40  3107.41  3114.31

   temp. (K)  partition function   enthalpy   heat capacity  entropy
                                   cal/mol     cal/K/mol   cal/K/mol   J/K/mol
 298.15  VIB  0.503E+33            36974.503    224.397    238.013
         ROT  0.522E+09              888.752      2.981     42.871
         INT  0.263E+42            37863.255    227.378    280.884
         TR   0.292E+29             1481.254      4.968     46.467
         TOT                       39344.5093   232.3464   327.3507  1369.6353

       T/K    H(0)-H(T)+PV         H(T)/Eh          T*S/Eh         G(T)/Eh
   ------------------------------------------------------------------------
    298.15    0.626995E-01    0.970577E+00    0.155535E+00    0.815042E+00
   ------------------------------------------------------------------------

         :::::::::::::::::::::::::::::::::::::::::::::::::::::
         ::                  THERMODYNAMIC                  ::
         :::::::::::::::::::::::::::::::::::::::::::::::::::::
         :: total free energy        -189.119683322720 Eh   ::
         ::.................................................::
         :: total energy             -189.934725747240 Eh   ::
         :: zero point energy           0.907877835541 Eh   ::
         :: G(RRHO) w/o ZPVE           -0.092835411020 Eh   ::
         :: G(RRHO) contrib.            0.815042424521 Eh   ::
         :::::::::::::::::::::::::::::::::::::::::::::::::::::

           -------------------------------------------------
          | TOTAL ENERGY             -189.934725747240 Eh   |
          | TOTAL ENTHALPY           -188.964148445194 Eh   |
          | TOTAL FREE ENERGY        -189.119683322720 Eh   |
          | GRADIENT NORM               0.000050846655 Eh/α |
          | HOMO-LUMO GAP               1.189702118697 eV   |
           -------------------------------------------------

 * finished run on 2025/09/03 at 22:42:13.696
