   * xtb version 6.7.1 (edcfbbe) compiled by 'albert@albert-system' on 2024-07-22

   ID    Z sym.   atoms
    1    7 N      1, 21, 28, 36, 56, 73
    2    6 C      2-20, 22-27, 29-35, 37-55, 57-72, 74-76
    3    1 H      77-120

          program call               : xtb data2507/toluene/TNPZ/TNPZ_toluene_S0_finalOpt.xtbopt.xyz --gfn 2 --uhf 2 --gbsa toluene --ohess vtight --parallel 40 --molden --ceasefiles --namespace data2507/toluene/TNPZ/TNPZ_toluene_T1_preOpt
      * Solvation model:               GBSA
        Solvent                        toluene
        Solvent mass                       9.2140E+01 g/mol
          :  Hamiltonian                  GFN2-xTB          :
 * total energy  :  -189.8835766 Eh     change       -0.4033680E-07 Eh
 * total energy  :  -189.8857972 Eh     change       -0.2220585E-02 Eh
 * total energy  :  -189.8865511 Eh     change       -0.7539901E-03 Eh
 * total energy  :  -189.8866524 Eh     change       -0.1012337E-03 Eh
 * total energy  :  -189.8866995 Eh     change       -0.4716448E-04 Eh
 * total energy  :  -189.8866925 Eh     change        0.7034320E-05 Eh
 * total energy  :  -189.8867152 Eh     change       -0.2265889E-04 Eh
 * total energy  :  -189.8867220 Eh     change       -0.6872329E-05 Eh
 * total energy  :  -189.8867376 Eh     change       -0.1557530E-04 Eh
 * total energy  :  -189.8867519 Eh     change       -0.1432040E-04 Eh
 * total energy  :  -189.8868063 Eh     change       -0.1438916E-05 Eh
 * total energy  :  -189.8868082 Eh     change       -0.1860464E-05 Eh
 * total energy  :  -189.8868097 Eh     change       -0.1503830E-05 Eh
 * total energy  :  -189.8868110 Eh     change       -0.1307458E-05 Eh
 * total energy  :  -189.8868123 Eh     change       -0.1334014E-05 Eh
 * total energy  :  -189.8868132 Eh     change       -0.9157211E-06 Eh
 * total energy  :  -189.8868139 Eh     change       -0.6187606E-06 Eh
 * total energy  :  -189.8868143 Eh     change       -0.3891852E-06 Eh
 * total energy  :  -189.8868143 Eh     change       -0.6431122E-08 Eh
   *** GEOMETRY OPTIMIZATION CONVERGED AFTER 44 ITERATIONS ***

 final structure:
================
120
 xtb: 6.7.1 (edcfbbe)
N           12.75079396987051       -6.46957191375571       -0.44993684868645
C           11.77391468016524       -5.86524190819746       -0.42007809490307
C           10.57571172835616       -5.12420846074318       -0.38285461824144
C            9.46938683905065       -5.61351555615032        0.31767672046483
C            8.29937548037879       -4.88642852543385        0.34628842949599
C            8.19849879063513       -3.65761257638749       -0.31244218884473
C            6.94953426346915       -2.89109079992797       -0.27173621929017
C            5.70710807960517       -3.54657311538661       -0.33414153986793
C            4.54656444668612       -2.82469274926030       -0.28880097441660
C            4.56444705610019       -1.42388009288140       -0.17028131188801
C            5.80470935041382       -0.74376111664354       -0.10604256663550
C            6.97273036752684       -1.51054459117347       -0.16440821388315
C            5.81681905883740        0.69723177042281        0.02049503661418
C            6.99749347867420        1.44415391407501        0.08352088066772
C            6.99718536955776        2.82476591774139        0.19232188996016
C            8.25863247296573        3.57034465541136        0.23858811623560
C            9.36213900592221        3.07274161384930        0.93760669367273
C           10.54811048845552        3.77290063168860        0.98363869982225
C           10.65912260711070        4.99803175526597        0.31983042370451
C           11.86905433473765        5.71953809710639        0.36217716925120
N           12.85512870015956        6.30851444897550        0.39582201515541
C            9.56373458173156        5.50585940022280       -0.38469478371460
C            8.38222793974893        4.79786303382487       -0.41865140946218
C            5.76585514008363        3.50110844940573        0.25124827204173
C            4.59347982862382        2.79891052590870        0.20097309720474
C            4.58818399245412        1.39822271858992        0.08094923523772
C            3.33931350434064        0.70778596648003        0.01896815795195
N            2.19156450194336        1.36893330981006        0.08031143609135
C            1.01775228103507        0.73541735960387        0.02146000862760
C           -0.19801662802571        1.41027130709086        0.07837203372843
C           -1.41383449065022        0.73922379189108        0.01625203872064
C           -2.66314594496362        1.51074414775233        0.01431063919096
C           -3.66185853936326        1.25166703114742       -0.92603503654912
C           -4.84269012563877        1.95973245320402       -0.91952399269165
C           -5.06973618201818        2.95074509818879        0.03873979628473
N           -6.28604623753271        3.63647909261720        0.07236737563127
C           -6.31557283815115        4.99569257362023        0.40486353503821
C           -7.35083802701880        5.51205195770186        1.18527811273635
C           -7.37303316785308        6.85488848552774        1.50891347199977
C           -6.36712577254792        7.70043665537252        1.06787319514478
C           -5.33530721139923        7.19179985539802        0.29468491299460
C           -5.30670160166608        5.85170201169232       -0.03928837810702
C           -7.47481801571968        2.95557502554832       -0.21354643689536
C           -8.50895038855408        3.59126574049755       -0.90219491284588
C           -9.67906063866321        2.91117644082946       -1.18043524027429
C           -9.83612754485950        1.59168024812077       -0.78621519987995
C           -8.81130943912447        0.95521646160564       -0.10348755703805
C           -7.64078380193188        1.62833990525186        0.18648946861971
C           -4.06149735074818        3.23612703148409        0.96179071321483
C           -2.87607513846661        2.53216881625383        0.93984468307554
C           -1.42503137213982       -0.66481174622788       -0.08731463002222
C           -2.68509696714125       -1.42250503135012       -0.06133294871745
C           -2.95210219531892       -2.39996617132818       -1.01905053443264
C           -4.13933164612519       -3.10132476824563       -1.00438838020364
C           -5.09049953017591       -2.85927076479352       -0.01158001161149
N           -6.29959601472797       -3.56206689730170       -0.00342666241311
C           -6.94677597515420       -3.82990214091605       -1.21597588285435
C           -7.59033801825392       -5.05028833465391       -1.42423409953595
C           -8.22868388326628       -5.30248377180545       -2.62329496324508
C           -8.23131249051087       -4.35076985858560       -3.63107910818669
C           -7.59035129015883       -3.13834485930807       -3.42994087518705
C           -6.95359526478973       -2.87405070128882       -2.23290197569701
C           -6.85518296179368       -3.99301564098916        1.20447957932629
C           -8.23993371383099       -4.01349390817406        1.38125122224276
C           -8.78257275464378       -4.44130141624454        2.57733680481227
C           -7.96029328205958       -4.84925926976028        3.61591639962798
C           -6.58472761995908       -4.83001081564114        3.44643391756659
C           -6.03198136160217       -4.40986364630563        2.25230733746501
C           -4.81307334569667       -1.90561996266202        0.96973124293015
C           -3.63133696923303       -1.19761178619645        0.93919085953118
C           -0.22202450519684       -1.35563903604256       -0.16372862872454
C            1.00575147368349       -0.70111134394228       -0.11491417142346
N            2.16836127829566       -1.35393231692008       -0.17654382187255
C            3.32743607564867       -0.71246967594076       -0.11163068476469
C            9.31283046265438       -3.17862453648625       -1.00733854509870
C           10.48744989029685       -3.89794538196421       -1.04802692914376
H            9.54252111525889       -6.55942712700185        0.83461867898406
H            7.45513459814867       -5.26196422609838        0.90467372435047
H            5.67281743975237       -4.61991654461500       -0.44463451296260
H            3.58422549179590       -3.31123437839468       -0.34309191496190
H            7.93266733116767       -1.02524714067828       -0.09350169430629
H            7.94934626684797        0.94278180540582        0.01547251172283
H            9.27867550465259        2.13750574852815        1.47067682171399
H           11.39482992418739        3.38605562516128        1.53220876191473
H            9.65414147550199        6.45094665962286       -0.90041415826408
H            7.54651686697948        5.18750346040925       -0.98012842537674
H            5.74915326286495        4.57473877707687        0.36303504940238
H            3.63931564842122        3.30144976647633        0.25275753924291
H           -0.17492070327094        2.48777111887321        0.14330376114802
H           -3.49644109892856        0.49932284836338       -1.68229483756472
H           -5.60073479553789        1.75645007814841       -1.66145634689186
H           -8.12928999536917        4.85259245271009        1.53996401997155
H           -8.17725114361378        7.24233382478938        2.11703183076566
H           -6.38707252799526        8.74867966315548        1.32502168065900
H           -4.55050035622378        7.84483943584701       -0.05798481203687
H           -4.50805656368844        5.45891893645018       -0.65146962668569
H           -8.38493240642974        4.61560799281744       -1.22173089207051
H          -10.47055848278564        3.41341014397881       -1.71706354143077
H          -10.75061989856981        1.06325555848683       -1.00925026392480
H           -8.92766319162903       -0.07024454667509        0.21468688248417
H           -6.84870241275363        1.13600686788698        0.73055380386824
H           -4.22199321112421        4.00175052347944        1.70658691439059
H           -2.11484153923732        2.74786698243223        1.67546800895889
H           -2.22477724237489       -2.59662639312260       -1.79345440370696
H           -4.33735295441125       -3.84824387342421       -1.75925121388669
H           -7.57866512214336       -5.79769645475363       -0.64446772806719
H           -8.71959372377698       -6.25258179977840       -2.77500606553299
H           -8.72932310719814       -4.55303721844468       -4.56729268392175
H           -7.59323528714746       -2.38912620884516       -4.20798368218592
H           -6.46366827785775       -1.92485582587130       -2.07243820725671
H           -8.88394815332922       -3.68860341458195        0.57733751381552
H           -9.85551650095375       -4.44870470700880        2.70229984924673
H           -8.38802812258066       -5.18081557781848        4.54997667899474
H           -5.93629136934569       -5.15352976506310        4.24753405717073
H           -4.96005887292000       -4.40889073318921        2.11904680498692
H           -5.53687681506817       -1.71928444760394        1.74947021236787
H           -3.43015087520480       -0.46173401954643        1.70339576908474
H           -0.21824536970580       -2.43338537689016       -0.23000862466574
H            9.24654563607008       -2.24260050755169       -1.54142562811964
H           11.34272957994995       -3.52541212406813       -1.59327223088542

          :  Hamiltonian                  GFN2-xTB          :
         :: gradient norm              0.000110676934 Eh/a0 ::
         :: HOMO-LUMO gap              0.507745656856 eV    ::
         :: SCC energy              -193.534574433140 Eh    ::
         :: -> dispersion             -0.174193710830 Eh    ::
         :: -> Gsolv                  -0.090306044054 Eh    ::
         :: repulsion energy           3.647760170461 Eh    ::

    * Orbital Energies and Occupations

         #    Occupation            Energy/Eh            Energy/eV
      -------------------------------------------------------------
         1        2.0000           -0.6745534             -18.3555
       ...           ...                  ...                  ...
       166        2.0000           -0.4114073             -11.1950
       167        2.0000           -0.4112170             -11.1898
       168        2.0000           -0.4101904             -11.1618
       169        2.0000           -0.4101072             -11.1596
       170        2.0000           -0.4032679             -10.9735
       171        2.0000           -0.4010354             -10.9127
       172        2.0000           -0.3963709             -10.7858
       173        2.0000           -0.3843365             -10.4583
       174        2.0000           -0.3831943             -10.4272
       175        1.9562           -0.3579256              -9.7397
       176        1.7375           -0.3559770              -9.6866
       177        1.3063           -0.3542190              -9.6388
       178        0.9999           -0.3036137              -8.2617 (HOMO)
       179        0.0001           -0.2849538              -7.7540 (LUMO)
       180                         -0.2747833              -7.4772
       181                         -0.2606245              -7.0920
       182                         -0.2531018              -6.8873
       183                         -0.2439891              -6.6393
       184                         -0.2392576              -6.5105
       185                         -0.2392238              -6.5096
       186                         -0.2385938              -6.4925
       187                         -0.2374351              -6.4609
       188                         -0.2371124              -6.4522
       189                         -0.2350490              -6.3960
       ...                                ...                  ...
       348                          1.1601796              31.5701
      -------------------------------------------------------------
                  HL-Gap            0.0186599 Eh            0.5078 eV

     #   Z          covCN         q      C6AA      α(0)
     1   7 N        0.911    -0.282    27.279     7.554
     2   6 C        1.912     0.117    28.217     8.579
     3   6 C        2.973     0.011    27.766     8.643
     4   6 C        2.923    -0.020    28.501     8.755
     5   6 C        2.923    -0.030    28.757     8.794
     6   6 C        2.976     0.021    27.536     8.608
     7   6 C        2.974     0.006    27.876     8.660
     8   6 C        2.920    -0.037    28.927     8.820
     9   6 C        2.921    -0.030    28.759     8.794
    10   6 C        2.987    -0.011    28.283     8.724
    11   6 C        2.975    -0.001    28.059     8.689
    12   6 C        2.926    -0.039    28.971     8.827
    13   6 C        2.975    -0.001    28.058     8.689
    14   6 C        2.926    -0.039    28.971     8.827
    15   6 C        2.974     0.006    27.875     8.660
    16   6 C        2.976     0.021    27.536     8.607
    17   6 C        2.923    -0.031    28.770     8.796
    18   6 C        2.923    -0.020    28.503     8.755
    19   6 C        2.973     0.011    27.765     8.643
    20   6 C        1.912     0.117    28.217     8.579
    21   7 N        0.911    -0.282    27.277     7.554
    22   6 C        2.923    -0.020    28.500     8.755
    23   6 C        2.923    -0.030    28.756     8.794
    24   6 C        2.920    -0.037    28.927     8.820
    25   6 C        2.921    -0.030    28.758     8.794
    26   6 C        2.987    -0.011    28.283     8.724
    27   6 C        2.942     0.082    26.181     8.392
    28   7 N        1.849    -0.248    27.315     7.746
    29   6 C        2.940     0.085    26.108     8.380
    30   6 C        2.923    -0.066    29.648     8.929
    31   6 C        2.975    -0.000    28.034     8.685
    32   6 C        2.977     0.010    27.800     8.649
    33   6 C        2.923    -0.031    28.780     8.798
    34   6 C        2.920    -0.046    29.138     8.852
    35   6 C        2.925     0.063    26.584     8.455
    36   7 N        2.752    -0.058    22.366     7.024
    37   6 C        2.924     0.065    26.554     8.451
    38   6 C        2.922    -0.045    29.114     8.848
    39   6 C        2.919    -0.028    28.702     8.785
    40   6 C        2.919    -0.035    28.869     8.811
    41   6 C        2.919    -0.028    28.702     8.785
    42   6 C        2.922    -0.045    29.115     8.849
    43   6 C        2.924     0.064    26.556     8.451
    44   6 C        2.921    -0.045    29.119     8.849
    45   6 C        2.919    -0.028    28.701     8.785
    46   6 C        2.919    -0.035    28.871     8.811
    47   6 C        2.919    -0.028    28.689     8.783
    48   6 C        2.922    -0.045    29.118     8.849
    49   6 C        2.920    -0.046    29.134     8.851
    50   6 C        2.923    -0.033    28.834     8.806
    51   6 C        2.976    -0.000    28.029     8.684
    52   6 C        2.977     0.010    27.780     8.646
    53   6 C        2.923    -0.033    28.829     8.805
    54   6 C        2.920    -0.045    29.116     8.849
    55   6 C        2.925     0.063    26.581     8.455
    56   7 N        2.752    -0.060    22.394     7.028
    57   6 C        2.925     0.065    26.551     8.450
    58   6 C        2.921    -0.045    29.111     8.848
    59   6 C        2.919    -0.028    28.703     8.786
    60   6 C        2.919    -0.035    28.869     8.811
    61   6 C        2.919    -0.028    28.698     8.785
    62   6 C        2.922    -0.045    29.106     8.847
    63   6 C        2.923     0.065    26.549     8.450
    64   6 C        2.922    -0.046    29.140     8.852
    65   6 C        2.919    -0.028    28.708     8.786
    66   6 C        2.919    -0.036    28.888     8.814
    67   6 C        2.919    -0.028    28.704     8.786
    68   6 C        2.922    -0.046    29.139     8.852
    69   6 C        2.920    -0.045    29.125     8.850
    70   6 C        2.923    -0.031    28.775     8.797
    71   6 C        2.923    -0.066    29.641     8.928
    72   6 C        2.940     0.085    26.103     8.379
    73   7 N        1.849    -0.248    27.314     7.746
    74   6 C        2.942     0.081    26.186     8.393
    75   6 C        2.923    -0.031    28.771     8.796
    76   6 C        2.923    -0.020    28.503     8.755
    77   1 H        0.926     0.041     2.436     2.441
    78   1 H        0.926     0.048     2.350     2.397
    79   1 H        0.926     0.040     2.450     2.448
    80   1 H        0.926     0.046     2.377     2.411
    81   1 H        0.926     0.043     2.415     2.430
    82   1 H        0.926     0.043     2.415     2.430
    83   1 H        0.926     0.046     2.364     2.404
    84   1 H        0.926     0.041     2.441     2.443
    85   1 H        0.926     0.041     2.435     2.440
    86   1 H        0.926     0.048     2.349     2.397
    87   1 H        0.926     0.040     2.449     2.447
    88   1 H        0.926     0.046     2.375     2.410
    89   1 H        0.926     0.043     2.405     2.425
    90   1 H        0.926     0.036     2.501     2.473
    91   1 H        0.926     0.038     2.471     2.458
    92   1 H        0.926     0.038     2.480     2.463
    93   1 H        0.926     0.039     2.469     2.457
    94   1 H        0.926     0.037     2.493     2.469
    95   1 H        0.926     0.038     2.478     2.462
    96   1 H        0.926     0.036     2.496     2.471
    97   1 H        0.926     0.037     2.492     2.469
    98   1 H        0.926     0.038     2.472     2.459
    99   1 H        0.926     0.037     2.487     2.466
   100   1 H        0.926     0.038     2.476     2.461
   101   1 H        0.926     0.036     2.499     2.472
   102   1 H        0.926     0.039     2.461     2.453
   103   1 H        0.926     0.038     2.472     2.459
   104   1 H        0.926     0.038     2.477     2.461
   105   1 H        0.926     0.039     2.465     2.455
   106   1 H        0.926     0.037     2.489     2.467
   107   1 H        0.926     0.038     2.475     2.460
   108   1 H        0.926     0.037     2.494     2.470
   109   1 H        0.926     0.038     2.474     2.460
   110   1 H        0.926     0.037     2.494     2.469
   111   1 H        0.926     0.037     2.490     2.468
   112   1 H        0.926     0.038     2.476     2.461
   113   1 H        0.926     0.036     2.506     2.476
   114   1 H        0.926     0.037     2.495     2.470
   115   1 H        0.926     0.035     2.515     2.480
   116   1 H        0.926     0.039     2.469     2.457
   117   1 H        0.926     0.035     2.513     2.479
   118   1 H        0.926     0.043     2.413     2.429
   119   1 H        0.926     0.046     2.364     2.404
   120   1 H        0.926     0.041     2.441     2.443

molecular dipole:
                 x           y           z       tot (Debye)
 q only:       -8.632       0.120       0.001
   full:       -9.234       0.120       0.008      23.472

 projected vibrational frequencies (cm⁻¹)
eigval :       -0.00    -0.00    -0.00     0.00     0.00     0.00
eigval :        5.55     9.75    12.44    14.00    17.03    20.28
eigval :       23.92    24.96    30.95    33.69    37.60    41.20
eigval :       46.25    50.12    51.07    52.89    54.04    58.93
eigval :       61.91    64.68    73.23    74.42    78.80    83.75
eigval :       92.94    96.54   105.35   109.28   109.92   115.54
eigval :      116.79   125.62   138.45   145.04   152.76   168.88
eigval :      172.01   184.40   193.32   203.92   207.57   216.45
eigval :      221.81   225.08   232.04   234.79   247.90   261.54
eigval :      278.76   288.17   303.73   305.76   313.60   316.64
eigval :      323.51   337.16   341.62   348.25   358.08   361.97
eigval :      366.27   368.12   376.63   377.40   379.01   381.51
eigval :      386.71   387.94   388.65   390.32   398.49   402.77
eigval :      412.26   418.71   430.74   433.85   442.41   446.72
eigval :      469.95   474.48   474.76   479.10   484.23   491.78
eigval :      497.81   510.72   515.33   526.79   532.48   534.60
eigval :      536.85   538.31   543.53   544.67   563.83   579.21
eigval :      580.62   583.05   583.63   587.81   589.53   593.00
eigval :      593.65   603.65   604.68   609.71   613.88   614.90
eigval :      615.77   623.20   625.24   629.10   652.01   657.71
eigval :      659.77   660.07   661.01   670.97   673.74   679.60
eigval :      684.41   690.25   691.31   698.28   701.90   706.54
eigval :      712.48   727.20   736.15   740.45   756.22   756.71
eigval :      762.22   763.15   769.18   805.94   806.49   810.29
eigval :      811.03   813.13   818.79   829.33   834.34   834.88
eigval :      845.46   856.90   862.67   866.47   866.97   867.62
eigval :      871.24   873.82   874.99   876.13   877.06   888.37
eigval :      891.81   893.15   895.96   898.16   901.56   909.03
eigval :      909.27   914.83   915.07   917.69   918.02   919.40
eigval :      919.49   919.61   925.71   926.41   926.87   927.91
eigval :      928.41   928.93   929.39   929.86   931.72   931.91
eigval :      933.01   934.48   936.70   952.75   981.71   987.92
eigval :      994.65  1003.02  1003.14  1007.58  1012.37  1028.28
eigval :     1033.95  1061.08  1076.37  1078.79  1080.67  1081.00
eigval :     1082.14  1082.72  1094.11  1120.34  1120.60  1122.92
eigval :     1123.03  1135.66  1136.44  1138.63  1142.26  1156.31
eigval :     1156.36  1178.01  1178.47  1178.69  1179.05  1179.57
eigval :     1182.09  1185.72  1187.30  1191.69  1192.69  1193.13
eigval :     1194.80  1198.83  1211.16  1212.29  1212.98  1221.74
eigval :     1234.74  1236.15  1238.89  1245.95  1248.63  1262.23
eigval :     1265.66  1266.93  1268.40  1269.57  1271.69  1275.68
eigval :     1275.85  1277.39  1278.62  1280.49  1287.81  1290.96
eigval :     1302.98  1304.12  1304.98  1309.36  1311.38  1313.80
eigval :     1314.26  1315.27  1316.50  1321.95  1323.78  1324.20
eigval :     1324.42  1328.24  1341.49  1349.80  1379.87  1391.62
eigval :     1392.71  1399.66  1403.55  1409.05  1410.11  1419.97
eigval :     1421.24  1432.65  1432.83  1439.57  1439.63  1456.07
eigval :     1461.05  1463.93  1464.12  1465.17  1465.44  1468.78
eigval :     1478.03  1482.40  1483.60  1490.56  1501.65  1508.65
eigval :     1526.93  1531.70  1540.04  1540.83  1547.47  1549.11
eigval :     1563.53  1564.50  1571.25  1571.47  1574.83  1575.04
eigval :     1582.37  1585.32  1585.48  1585.89  1587.29  1590.82
eigval :     1593.55  1594.08  2347.58  2349.54  3075.18  3075.68
eigval :     3075.75  3075.95  3076.10  3076.28  3076.72  3077.26
eigval :     3077.27  3079.13  3079.40  3079.41  3080.32  3080.66
eigval :     3080.79  3081.29  3083.08  3083.64  3084.62  3085.33
eigval :     3085.40  3085.54  3086.45  3086.63  3087.34  3088.05
eigval :     3088.27  3089.03  3089.51  3090.60  3091.09  3091.42
eigval :     3092.45  3093.92  3094.14  3094.59  3095.23  3096.13
eigval :     3096.25  3096.64  3096.90  3098.05  3100.21  3109.88

   temp. (K)  partition function   enthalpy   heat capacity  entropy
                                   cal/mol     cal/K/mol   cal/K/mol   J/K/mol
 298.15  VIB  0.381E+31            36962.866    226.340    234.414
         ROT  0.524E+09              888.752      2.981     42.880
         INT  0.200E+40            37851.618    229.321    277.294
         TR   0.292E+29             1481.254      4.968     46.467
         TOT                       39332.8721   234.2887   323.7610  1354.6162

       T/K    H(0)-H(T)+PV         H(T)/Eh          T*S/Eh         G(T)/Eh
   ------------------------------------------------------------------------
    298.15    0.626809E-01    0.968289E+00    0.153829E+00    0.814459E+00
   ------------------------------------------------------------------------

         :::::::::::::::::::::::::::::::::::::::::::::::::::::
         ::                  THERMODYNAMIC                  ::
         :::::::::::::::::::::::::::::::::::::::::::::::::::::
         :: total free energy        -189.072354801646 Eh   ::
         ::.................................................::
         :: total energy             -189.886814264932 Eh   ::
         :: zero point energy           0.905607857477 Eh   ::
         :: G(RRHO) w/o ZPVE           -0.091148394191 Eh   ::
         :: G(RRHO) contrib.            0.814459463286 Eh   ::
         :::::::::::::::::::::::::::::::::::::::::::::::::::::

           -------------------------------------------------
          | TOTAL ENERGY             -189.886814264932 Eh   |
          | TOTAL ENTHALPY           -188.918525485886 Eh   |
          | TOTAL FREE ENERGY        -189.072354801646 Eh   |
          | GRADIENT NORM               0.000107200278 Eh/α |
          | HOMO-LUMO GAP               0.507760470090 eV   |
           -------------------------------------------------

 * finished run on 2025/09/03 at 22:42:33.905
