   * xtb version 6.7.1 (edcfbbe) compiled by 'albert@albert-system' on 2024-07-22

   ID    Z sym.   atoms
    1    6 C      1-40
    2    1 H      41-70

          program call               : xtb data2507/gas/DPVBi/DPVBi.xyz --gfn 2 --ohess vtight --parallel 40 --molden --ceasefiles --namespace data2507/gas/DPVBi/DPVBi_gas_S0_preOpt
          :  Hamiltonian                  GFN2-xTB          :
 * total energy  :  -100.8581920 Eh     change       -0.4107932E-09 Eh
 * total energy  :  -100.8669975 Eh     change       -0.8805510E-02 Eh
 * total energy  :  -100.8693086 Eh     change       -0.2311050E-02 Eh
 * total energy  :  -100.8705766 Eh     change       -0.1268081E-02 Eh
 * total energy  :  -100.8719798 Eh     change       -0.1403116E-02 Eh
 * total energy  :  -100.8731349 Eh     change       -0.1155133E-02 Eh
 * total energy  :  -100.8740961 Eh     change       -0.9611725E-03 Eh
 * total energy  :  -100.8749275 Eh     change       -0.8314252E-03 Eh
 * total energy  :  -100.8754921 Eh     change       -0.5645739E-03 Eh
 * total energy  :  -100.8758669 Eh     change       -0.3748163E-03 Eh
 * total energy  :  -100.8780695 Eh     change       -0.7975579E-06 Eh
 * total energy  :  -100.8780703 Eh     change       -0.7857218E-06 Eh
 * total energy  :  -100.8780710 Eh     change       -0.7766224E-06 Eh
 * total energy  :  -100.8780718 Eh     change       -0.7664173E-06 Eh
 * total energy  :  -100.8780726 Eh     change       -0.7586444E-06 Eh
 * total energy  :  -100.8780733 Eh     change       -0.7477826E-06 Eh
 * total energy  :  -100.8780741 Eh     change       -0.7428413E-06 Eh
 * total energy  :  -100.8780748 Eh     change       -0.7325264E-06 Eh
 * total energy  :  -100.8780748 Eh     change       -0.6876434E-08 Eh
   *** GEOMETRY OPTIMIZATION CONVERGED AFTER 152 ITERATIONS ***

 final structure:
================
70
 xtb: 6.7.1 (edcfbbe)
C           -4.87050295350397       -1.13638586210313       -0.51868537916227
C           -5.89171893300510       -0.33496700557251       -0.16871413107542
C           -5.69214800006246        1.00649037776664        0.40995454203233
C           -6.41226435664538        2.09540591249096       -0.07459899589808
C           -6.23724801297476        3.35219498593468        0.47474030867243
C           -5.35234957607366        3.53589175849979        1.52397430734491
C           -4.64435381867575        2.45486802038912        2.02354820790159
C           -4.81213685385062        1.19891805690380        1.47242130629048
C           -7.28526932009304       -0.78533251174783       -0.29153114987787
C           -7.69281583308036       -1.57985990252260       -1.36227262332954
C           -9.00640962909790       -1.99542488646634       -1.47113238394546
C           -9.93608849209251       -1.62775727341579       -0.51262473716648
C           -9.54356073060412       -0.83668154545495        0.55460979672531
C           -8.23230253996534       -0.41484414880264        0.66294501537714
C           -3.45828921526550       -0.78271104513088       -0.52865876190636
C           -3.01145151285123        0.47683096801262       -0.93184633749214
C           -1.66676034330272        0.77830508911015       -0.94209221237305
C           -0.71485116697297       -0.16368100996680       -0.55095119460146
C            0.71487634719011        0.16362652282499       -0.55103686275329
C            1.15936745127721        1.42891705902116       -0.16891916896128
C            2.50379574481656        1.73510276118686       -0.16869720331352
C            3.45832636739409        0.78261848574309       -0.52900316368586
C            4.87054593031139        1.13626435492650       -0.51907360824003
C            5.89173503086043        0.33491158458823       -0.16887071788450
C            7.28529620126451        0.78525339644729       -0.29164715102201
C            7.69294361861982        1.57961950315580       -1.36246970404296
C            9.00654487971395        1.99517916091898       -1.47126082672912
C            9.93613075892752        1.62767006030892       -0.51260204997690
C            9.54350345445843        0.83675302071254        0.55471334886884
C            8.23223897172906        0.41491829018250        0.66297945460781
C            5.69212226300930       -1.00643231190073        0.41005111929038
C            4.81211179558596       -1.19863536608321        1.47255857841935
C            4.64428640433863       -2.45448050608682        2.02391197378001
C            5.35223864648518       -3.53562002349555        1.52452663251145
C            6.23713854314290       -3.35214404909184        0.47525538858021
C            6.41219854747233       -2.09545938310753       -0.07430938011050
C            3.01145735795972       -0.47703675225743       -0.93180298964289
C            1.66676128529400       -0.77849222325843       -0.94191882252108
C           -1.15931512964249       -1.42885160353321       -0.16840270376521
C           -2.50373835606322       -1.73505946297311       -0.16805064287837
H           -5.09001787603497       -2.15666321152843       -0.80972307067039
H           -7.10302936838436        1.95179560637426       -0.89371405752764
H           -6.79554374677315        4.19104187855133        0.08479250089671
H           -5.21849771677111        4.51740427472466        1.95459996896506
H           -3.96057842977007        2.59115082659477        2.84886081023206
H           -4.26581021968608        0.35489066643549        1.86752001789851
H           -6.97773609037592       -1.85293943891500       -2.12472146062900
H           -9.30843029250653       -2.60510643160237       -2.31056700236093
H          -10.96239207633740       -1.95286349846298       -0.59914902617078
H          -10.26407175915815       -0.54635462164097        1.30553880681095
H           -7.92970888882351        0.19796346841742        1.50010249201845
H           -3.72807107813302        1.21515860092826       -1.25912107998732
H           -1.34393089970755        1.75140535057957       -1.28255466557007
H            0.44223695600987        2.17243128908896        0.14781185835251
H            2.82985380540171        2.72009149283288        0.13592007128101
H            5.09008822291667        2.15647824640020       -0.81031186849634
H            6.97793784440472        1.85258251923938       -2.12502939319312
H            9.30864361232379        2.60473898896209       -2.31075558120164
H           10.96244042898224        1.95277083008308       -0.59907387047765
H           10.26394318512214        0.54653951915837        1.30575471145009
H            7.92956806251767       -0.19776497041004        1.50020005003456
H            4.26581598789444       -0.35451695583523        1.86750576677602
H            3.96050809453326       -2.59059154874076        2.84925052908568
H            5.21834780200918       -4.51705179891054        1.95532420636285
H            6.79540126159189       -4.19108122212462        0.08545465481154
H            7.10296765012200       -1.95201874897765       -0.89345069646318
H            3.72805355436736       -1.21547843725301       -1.25886986391394
H            1.34390813402172       -1.75169463469164       -1.28206678537558
H           -0.44216539876215       -2.17224735628435        0.14856141217486
H           -2.82977458701442       -2.71995417914104        0.13689348687156

          :  Hamiltonian                  GFN2-xTB          :
         :: gradient norm              0.000067324794 Eh/a0 ::
         :: HOMO-LUMO gap              2.497979973253 eV    ::
         :: SCC energy              -102.879153642831 Eh    ::
         :: -> dispersion             -0.090227927785 Eh    ::
         :: repulsion energy           2.001078839653 Eh    ::

    * Orbital Energies and Occupations

         #    Occupation            Energy/Eh            Energy/eV
      -------------------------------------------------------------
         1        2.0000           -0.6465228             -17.5928
       ...           ...                  ...                  ...
        83        2.0000           -0.4089977             -11.1294
        84        2.0000           -0.4068085             -11.0698
        85        2.0000           -0.4048171             -11.0156
        86        2.0000           -0.4033064             -10.9745
        87        2.0000           -0.4032816             -10.9739
        88        2.0000           -0.4029437             -10.9647
        89        2.0000           -0.4014262             -10.9234
        90        2.0000           -0.4000827             -10.8868
        91        2.0000           -0.3975353             -10.8175
        92        2.0000           -0.3960619             -10.7774
        93        2.0000           -0.3932438             -10.7007
        94        2.0000           -0.3707979             -10.0899
        95        2.0000           -0.3597389              -9.7890 (HOMO)
        96                         -0.2679399              -7.2910 (LUMO)
        97                         -0.2555440              -6.9537
        98                         -0.2240382              -6.0964
        99                         -0.2237440              -6.0884
       100                         -0.2233395              -6.0774
       101                         -0.2231958              -6.0735
       102                         -0.2223565              -6.0506
       103                         -0.2202519              -5.9934
       104                         -0.2201373              -5.9902
       105                         -0.2158638              -5.8740
       106                         -0.2155632              -5.8658
       ...                                ...                  ...
       190                          0.7039687              19.1560
      -------------------------------------------------------------
                  HL-Gap            0.0917991 Eh            2.4980 eV

     #   Z          covCN         q      C6AA      α(0)
     1   6 C        2.910    -0.046    29.135     8.851
     2   6 C        2.960     0.000    28.023     8.683
     3   6 C        2.978     0.017    27.623     8.621
     4   6 C        2.925    -0.032    28.804     8.801
     5   6 C        2.918    -0.030    28.752     8.793
     6   6 C        2.920    -0.031    28.782     8.798
     7   6 C        2.919    -0.029    28.736     8.791
     8   6 C        2.924    -0.031    28.766     8.796
     9   6 C        2.979     0.012    27.752     8.641
    10   6 C        2.924    -0.035    28.869     8.811
    11   6 C        2.918    -0.030    28.739     8.791
    12   6 C        2.920    -0.031    28.772     8.796
    13   6 C        2.918    -0.030    28.738     8.791
    14   6 C        2.925    -0.032    28.786     8.799
    15   6 C        2.971     0.015    27.674     8.629
    16   6 C        2.922    -0.033    28.831     8.805
    17   6 C        2.923    -0.035    28.865     8.811
    18   6 C        2.976     0.008    27.845     8.656
    19   6 C        2.976     0.008    27.845     8.656
    20   6 C        2.923    -0.035    28.876     8.812
    21   6 C        2.925    -0.037    28.918     8.819
    22   6 C        2.971     0.015    27.674     8.629
    23   6 C        2.910    -0.046    29.135     8.851
    24   6 C        2.960     0.000    28.023     8.683
    25   6 C        2.979     0.012    27.752     8.641
    26   6 C        2.924    -0.035    28.869     8.811
    27   6 C        2.918    -0.030    28.739     8.791
    28   6 C        2.920    -0.031    28.772     8.796
    29   6 C        2.918    -0.030    28.738     8.791
    30   6 C        2.925    -0.032    28.786     8.799
    31   6 C        2.978     0.017    27.623     8.621
    32   6 C        2.924    -0.031    28.766     8.796
    33   6 C        2.919    -0.029    28.736     8.791
    34   6 C        2.920    -0.031    28.782     8.798
    35   6 C        2.918    -0.030    28.752     8.793
    36   6 C        2.925    -0.032    28.804     8.801
    37   6 C        2.922    -0.033    28.831     8.805
    38   6 C        2.923    -0.035    28.865     8.811
    39   6 C        2.923    -0.035    28.876     8.812
    40   6 C        2.925    -0.037    28.918     8.819
    41   1 H        0.925     0.035     2.513     2.479
    42   1 H        0.926     0.028     2.618     2.530
    43   1 H        0.926     0.029     2.606     2.524
    44   1 H        0.926     0.029     2.606     2.525
    45   1 H        0.926     0.029     2.603     2.523
    46   1 H        0.926     0.029     2.601     2.522
    47   1 H        0.926     0.031     2.570     2.507
    48   1 H        0.926     0.029     2.595     2.519
    49   1 H        0.926     0.029     2.598     2.521
    50   1 H        0.926     0.029     2.600     2.522
    51   1 H        0.926     0.029     2.595     2.519
    52   1 H        0.926     0.030     2.587     2.515
    53   1 H        0.926     0.030     2.584     2.514
    54   1 H        0.926     0.031     2.579     2.511
    55   1 H        0.925     0.028     2.613     2.528
    56   1 H        0.925     0.035     2.513     2.479
    57   1 H        0.926     0.031     2.570     2.507
    58   1 H        0.926     0.029     2.595     2.519
    59   1 H        0.926     0.029     2.598     2.521
    60   1 H        0.926     0.029     2.600     2.522
    61   1 H        0.926     0.029     2.595     2.519
    62   1 H        0.926     0.029     2.601     2.522
    63   1 H        0.926     0.029     2.603     2.523
    64   1 H        0.926     0.029     2.606     2.525
    65   1 H        0.926     0.029     2.606     2.524
    66   1 H        0.926     0.028     2.618     2.530
    67   1 H        0.926     0.030     2.587     2.515
    68   1 H        0.926     0.030     2.584     2.514
    69   1 H        0.926     0.031     2.579     2.511
    70   1 H        0.925     0.028     2.613     2.528

molecular dipole:
                 x           y           z       tot (Debye)
 q only:       -0.000      -0.000      -0.001
   full:       -0.000       0.000       0.025       0.064

 projected vibrational frequencies (cm⁻¹)
eigval :       -0.00    -0.00    -0.00    -0.00     0.00     0.00
eigval :       10.04    11.45    14.11    28.90    30.45    40.50
eigval :       47.10    47.30    57.76    58.92    63.56    67.32
eigval :       75.01    79.63    88.96   109.53   137.03   155.49
eigval :      166.55   201.78   206.45   209.54   235.68   238.90
eigval :      245.82   281.65   283.97   313.99   339.82   369.74
eigval :      371.25   372.83   373.08   375.66   377.56   386.01
eigval :      393.04   411.46   430.43   439.49   459.06   464.40
eigval :      512.27   520.83   544.44   547.12   559.31   581.55
eigval :      581.81   588.21   589.37   596.98   605.45   610.22
eigval :      616.98   618.68   633.35   669.77   670.78   670.87
eigval :      675.70   676.64   698.69   713.33   736.35   736.46
eigval :      758.79   761.77   769.22   770.18   800.47   824.75
eigval :      841.26   847.88   849.74   868.16   868.98   874.25
eigval :      877.15   877.46   878.60   879.15   901.03   901.11
eigval :      902.82   902.89   914.82   920.06   921.72   923.70
eigval :      927.51   930.03   930.04   930.14   930.22   931.84
eigval :      932.05   932.10   932.34   933.06   980.04   980.85
eigval :      990.69  1008.44  1009.69  1021.58  1082.01  1083.84
eigval :     1083.91  1085.97  1085.98  1121.82  1121.82  1123.32
eigval :     1123.33  1139.57  1150.54  1174.71  1174.80  1182.17
eigval :     1182.18  1182.47  1182.47  1195.88  1199.15  1199.20
eigval :     1201.54  1204.94  1206.51  1224.66  1225.92  1268.86
eigval :     1276.77  1279.25  1281.19  1282.89  1283.11  1284.43
eigval :     1285.41  1314.57  1315.67  1316.36  1317.20  1318.96
eigval :     1322.58  1323.67  1341.60  1342.22  1395.81  1413.65
eigval :     1430.63  1430.64  1432.01  1432.22  1467.14  1470.81
eigval :     1477.72  1477.75  1478.60  1507.24  1548.58  1561.16
eigval :     1578.56  1578.63  1580.72  1580.72  1583.02  1592.46
eigval :     1595.41  1596.92  1598.91  1602.84  1635.06  1635.13
eigval :     3042.67  3042.71  3066.33  3066.43  3069.34  3069.34
eigval :     3070.57  3070.57  3072.18  3072.18  3072.40  3072.41
eigval :     3076.44  3077.49  3079.13  3079.14  3080.45  3080.47
eigval :     3082.52  3082.71  3084.49  3084.50  3085.40  3085.53
eigval :     3091.51  3091.51  3091.97  3092.05  3093.03  3093.16

   temp. (K)  partition function   enthalpy   heat capacity  entropy
                                   cal/mol     cal/K/mol   cal/K/mol   J/K/mol
 298.15  VIB  0.106E+17            19288.169    119.911    122.575
         ROT  0.334E+08              888.752      2.981     37.408
         INT  0.354E+24            20176.921    122.892    159.983
         TR   0.112E+29             1481.254      4.968     44.558
         TOT                       21658.1754   127.8597   204.5416   855.8019

       T/K    H(0)-H(T)+PV         H(T)/Eh          T*S/Eh         G(T)/Eh
   ------------------------------------------------------------------------
    298.15    0.345145E-01    0.588240E+00    0.971843E-01    0.491056E+00
   ------------------------------------------------------------------------

         :::::::::::::::::::::::::::::::::::::::::::::::::::::
         ::                  THERMODYNAMIC                  ::
         :::::::::::::::::::::::::::::::::::::::::::::::::::::
         :: total free energy        -100.387019186797 Eh   ::
         ::.................................................::
         :: total energy             -100.878074803181 Eh   ::
         :: zero point energy           0.553725412183 Eh   ::
         :: G(RRHO) w/o ZPVE           -0.062669795799 Eh   ::
         :: G(RRHO) contrib.            0.491055616384 Eh   ::
         :::::::::::::::::::::::::::::::::::::::::::::::::::::

           -------------------------------------------------
          | TOTAL ENERGY             -100.878074803181 Eh   |
          | TOTAL ENTHALPY           -100.289834891605 Eh   |
          | TOTAL FREE ENERGY        -100.387019186797 Eh   |
          | GRADIENT NORM               0.000067324651 Eh/α |
          | HOMO-LUMO GAP               2.497979982842 eV   |
           -------------------------------------------------

 * finished run on 2025/09/10 at 19:22:43.301
