   * xtb version 6.7.1 (edcfbbe) compiled by 'albert@albert-system' on 2024-07-22

   ID    Z sym.   atoms
    1    6 C      1-40
    2    1 H      41-70

          program call               : xtb data2507/gas/DPVBi/DPVBi_gas_S0_crest.xyz --gfn 2 --ohess vtight --parallel 40 --molden --ceasefiles --namespace data2507/gas/DPVBi/DPVBi_gas_S0_finalOpt
          :  Hamiltonian                  GFN2-xTB          :
 * total energy  :  -100.8781314 Eh     change       -0.9628565E-09 Eh
 * total energy  :  -100.8781325 Eh     change       -0.1146239E-05 Eh
 * total energy  :  -100.8781339 Eh     change       -0.1388521E-05 Eh
 * total energy  :  -100.8781366 Eh     change       -0.2635065E-05 Eh
 * total energy  :  -100.8781379 Eh     change       -0.1373460E-05 Eh
 * total energy  :  -100.8781397 Eh     change       -0.1799127E-05 Eh
 * total energy  :  -100.8781426 Eh     change       -0.2841911E-05 Eh
 * total energy  :  -100.8781449 Eh     change       -0.2356221E-05 Eh
 * total energy  :  -100.8781460 Eh     change       -0.1066457E-05 Eh
 * total energy  :  -100.8781467 Eh     change       -0.6887639E-06 Eh
 * total energy  :  -100.8781491 Eh     change       -0.5203840E-06 Eh
 * total energy  :  -100.8781498 Eh     change       -0.6748522E-06 Eh
 * total energy  :  -100.8781507 Eh     change       -0.9082332E-06 Eh
 * total energy  :  -100.8781520 Eh     change       -0.1319606E-05 Eh
 * total energy  :  -100.8781536 Eh     change       -0.1548267E-05 Eh
 * total energy  :  -100.8781547 Eh     change       -0.1171371E-05 Eh
 * total energy  :  -100.8781555 Eh     change       -0.7414760E-06 Eh
 * total energy  :  -100.8781561 Eh     change       -0.6271349E-06 Eh
 * total energy  :  -100.8781561 Eh     change       -0.7649504E-08 Eh
   *** GEOMETRY OPTIMIZATION CONVERGED AFTER 22 ITERATIONS ***

 final structure:
================
70
 xtb: 6.7.1 (edcfbbe)
C           -4.86865484500553       -1.14923142795270       -0.39560503645967
C           -5.90795731888819       -0.34179295942042       -0.11925800179404
C           -5.74598340495674        1.04167378371186        0.36498884166631
C           -6.46114592298510        2.07959493091376       -0.22689945489946
C           -6.32470577851093        3.37638866200768        0.23310222282391
C           -5.48498369388915        3.65141401747684        1.29936634209669
C           -4.78297765594597        2.62203731526638        1.90532047483889
C           -4.91140203677658        1.32608533273398        1.44321070008172
C           -7.29189556904769       -0.82393263105094       -0.23097854365183
C           -7.66930543962971       -1.70558730214211       -1.24302357350239
C           -8.97453603776289       -2.14949357098831       -1.34011904352236
C           -9.92615338054712       -1.72360976135910       -0.42838262942596
C           -9.56386852794934       -0.84580553225565        0.58009773859825
C           -8.26106898962369       -0.39593334123777        0.67628380811816
C           -3.45944554474259       -0.78751153685054       -0.40631173282420
C           -3.00949332521544        0.46395448371081       -0.83166604298266
C           -1.66475601206903        0.76584775215779       -0.83686794227362
C           -0.71529976698990       -0.16979611146431       -0.42587685399774
C            0.71446343586326        0.15772987378497       -0.42590309566125
C            1.15884952269705        1.41730258826468       -0.02601909549842
C            2.50304981309846        1.72352480837758       -0.02559823035621
C            3.45764961071736        0.77933101276434       -0.40937612926072
C            4.86591009029547        1.14468583774029       -0.40241576239320
C            5.90884434404488        0.34167278448432       -0.12681876345554
C            7.28995194621746        0.83081950077824       -0.24351532261401
C            7.65954085069298        1.71076215880650       -1.25996849236042
C            8.96116420684938        2.16430201133447       -1.36054583413054
C            9.91695422994692        1.74980732051715       -0.44793293892439
C            9.56265927815019        0.87311212108831        0.56434811368072
C            8.26346914854979        0.41352641899265        0.66398289616437
C            5.75319187805164       -1.04102443528015        0.36131485482260
C            4.91773733537277       -1.32632502504890        1.43869335398779
C            4.79309873701682       -2.62173218905827        1.90327327267189
C            5.50004583059518       -3.64980238993928        1.30085925472647
C            6.34126170149216       -3.37377963705265        0.23603398658547
C            6.47381105148426       -2.07747018845987       -0.22652648014650
C            3.00921159002325       -0.47336860030136       -0.83265168915479
C            1.66482133023126       -0.77715679828840       -0.83645637826923
C           -1.16101182235800       -1.42866775560399       -0.02538673774673
C           -2.50573315741123       -1.73295466296167       -0.02338701063714
H           -5.07254556151663       -2.18974503706018       -0.61887136760984
H           -7.11699248247303        1.86398094734723       -1.05882445375434
H           -6.87802266791230        4.17485263034862       -0.23987977808223
H           -5.38158795320144        4.66418242079674        1.66035073642672
H           -4.13465686735540        2.83047113824762        2.74406017576229
H           -4.36875398252245        0.52237438521509        1.91928464106497
H           -6.93768702668335       -2.02547377679061       -1.97076117579839
H           -9.25293887151012       -2.82736912630490       -2.13419506322951
H          -10.94587795118230       -2.07093189578864       -0.50590239872025
H          -10.30136976581684       -0.50946927535204        1.29445199248988
H           -7.98242117235700        0.28463942303642        1.46817338546553
H           -3.72230252874080        1.19586574909297       -1.18024653829515
H           -1.33887585668160        1.73343640522574       -1.19020298683113
H            0.44140216782293        2.15493060067200        0.30374177211618
H            2.82952744892596        2.70343554093525        0.29459630808487
H            5.06605128344607        2.18533098403328       -0.62856482242527
H            6.92460022599088        2.02198090355926       -1.98811586852243
H            9.23331796010517        2.84103534957098       -2.15775897181391
H           10.93375315809758        2.10510141219181       -0.52775527126730
H           10.30362600468393        0.54550261796230        1.27916454636430
H            7.99093683037838       -0.26601762957288        1.45889219712682
H            4.37122028080686       -0.52367187827972        1.91209165731911
H            4.14369116310546       -2.83077345712679        2.74102490859776
H            5.39919158625806       -4.66226542023955        1.66343048672031
H            6.89859539879182       -4.17118152098802       -0.23400804921522
H            7.13068010145489       -1.86129126826620       -1.05749770198242
H            3.72291874747540       -1.20456399775067       -1.18098866122759
H            1.33994946763002       -1.74556736329671       -1.18849603354960
H           -0.44427707866627       -2.16719656142794        0.30394077157085
H           -2.83321782674660       -2.71220696409199        0.29777984718756

          :  Hamiltonian                  GFN2-xTB          :
         :: gradient norm              0.000059529224 Eh/a0 ::
         :: HOMO-LUMO gap              2.481602614999 eV    ::
         :: SCC energy              -102.878954498588 Eh    ::
         :: -> dispersion             -0.090080206944 Eh    ::
         :: repulsion energy           2.000798376345 Eh    ::

    * Orbital Energies and Occupations

         #    Occupation            Energy/Eh            Energy/eV
      -------------------------------------------------------------
         1        2.0000           -0.6465869             -17.5945
       ...           ...                  ...                  ...
        83        2.0000           -0.4089093             -11.1270
        84        2.0000           -0.4069428             -11.0735
        85        2.0000           -0.4049010             -11.0179
        86        2.0000           -0.4033759             -10.9764
        87        2.0000           -0.4032634             -10.9734
        88        2.0000           -0.4030184             -10.9667
        89        2.0000           -0.4014293             -10.9234
        90        2.0000           -0.4001908             -10.8897
        91        2.0000           -0.3976843             -10.8215
        92        2.0000           -0.3957456             -10.7688
        93        2.0000           -0.3938009             -10.7159
        94        2.0000           -0.3706683             -10.0864
        95        2.0000           -0.3595887              -9.7849 (HOMO)
        96                         -0.2683915              -7.3033 (LUMO)
        97                         -0.2559443              -6.9646
        98                         -0.2239151              -6.0930
        99                         -0.2238312              -6.0908
       100                         -0.2232918              -6.0761
       101                         -0.2232279              -6.0743
       102                         -0.2216494              -6.0314
       103                         -0.2202547              -5.9934
       104                         -0.2201545              -5.9907
       105                         -0.2158442              -5.8734
       106                         -0.2156928              -5.8693
       ...                                ...                  ...
       190                          0.7048763              19.1807
      -------------------------------------------------------------
                  HL-Gap            0.0911972 Eh            2.4816 eV

     #   Z          covCN         q      C6AA      α(0)
     1   6 C        2.909    -0.046    29.137     8.851
     2   6 C        2.959     0.000    28.022     8.683
     3   6 C        2.978     0.017    27.618     8.620
     4   6 C        2.925    -0.032    28.805     8.801
     5   6 C        2.918    -0.030    28.751     8.793
     6   6 C        2.920    -0.031    28.784     8.798
     7   6 C        2.919    -0.029    28.735     8.790
     8   6 C        2.924    -0.031    28.764     8.795
     9   6 C        2.980     0.012    27.752     8.641
    10   6 C        2.924    -0.035    28.869     8.811
    11   6 C        2.918    -0.030    28.739     8.791
    12   6 C        2.920    -0.031    28.772     8.796
    13   6 C        2.918    -0.030    28.738     8.791
    14   6 C        2.925    -0.032    28.787     8.799
    15   6 C        2.970     0.015    27.681     8.630
    16   6 C        2.922    -0.034    28.835     8.806
    17   6 C        2.923    -0.035    28.864     8.810
    18   6 C        2.976     0.008    27.842     8.655
    19   6 C        2.976     0.008    27.842     8.655
    20   6 C        2.922    -0.035    28.875     8.812
    21   6 C        2.925    -0.037    28.916     8.819
    22   6 C        2.970     0.015    27.681     8.630
    23   6 C        2.910    -0.046    29.138     8.851
    24   6 C        2.959     0.000    28.023     8.683
    25   6 C        2.980     0.012    27.752     8.641
    26   6 C        2.924    -0.035    28.869     8.811
    27   6 C        2.918    -0.030    28.739     8.791
    28   6 C        2.920    -0.031    28.772     8.796
    29   6 C        2.918    -0.030    28.738     8.791
    30   6 C        2.925    -0.032    28.787     8.799
    31   6 C        2.978     0.017    27.619     8.621
    32   6 C        2.924    -0.031    28.764     8.795
    33   6 C        2.919    -0.029    28.735     8.790
    34   6 C        2.920    -0.031    28.784     8.798
    35   6 C        2.918    -0.030    28.751     8.793
    36   6 C        2.925    -0.032    28.805     8.801
    37   6 C        2.922    -0.034    28.835     8.806
    38   6 C        2.923    -0.035    28.864     8.810
    39   6 C        2.922    -0.035    28.875     8.812
    40   6 C        2.925    -0.037    28.916     8.819
    41   1 H        0.925     0.035     2.516     2.480
    42   1 H        0.926     0.028     2.619     2.531
    43   1 H        0.926     0.029     2.606     2.524
    44   1 H        0.926     0.029     2.606     2.525
    45   1 H        0.926     0.029     2.603     2.523
    46   1 H        0.926     0.029     2.602     2.522
    47   1 H        0.926     0.031     2.569     2.506
    48   1 H        0.926     0.029     2.595     2.519
    49   1 H        0.926     0.029     2.598     2.521
    50   1 H        0.926     0.029     2.600     2.522
    51   1 H        0.926     0.029     2.596     2.520
    52   1 H        0.926     0.030     2.579     2.511
    53   1 H        0.926     0.030     2.587     2.515
    54   1 H        0.926     0.030     2.581     2.512
    55   1 H        0.925     0.028     2.612     2.527
    56   1 H        0.925     0.035     2.515     2.480
    57   1 H        0.926     0.031     2.569     2.506
    58   1 H        0.926     0.029     2.595     2.519
    59   1 H        0.926     0.029     2.598     2.521
    60   1 H        0.926     0.029     2.600     2.522
    61   1 H        0.926     0.029     2.596     2.520
    62   1 H        0.926     0.029     2.601     2.522
    63   1 H        0.926     0.029     2.603     2.523
    64   1 H        0.926     0.029     2.606     2.525
    65   1 H        0.926     0.029     2.606     2.524
    66   1 H        0.926     0.028     2.619     2.531
    67   1 H        0.926     0.030     2.580     2.512
    68   1 H        0.926     0.030     2.587     2.515
    69   1 H        0.926     0.030     2.581     2.512
    70   1 H        0.925     0.028     2.612     2.527

molecular dipole:
                 x           y           z       tot (Debye)
 q only:       -0.001       0.000      -0.000
   full:       -0.001       0.001       0.024       0.062

 projected vibrational frequencies (cm⁻¹)
eigval :       -0.00    -0.00     0.00     0.00     0.00     0.00
eigval :       10.03    11.28    14.19    28.80    30.74    39.42
eigval :       46.13    46.94    57.36    58.78    62.85    67.73
eigval :       74.24    79.92    89.68   109.46   136.54   157.21
eigval :      168.76   199.45   205.91   208.92   236.42   238.50
eigval :      245.45   280.76   283.75   310.94   338.17   369.64
eigval :      371.09   372.84   372.99   375.79   376.98   385.61
eigval :      393.27   411.82   431.34   440.67   459.09   465.93
eigval :      513.41   521.08   544.27   547.25   559.73   581.50
eigval :      581.77   588.23   589.35   596.84   605.19   610.86
eigval :      617.40   619.18   633.92   670.52   670.81   670.90
eigval :      675.76   676.52   698.99   713.49   736.33   736.76
eigval :      758.78   761.73   769.17   770.36   801.02   825.08
eigval :      841.77   851.54   852.80   868.38   868.93   874.14
eigval :      877.02   877.33   878.54   879.14   900.78   900.90
eigval :      902.73   902.82   915.11   919.88   921.85   923.58
eigval :      927.91   929.89   929.96   930.08   930.25   931.83
eigval :      932.00   932.07   932.35   933.27   979.99   980.87
eigval :      990.49  1008.31  1009.57  1021.30  1082.78  1083.72
eigval :     1083.87  1086.05  1086.07  1121.43  1121.46  1123.54
eigval :     1123.57  1140.18  1149.53  1174.88  1174.99  1182.13
eigval :     1182.15  1182.48  1182.50  1196.19  1198.93  1199.11
eigval :     1201.24  1205.06  1206.51  1225.71  1225.97  1268.79
eigval :     1276.53  1279.77  1280.86  1283.01  1283.07  1284.55
eigval :     1285.36  1314.32  1315.35  1316.13  1317.29  1319.34
eigval :     1322.73  1324.30  1343.81  1344.78  1396.27  1413.70
eigval :     1430.62  1430.63  1431.93  1432.14  1466.94  1470.75
eigval :     1477.52  1477.57  1478.58  1507.29  1548.57  1560.98
eigval :     1578.40  1578.50  1580.58  1580.59  1582.33  1591.76
eigval :     1595.30  1596.81  1598.94  1602.45  1635.00  1635.08
eigval :     3042.02  3042.26  3065.96  3066.04  3069.40  3069.41
eigval :     3070.56  3070.58  3072.19  3072.21  3072.39  3072.40
eigval :     3076.06  3077.22  3079.12  3079.14  3080.49  3080.54
eigval :     3081.93  3082.03  3084.56  3084.58  3085.16  3085.28
eigval :     3091.50  3091.50  3091.97  3092.07  3095.06  3095.39

   temp. (K)  partition function   enthalpy   heat capacity  entropy
                                   cal/mol     cal/K/mol   cal/K/mol   J/K/mol
 298.15  VIB  0.113E+17            19291.807    119.832    122.592
         ROT  0.339E+08              888.752      2.981     37.437
         INT  0.384E+24            20180.559    122.813    160.029
         TR   0.112E+29             1481.254      4.968     44.558
         TOT                       21661.8131   127.7807   204.5873   855.9933

       T/K    H(0)-H(T)+PV         H(T)/Eh          T*S/Eh         G(T)/Eh
   ------------------------------------------------------------------------
    298.15    0.345203E-01    0.588268E+00    0.972060E-01    0.491062E+00
   ------------------------------------------------------------------------

         :::::::::::::::::::::::::::::::::::::::::::::::::::::
         ::                  THERMODYNAMIC                  ::
         :::::::::::::::::::::::::::::::::::::::::::::::::::::
         :: total free energy        -100.387093897750 Eh   ::
         ::.................................................::
         :: total energy             -100.878156122231 Eh   ::
         :: zero point energy           0.553747956256 Eh   ::
         :: G(RRHO) w/o ZPVE           -0.062685731774 Eh   ::
         :: G(RRHO) contrib.            0.491062224481 Eh   ::
         :::::::::::::::::::::::::::::::::::::::::::::::::::::

           -------------------------------------------------
          | TOTAL ENERGY             -100.878156122231 Eh   |
          | TOTAL ENTHALPY           -100.289887869463 Eh   |
          | TOTAL FREE ENERGY        -100.387093897750 Eh   |
          | GRADIENT NORM               0.000059526998 Eh/α |
          | HOMO-LUMO GAP               2.481602601938 eV   |
           -------------------------------------------------

 * finished run on 2025/09/10 at 19:25:58.880
