   * xtb version 6.7.1 (edcfbbe) compiled by 'albert@albert-system' on 2024-07-22

   ID    Z sym.   atoms
    1    6 C      1-40
    2    1 H      41-70

          program call               : xtb data2507/gas/DPVBi/DPVBi_gas_S0_finalOpt.xtbopt.xyz --gfn 2 --spinpol --tblite --uhf 2 --ohess vtight --parallel 40 --molden --ceasefiles --namespace data2507/gas/DPVBi/DPVBi_gas_T1_preOpt
 * total energy  :  -100.7890022 Eh     change       -0.1259295E-07 Eh
 * total energy  :  -100.7977114 Eh     change       -0.8709197E-02 Eh
 * total energy  :  -100.8015550 Eh     change       -0.3843653E-02 Eh
 * total energy  :  -100.8028628 Eh     change       -0.1307769E-02 Eh
 * total energy  :  -100.8041506 Eh     change       -0.1287749E-02 Eh
 * total energy  :  -100.8049692 Eh     change       -0.8186710E-03 Eh
 * total energy  :  -100.8054611 Eh     change       -0.4918165E-03 Eh
 * total energy  :  -100.8058010 Eh     change       -0.3399615E-03 Eh
 * total energy  :  -100.8061078 Eh     change       -0.3068190E-03 Eh
 * total energy  :  -100.8063365 Eh     change       -0.2287037E-03 Eh
 * total energy  :  -100.8104512 Eh     change       -0.1252970E-05 Eh
 * total energy  :  -100.8104524 Eh     change       -0.1255978E-05 Eh
 * total energy  :  -100.8104538 Eh     change       -0.1322353E-05 Eh
 * total energy  :  -100.8104552 Eh     change       -0.1463165E-05 Eh
 * total energy  :  -100.8104568 Eh     change       -0.1574815E-05 Eh
 * total energy  :  -100.8104583 Eh     change       -0.1534790E-05 Eh
 * total energy  :  -100.8104598 Eh     change       -0.1503292E-05 Eh
 * total energy  :  -100.8104598 Eh     change        0.5323793E-07 Eh
 * total energy  :  -100.8104598 Eh     change       -0.6638655E-07 Eh
   *** GEOMETRY OPTIMIZATION CONVERGED AFTER 123 ITERATIONS ***

 final structure:
================
70
 xtb: 6.7.1 (edcfbbe)
C           -4.79099710413513       -0.95652618712453       -0.77696172751056
C           -5.84254980032058       -0.23294060541445       -0.34635849835123
C           -5.69970226033823        0.99204634817833        0.46126944622020
C           -6.39972041677379        2.14532432050081        0.11569254842951
C           -6.28019049784990        3.29278441230488        0.87788513682465
C           -5.47340142993442        3.29943008365177        2.00340389619003
C           -4.78802314928019        2.15084054322676        2.36518271261677
C           -4.89948920533333        1.00466593376227        1.60159987812839
C           -7.21915517360937       -0.67378988842432       -0.60611143398318
C           -7.56424601480464       -1.29918600776502       -1.80396565479466
C           -8.86276620241751       -1.71192058057020       -2.03465951030528
C           -9.84027030731076       -1.51091714002898       -1.07414250347270
C           -9.51067693083841       -0.88802028532402        0.11849536778293
C           -8.21481056085851       -0.46872531864925        0.34962917780365
C           -3.38658914760330       -0.61446289646875       -0.65524473865619
C           -2.91779264351937        0.70202170447849       -0.71720707533470
C           -1.57871316270993        0.98316739758734       -0.57895079983214
C           -0.63667179933961       -0.03506019674772       -0.38120245764773
C            0.77250278677165        0.26270229437610       -0.19481430523320
C            1.18653723171519        1.44967246019337        0.44173428995792
C            2.50610701547799        1.71508436636440        0.66203232783807
C            3.52652107512376        0.80217975265989        0.26358910208130
C            4.85329248499061        1.05816744306232        0.56671975676439
C            5.97353306967253        0.15998727045943        0.30870721425953
C            7.12985907142373        0.70850732567840       -0.33375164069453
C            7.00745580237995        1.84402675170506       -1.15896155850559
C            8.10973948542541        2.40697228178191       -1.76100436136196
C            9.37483357197614        1.87433064099890       -1.54992729427139
C            9.52120108807645        0.77279522699316       -0.71773725795697
C            8.42368971398069        0.19522604018129       -0.11874937588246
C            5.89104348094446       -1.20347387895016        0.73599825634672
C            5.03157515386525       -1.57575305981779        1.79014788048842
C            4.91709954047843       -2.88964310391404        2.18268245117796
C            5.63831909089451       -3.88397425363356        1.53494660153051
C            6.47341438416355       -3.54272828917351        0.47919412120555
C            6.60398091518193       -2.23012034206414        0.08441245109513
C            3.09910465891165       -0.36763525730550       -0.43108324426637
C            1.77413903606400       -0.62401096229969       -0.63399454268601
C           -1.10362273843734       -1.35529726020142       -0.36370611493457
C           -2.44294146657625       -1.63603401372054       -0.50481618135916
H           -4.98721748779077       -1.91575344943706       -1.24134287912805
H           -7.02950007175413        2.13930905497223       -0.76294486478068
H           -6.82082717459946        4.18425968585507        0.59441159187420
H           -5.38281412038488        4.19533392264778        2.59989610072008
H           -4.16603087930831        2.14818494342284        3.24853421702716
H           -4.37025669618737        0.10718067190475        1.88710781927029
H           -6.81235540543837       -1.44075684148666       -2.56670992910244
H           -9.11562754085893       -2.18912845396543       -2.97054400375655
H          -10.85448417353170       -1.83471238819090       -1.25567658591718
H          -10.26833499451562       -0.72810593903399        0.87195364968814
H           -7.96167801678712        0.01072373072413        1.28446986764826
H           -3.61529577238765        1.50610264535634       -0.89676889916646
H           -1.24594094675636        2.00762883314635       -0.65750600292852
H            0.43855777899905        2.14523395599999        0.79369981718330
H            2.79996568038360        2.62120980278778        1.17319814504639
H            5.09372549897063        2.00485200520445        1.03616957097906
H            6.02296477194411        2.25222281779643       -1.33870269928271
H            7.98976623292348        3.26883931454448       -2.40184898598447
H           10.23865128979218        2.31988929484148       -2.01995354636364
H           10.50596294454646        0.36874540817998       -0.53043853904596
H            8.55744091676735       -0.63152761622770        0.56296254488576
H            4.47732986880116       -0.80734879759434        2.30860437097586
H            4.26114328050928       -3.14835593401183        3.00152336685364
H            5.54365949256685       -4.91446589441717        1.84272225463345
H            7.01968772199318       -4.31449192732195       -0.04433531279703
H            7.21866769676252       -1.98521933602325       -0.76918386413115
H            3.84557237148350       -1.05092518875821       -0.80601078253682
H            1.48642249955818       -1.51308958669183       -1.17617205528726
H           -0.40675440713492       -2.16480939953835       -0.20380541285611
H           -2.78077204733097       -2.66274418207724       -0.47098228652799

 projected vibrational frequencies (cm⁻¹)
eigval :       -0.00    -0.00     0.00     0.00     0.00     0.00
eigval :        7.85    10.81    14.55    23.02    29.57    42.79
eigval :       46.20    52.63    53.74    63.94    65.94    69.43
eigval :       78.31    89.31    93.95   114.76   128.92   169.27
eigval :      171.54   195.14   207.49   213.45   239.77   244.10
eigval :      261.94   281.80   287.90   306.15   323.56   354.60
eigval :      367.12   368.52   371.09   373.41   383.69   387.16
eigval :      391.55   398.94   411.87   432.32   446.57   462.35
eigval :      482.42   512.63   528.46   536.46   554.84   559.78
eigval :      581.22   584.06   586.28   588.68   590.72   601.65
eigval :      613.07   618.01   627.06   656.46   661.00   666.52
eigval :      670.45   674.84   688.46   705.97   717.13   733.05
eigval :      736.86   749.93   759.36   760.64   769.62   798.16
eigval :      820.79   832.65   841.20   850.90   857.42   860.53
eigval :      867.54   869.36   876.61   878.43   884.19   897.31
eigval :      900.66   902.46   910.73   912.35   917.40   919.39
eigval :      922.72   922.91   924.58   925.02   928.64   929.83
eigval :      930.28   931.73   932.20   941.49   969.24   971.42
eigval :      980.69   990.67  1005.46  1011.12  1066.25  1079.62
eigval :     1079.78  1083.80  1086.18  1104.19  1120.52  1121.55
eigval :     1123.94  1131.93  1138.26  1153.58  1173.75  1179.44
eigval :     1179.81  1181.64  1181.91  1182.32  1189.93  1196.67
eigval :     1198.83  1203.18  1205.31  1217.77  1228.99  1270.92
eigval :     1273.95  1275.41  1280.02  1281.34  1284.04  1284.90
eigval :     1293.18  1304.74  1315.28  1316.17  1318.90  1323.58
eigval :     1324.81  1328.72  1335.56  1346.89  1405.37  1410.13
eigval :     1419.74  1429.40  1430.07  1431.47  1434.01  1436.60
eigval :     1451.91  1467.86  1476.05  1476.43  1483.00  1497.48
eigval :     1536.62  1539.10  1540.16  1543.62  1567.13  1577.09
eigval :     1578.71  1579.59  1582.53  1594.63  1598.70  1624.85
eigval :     3027.23  3041.17  3065.98  3066.12  3067.96  3069.43
eigval :     3069.54  3070.24  3070.65  3071.69  3072.30  3072.53
eigval :     3076.05  3078.59  3078.95  3079.27  3080.69  3084.02
eigval :     3084.22  3084.51  3085.13  3085.94  3086.25  3087.94
eigval :     3091.80  3091.93  3092.45  3093.81  3095.79  3096.80

   temp. (K)  partition function   enthalpy   heat capacity  entropy
                                   cal/mol     cal/K/mol   cal/K/mol   J/K/mol
 298.15  VIB  0.131E+17            19424.213    121.426    123.218
         ROT  0.694E+08              888.752      2.981     38.862
         INT  0.908E+24            20312.965    124.407    162.080
         TR   0.112E+29             1481.254      4.968     44.558
         TOT                       21794.2192   129.3753   206.6378   864.5725

       T/K    H(0)-H(T)+PV         H(T)/Eh          T*S/Eh         G(T)/Eh
   ------------------------------------------------------------------------
    298.15    0.347313E-01    0.585518E+00    0.981803E-01    0.487338E+00
   ------------------------------------------------------------------------

         :::::::::::::::::::::::::::::::::::::::::::::::::::::
         ::                  THERMODYNAMIC                  ::
         :::::::::::::::::::::::::::::::::::::::::::::::::::::
         :: total free energy        -100.323121985298 Eh   ::
         ::.................................................::
         :: total energy             -100.810459845462 Eh   ::
         :: zero point energy           0.550786837225 Eh   ::
         :: G(RRHO) w/o ZPVE           -0.063448977061 Eh   ::
         :: G(RRHO) contrib.            0.487337860164 Eh   ::
         :::::::::::::::::::::::::::::::::::::::::::::::::::::

           -------------------------------------------------
          | TOTAL ENERGY             -100.810459845462 Eh   |
          | TOTAL ENTHALPY           -100.224941709205 Eh   |
          | TOTAL FREE ENERGY        -100.323121985298 Eh   |
          | GRADIENT NORM               0.000080664289 Eh/α |
           -------------------------------------------------

 * finished run on 2025/09/10 at 19:26:10.029
