   * xtb version 6.7.1 (edcfbbe) compiled by 'albert@albert-system' on 2024-07-22

   ID    Z sym.   atoms
    1    6 C      1-40
    2    1 H      41-70

          program call               : xtb data2507/gas/DPVBi/DPVBi_gas_T1_crest.xyz --gfn 2 --spinpol --tblite --uhf 2 --ohess vtight --parallel 40 --molden --ceasefiles --namespace data2507/gas/DPVBi/DPVBi_gas_T1_finalOpt
 * total energy  :  -100.8100768 Eh     change        0.5667320E-07 Eh
 * total energy  :  -100.8101694 Eh     change       -0.9262061E-04 Eh
 * total energy  :  -100.8102501 Eh     change       -0.8067266E-04 Eh
 * total energy  :  -100.8102766 Eh     change       -0.2648907E-04 Eh
 * total energy  :  -100.8103030 Eh     change       -0.2646324E-04 Eh
 * total energy  :  -100.8103332 Eh     change       -0.3014908E-04 Eh
 * total energy  :  -100.8103496 Eh     change       -0.1644619E-04 Eh
 * total energy  :  -100.8103661 Eh     change       -0.1647773E-04 Eh
 * total energy  :  -100.8103733 Eh     change       -0.7143241E-05 Eh
 * total energy  :  -100.8103798 Eh     change       -0.6551979E-05 Eh
 * total energy  :  -100.8105195 Eh     change       -0.6260422E-06 Eh
 * total energy  :  -100.8105202 Eh     change       -0.6824720E-06 Eh
 * total energy  :  -100.8105209 Eh     change       -0.6814781E-06 Eh
 * total energy  :  -100.8105215 Eh     change       -0.5752883E-06 Eh
 * total energy  :  -100.8105221 Eh     change       -0.6828964E-06 Eh
 * total energy  :  -100.8105229 Eh     change       -0.7225445E-06 Eh
 * total energy  :  -100.8105237 Eh     change       -0.8135949E-06 Eh
 * total energy  :  -100.8105247 Eh     change       -0.1002356E-05 Eh
 * total energy  :  -100.8105247 Eh     change       -0.1013294E-07 Eh
   *** GEOMETRY OPTIMIZATION CONVERGED AFTER 68 ITERATIONS ***

 final structure:
================
70
 xtb: 6.7.1 (edcfbbe)
C           -4.78384202864650       -1.02483858510637       -0.73123982487326
C           -5.84876749479165       -0.30464077419466       -0.32893167784473
C           -5.73088885131531        0.93019231833941        0.46749785161786
C           -6.43513553214738        2.07337888474351        0.09776197937505
C           -6.33895396738777        3.22981095215955        0.84964041545358
C           -5.55174043610367        3.25561973047884        1.98866328217262
C           -4.86233486749075        2.11722465111869        2.37422440597435
C           -4.95038680136962        0.96216193759450        1.62107010137341
C           -7.21655261727880       -0.75856667161697       -0.61212008938740
C           -7.53154643463610       -1.39811164741098       -1.81081540286749
C           -8.82191353547864       -1.82226341959990       -2.06523964142985
C           -9.82123672151964       -1.61849681461763       -1.12805421290535
C           -9.52164761852016       -0.98147264872597        0.06504070968254
C           -8.23388979145836       -0.55097021090324        0.31986460873450
C           -3.38420320466758       -0.66916095255408       -0.59333989629538
C           -2.92649953097405        0.65058901991202       -0.66565660793275
C           -1.59065922441884        0.94472619945896       -0.52201169865918
C           -0.64147667866774       -0.06333645170082       -0.30909214405142
C            0.76590665020264        0.24911358384552       -0.12948938915826
C            1.17118578715331        1.44407476466726        0.49664751638747
C            2.48992123682666        1.72789048573770        0.70015401879627
C            3.51711262900056        0.82769150371977        0.29160762688647
C            4.84565779122487        1.10731100055029        0.56592658607775
C            5.97497035076037        0.22740630595744        0.28161106351360
C            7.09070508233824        0.78710030802522       -0.42070753592678
C            6.90630954049906        1.89794114194922       -1.26744181289605
C            7.96826029342096        2.46954118681569       -1.93080267473585
C            9.25342070911619        1.97133335117706       -1.76115112073223
C            9.46139649633572        0.89644423633514       -0.90761503367896
C            8.40429750442817        0.30994259277680       -0.24754211387886
C            5.93852316724424       -1.12823634881172        0.73754421793974
C            5.12113228303008       -1.49851196428981        1.82544270371014
C            5.05030399293433       -2.80622804240772        2.24761636106706
C            5.77448515941196       -3.79684511210261        1.59738625639507
C            6.56707402369741       -3.45847976168384        0.50849760467129
C            6.65387852293128       -2.15175067461978        0.08344498160832
C            3.09706461712649       -0.35463689036486       -0.38532329558626
C            1.77306464962536       -0.62969930141909       -0.57076091440954
C           -1.09727260937436       -1.38685762525763       -0.27572044022774
C           -2.43341684888530       -1.68061292624624       -0.42150579901264
H           -4.96432488425854       -1.99091876920905       -1.18779836762745
H           -7.04961239711978        2.05245993452245       -0.79140777789041
H           -6.88255810044464        4.11330573398584        0.54747492136406
H           -5.47940620657736        4.15853296356661        2.57702831083494
H           -4.25553376731475        2.12955947143043        3.26800791619765
H           -4.41800326121542        0.07262119149910        1.92499290399202
H           -6.76250010682606       -1.54172296966033       -2.55586824006454
H           -9.05124637374141       -2.31040357105975       -3.00155005034649
H          -10.82910720385961       -1.95103326113461       -1.32815121210395
H          -10.29652061269123       -0.81925304139094        0.80027025112820
H           -8.00427613504677       -0.06040117015586        1.25500883232146
H           -3.62951416285071        1.44660067897850       -0.85907003322197
H           -1.26569033714730        1.97097500920130       -0.60977156458915
H            0.41794317367790        2.13180784168785        0.85290268371107
H            2.77793508929283        2.64085943717296        1.20238990902683
H            5.08097425206352        2.05996013635295        1.02583636255871
H            5.90555333433560        2.27895298689065       -1.41422306499598
H            7.80062048856936        3.31111585148773       -2.58771009506154
H           10.08552137186206        2.42333089891670       -2.27974795442053
H           10.46264062170381        0.52035543926256       -0.75219387275212
H            8.58650961154168       -0.49477239223715        0.44914759367299
H            4.56450199795170       -0.73248265784212        2.34492413341962
H            4.42647102754486       -3.06314643634634        3.09173344403919
H            5.71423262885554       -4.82260611862581        1.92871850486035
H            7.11441696574543       -4.22815797574272       -0.01699953687734
H            7.23469020270085       -1.91081829397670       -0.79461262289943
H            3.84818688785117       -1.03240481152048       -0.76106965469785
H            1.49014184235871       -1.52745791769600       -1.10105052718896
H           -0.39424531600174       -2.18812261644857       -0.10159364937047
H           -2.76291816391192       -2.70962057452029       -0.37690783726414

 projected vibrational frequencies (cm⁻¹)
eigval :       -0.00    -0.00     0.00     0.00     0.00     0.00
eigval :        7.85    10.87    14.72    22.92    29.72    42.55
eigval :       45.92    52.48    53.35    63.87    65.75    69.28
eigval :       78.26    89.21    93.70   114.11   128.35   169.33
eigval :      171.71   194.40   207.48   213.25   239.53   243.85
eigval :      262.95   281.81   287.65   306.01   323.66   354.07
eigval :      367.15   368.32   371.07   373.44   383.43   387.21
eigval :      391.48   399.15   411.69   432.35   446.63   462.41
eigval :      482.90   512.10   528.43   536.62   554.86   559.69
eigval :      581.36   584.10   586.27   588.79   591.01   601.75
eigval :      613.14   618.06   627.23   656.44   660.89   666.45
eigval :      670.47   674.81   688.17   705.89   715.33   732.73
eigval :      736.90   750.03   759.37   760.48   769.74   798.08
eigval :      820.83   833.04   841.24   851.17   857.45   861.10
eigval :      867.49   869.42   876.63   878.54   884.15   897.55
eigval :      900.65   902.45   910.64   912.18   917.62   919.48
eigval :      922.73   923.03   924.60   925.20   928.68   929.82
eigval :      930.32   931.65   932.25   941.96   969.22   971.59
eigval :      980.68   990.61  1005.31  1011.13  1066.77  1079.11
eigval :     1079.35  1083.84  1086.20  1104.57  1120.38  1121.66
eigval :     1123.92  1132.25  1138.30  1153.24  1173.85  1179.55
eigval :     1180.02  1181.37  1182.02  1182.27  1189.99  1197.00
eigval :     1198.99  1203.12  1205.52  1217.43  1229.11  1271.07
eigval :     1274.03  1275.35  1279.95  1281.36  1284.09  1285.03
eigval :     1293.37  1305.24  1315.30  1315.97  1318.89  1323.52
eigval :     1324.95  1328.65  1335.16  1347.04  1404.95  1410.04
eigval :     1419.80  1429.49  1430.00  1431.53  1433.94  1437.00
eigval :     1452.42  1468.13  1475.55  1476.34  1483.66  1497.66
eigval :     1537.41  1539.19  1540.96  1544.17  1567.38  1576.94
eigval :     1578.74  1579.41  1582.74  1594.52  1598.64  1625.26
eigval :     3026.51  3041.19  3066.25  3066.37  3068.32  3069.84
eigval :     3070.03  3070.66  3071.11  3072.02  3072.58  3072.85
eigval :     3076.25  3078.67  3079.25  3079.73  3081.09  3083.97
eigval :     3084.59  3084.98  3085.63  3086.00  3086.46  3088.53
eigval :     3092.05  3092.47  3092.71  3094.06  3096.18  3096.80

   temp. (K)  partition function   enthalpy   heat capacity  entropy
                                   cal/mol     cal/K/mol   cal/K/mol   J/K/mol
 298.15  VIB  0.134E+17            19428.535    121.402    123.247
         ROT  0.699E+08              888.752      2.981     38.876
         INT  0.933E+24            20317.287    124.383    162.122
         TR   0.112E+29             1481.254      4.968     44.558
         TOT                       21798.5412   129.3512   206.6804   864.7509

       T/K    H(0)-H(T)+PV         H(T)/Eh          T*S/Eh         G(T)/Eh
   ------------------------------------------------------------------------
    298.15    0.347382E-01    0.585547E+00    0.982005E-01    0.487347E+00
   ------------------------------------------------------------------------

         :::::::::::::::::::::::::::::::::::::::::::::::::::::
         ::                  THERMODYNAMIC                  ::
         :::::::::::::::::::::::::::::::::::::::::::::::::::::
         :: total free energy        -100.323177907554 Eh   ::
         ::.................................................::
         :: total energy             -100.810524687156 Eh   ::
         :: zero point energy           0.550809132141 Eh   ::
         :: G(RRHO) w/o ZPVE           -0.063462352538 Eh   ::
         :: G(RRHO) contrib.            0.487346779603 Eh   ::
         :::::::::::::::::::::::::::::::::::::::::::::::::::::

           -------------------------------------------------
          | TOTAL ENERGY             -100.810524687156 Eh   |
          | TOTAL ENTHALPY           -100.224977368479 Eh   |
          | TOTAL FREE ENERGY        -100.323177907554 Eh   |
          | GRADIENT NORM               0.000052701700 Eh/α |
           -------------------------------------------------

 * finished run on 2025/09/10 at 19:29:53.911
