   * xtb version 6.7.1 (edcfbbe) compiled by 'albert@albert-system' on 2024-07-22

   ID    Z sym.   atoms
    1    9 F      1, 3, 4
    2    6 C      2, 5-8, 10-19, 21-34, 36-45, 47-62
    3    7 N      9, 20, 35, 46
    4    1 H      63-97

          program call               : xtb data2507/toluene/PPI-PIM-1/PPI-PIM-1_toluene_S0_finalOpt.xtbopt.xyz --gfn 2 --uhf 2 --gbsa toluene --ohess vtight --parallel 40 --molden --ceasefiles --namespace data2507/toluene/PPI-PIM-1/PPI-PIM-1_toluene_T1_preOpt
      * Solvation model:               GBSA
        Solvent                        toluene
        Solvent mass                       9.2140E+01 g/mol
          :  Hamiltonian                  GFN2-xTB          :
 * total energy  :  -161.5694993 Eh     change       -0.3292712E-08 Eh
 * total energy  :  -161.5745492 Eh     change       -0.5049938E-02 Eh
 * total energy  :  -161.5769902 Eh     change       -0.2440965E-02 Eh
 * total energy  :  -161.5775791 Eh     change       -0.5889363E-03 Eh
 * total energy  :  -161.5782719 Eh     change       -0.6927964E-03 Eh
 * total energy  :  -161.5787520 Eh     change       -0.4800593E-03 Eh
 * total energy  :  -161.5791526 Eh     change       -0.4006695E-03 Eh
 * total energy  :  -161.5794607 Eh     change       -0.3080536E-03 Eh
 * total energy  :  -161.5796874 Eh     change       -0.2266901E-03 Eh
 * total energy  :  -161.5798631 Eh     change       -0.1757270E-03 Eh
 * total energy  :  -161.5813965 Eh     change       -0.5342523E-06 Eh
 * total energy  :  -161.5813971 Eh     change       -0.5738443E-06 Eh
 * total energy  :  -161.5813977 Eh     change       -0.6024113E-06 Eh
 * total energy  :  -161.5813983 Eh     change       -0.5547200E-06 Eh
 * total energy  :  -161.5813988 Eh     change       -0.4705771E-06 Eh
 * total energy  :  -161.5813992 Eh     change       -0.4289819E-06 Eh
 * total energy  :  -161.5813997 Eh     change       -0.5177171E-06 Eh
 * total energy  :  -161.5814002 Eh     change       -0.5355618E-06 Eh
 * total energy  :  -161.5814003 Eh     change       -0.3359514E-07 Eh
   *** GEOMETRY OPTIMIZATION CONVERGED AFTER 122 ITERATIONS ***

 final structure:
================
97
 xtb: 6.7.1 (edcfbbe)
F           -4.07097343871384       -5.83725867145050       -0.81732233462241
C           -4.40148197956616       -5.28373267567060        0.36786505664648
F           -5.47940850172164       -5.98770728715275        0.79691619901265
F           -3.40690074517266       -5.60003375265983        1.21426208503614
C           -4.67128977830569       -3.81791706130826        0.27523051930703
C           -4.22981948678485       -2.95043145378564        1.27354876470989
C           -4.51153362457716       -1.60511251587086        1.18347422711238
C           -5.24777679360424       -1.11084049809288        0.10047206988325
N           -5.52233923923978        0.25570119385336        0.01143337490443
C           -4.56382777616698        1.28532701854599        0.02499211951071
C           -3.16141353699535        1.15415795306535       -0.02980734064098
C           -2.45486803617106       -0.00985938774660       -0.43327828826068
C           -1.09320711619619       -0.02859629113933       -0.47599585107891
C           -0.30519278637749        1.08840037630598       -0.09011569345374
C            1.12175448016422        1.03537505689007       -0.08163649691761
C            1.90062894296854        1.93440031367333        0.69328213577089
C            3.26159883559280        1.85452866846975        0.73103831579941
C            3.96315858081420        0.87043175824113       -0.00385025912143
C            5.38536132495869        0.84914843967326        0.08997587127296
N            6.08929252539909        1.88789383667329        0.51939951589040
C            7.39330575627447        1.56734591299543        0.41148828860366
C            8.42868454373455        2.49534658033320        0.83537962036410
C            8.15694943953381        3.86469424867503        0.81490398197804
C            9.11389368732482        4.77490078531425        1.21866123204337
C           10.35364358245479        4.33385806713622        1.65549501184114
C           10.62487176215908        2.97526978890421        1.69807170436466
C            9.67171020595250        2.05920387417102        1.29502310011520
C            7.51543449484768        0.26904907669984       -0.10215599295854
C            8.69644660747270       -0.51155682685796       -0.43063285727031
C            8.83808872288351       -1.83189749556477       -0.00125092498630
C            9.96859335662325       -2.55469897315663       -0.33276239482284
C           10.96859196909337       -1.97697662343467       -1.09841497584835
C           10.83741972806959       -0.66458638396929       -1.52650662300550
C            9.71313073753806        0.06589808169530       -1.19529801214908
N            6.23252969503477       -0.18048837006293       -0.28456933882907
C            5.88937163571616       -1.47879041912139       -0.71447974162926
C            6.35829082492743       -1.95344109633552       -1.93442849620166
C            6.03735337899878       -3.23734911920712       -2.33735123972789
C            5.25332036119425       -4.04664851029837       -1.53137651427423
C            4.78911011262232       -3.57196587679911       -0.31452097024205
C            5.10776739046510       -2.29239121724246        0.10092507771151
C            3.20382279833681        0.01011562163516       -0.82478402727315
C            1.84028655065635        0.08636725237991       -0.85268637843539
C           -1.01919636510522        2.26277760079244        0.27658533242242
C           -2.37792389836944        2.30285029333823        0.28065105464956
N           -5.16032603961219        2.48432981292545        0.00795338445117
C           -6.47216062902747        2.26058796710074       -0.06087069624849
C           -7.51126972580737        3.22985900765277       -0.17848996065223
C           -7.21451596563668        4.59323579985200       -0.26545559807541
C           -8.22234633824807        5.51636165992757       -0.42360135691793
C           -9.53998691220838        5.07704559640511       -0.50450283749757
C           -9.84358280973737        3.73478112578966       -0.41416627871236
C           -8.84547632516353        2.76666705529847       -0.23716653905437
C           -9.13458419875697        1.34869891007413       -0.08744236403539
C          -10.44891160284309        0.87569388278847       -0.02881473010716
C          -10.74344416623313       -0.45586630924589        0.17164410919597
C           -9.71355231566045       -1.37649862781365        0.35007745905651
C           -8.40882990934554       -0.95894471013825        0.28761440201867
C           -8.08011527605312        0.38998371086212        0.04158145459751
C           -6.75423872763757        0.87201274700070       -0.03654448060091
C           -5.68861460589873       -1.98895959834813       -0.89759262762125
C           -5.40192544515303       -3.33277351003750       -0.81115564105557
H           -3.67059267297460       -3.33425103908476        2.11237501851456
H           -4.16991578163034       -0.92362656099592        1.94699267637791
H           -2.99759747666524       -0.88410968214088       -0.75468266954473
H           -0.60305296292590       -0.94026552395544       -0.78150483701475
H            1.40484414367129        2.67126637525866        1.30541856029419
H            3.84028925673994        2.52932687903342        1.34280481997889
H            7.18651868119615        4.19221826455419        0.47444363050178
H            8.89441685571491        5.83247992968209        1.19330142187708
H           11.10337593033603        5.04550895867499        1.96898105907880
H           11.58368124984434        2.62627378526953        2.05332658046858
H            9.88412803290004        1.00220647808802        1.35210050306682
H            8.07015123857802       -2.28342040144447        0.60969858312472
H           10.06940842781476       -3.57383684719849        0.01042287096967
H           11.84854476287901       -2.54612525938370       -1.35850676773052
H           11.61398447570281       -0.20916948188293       -2.12326066517147
H            9.60522821844086        1.08707922924597       -1.53105134911208
H            6.96369873648787       -1.31437327355902       -2.55988722521645
H            6.39986819650347       -3.60361814543590       -3.28588711713204
H            5.00427185176015       -5.04729144201321       -1.85037553041628
H            4.18052996393258       -4.20095979562297        0.31749696683125
H            4.75258959864919       -1.91324517586420        1.04806992512827
H            3.70229365383476       -0.69507612652811       -1.47159109797269
H            1.30271915777729       -0.56567634966547       -1.52354474538521
H           -0.47021318593723        3.15937457029617        0.51902917944374
H           -2.90650736078462        3.20735301269644        0.53785628002437
H           -6.17791861952188        4.88861738714590       -0.21287812698788
H           -7.99538749505182        6.56982497887563       -0.49094284512306
H          -10.33700369265076        5.79382023696092       -0.63999505324024
H          -10.87909221414381        3.44373054912273       -0.48713224878397
H          -11.27091756762441        1.56558614995155       -0.12871925153959
H          -11.77245090156205       -0.78069823909391        0.20923692860370
H           -9.93920939630262       -2.41480490697171        0.54330328937144
H           -7.61980966655851       -1.67312720413070        0.45375077372690
H           -6.24837962540967       -1.60282650610789       -1.73572526652848
H           -5.72965506124468       -4.01206693716109       -1.58300843912474

          :  Hamiltonian                  GFN2-xTB          :
         :: gradient norm              0.000062830715 Eh/a0 ::
         :: HOMO-LUMO gap              0.421903065738 eV    ::
         :: SCC energy              -164.331876454143 Eh    ::
         :: -> dispersion             -0.139929033669 Eh    ::
         :: -> Gsolv                  -0.064229177675 Eh    ::
         :: repulsion energy           2.750476173693 Eh    ::

    * Orbital Energies and Occupations

         #    Occupation            Energy/Eh            Energy/eV
      -------------------------------------------------------------
         1        2.0000           -0.8857224             -24.1017
       ...           ...                  ...                  ...
       137        2.0000           -0.4097482             -11.1498
       138        2.0000           -0.4093686             -11.1395
       139        2.0000           -0.4081767             -11.1071
       140        2.0000           -0.4064790             -11.0609
       141        2.0000           -0.4038837             -10.9902
       142        2.0000           -0.4023955             -10.9497
       143        2.0000           -0.3916224             -10.6566
       144        2.0000           -0.3880744             -10.5600
       145        2.0000           -0.3844138             -10.4604
       146        2.0000           -0.3828103             -10.4168
       147        1.9984           -0.3705616             -10.0835
       148        1.0016           -0.3582961              -9.7497
       149        0.9997           -0.2858745              -7.7790 (HOMO)
       150        0.0003           -0.2703699              -7.3571 (LUMO)
       151                         -0.2591525              -7.0519
       152                         -0.2545107              -6.9256
       153                         -0.2534973              -6.8980
       154                         -0.2525026              -6.8709
       155                         -0.2450845              -6.6691
       156                         -0.2411523              -6.5621
       157                         -0.2386376              -6.4937
       158                         -0.2324489              -6.3253
       159                         -0.2248434              -6.1183
       160                         -0.2238225              -6.0905
       ...                                ...                  ...
       283                          0.7203595              19.6020
      -------------------------------------------------------------
                  HL-Gap            0.0155046 Eh            0.4219 eV

     #   Z          covCN         q      C6AA      α(0)
     1   9 F        0.791    -0.221    11.453     3.998
     2   6 C        3.336     0.485    17.290     6.584
     3   9 F        0.790    -0.228    11.526     4.010
     4   9 F        0.791    -0.216    11.406     3.989
     5   6 C        2.975    -0.041    29.003     8.834
     6   6 C        2.917    -0.023    28.568     8.765
     7   6 C        2.920    -0.036    28.898     8.816
     8   6 C        2.909     0.069    26.453     8.434
     9   7 N        2.820    -0.054    22.284     7.011
    10   6 C        3.145     0.125    25.025     8.185
    11   6 C        2.969    -0.010    28.254     8.719
    12   6 C        2.911    -0.042    29.045     8.837
    13   6 C        2.917    -0.035    28.865     8.810
    14   6 C        2.970     0.006    27.875     8.660
    15   6 C        2.969     0.011    27.756     8.642
    16   6 C        2.917    -0.036    28.884     8.813
    17   6 C        2.921    -0.031    28.767     8.795
    18   6 C        2.971    -0.009    28.229     8.715
    19   6 C        3.139     0.129    24.954     8.175
    20   7 N        1.907    -0.308    28.836     7.962
    21   6 C        3.150     0.066    26.251     8.381
    22   6 C        2.973     0.007    27.851     8.657
    23   6 C        2.927    -0.028    28.709     8.787
    24   6 C        2.918    -0.029    28.718     8.788
    25   6 C        2.919    -0.029    28.722     8.788
    26   6 C        2.918    -0.029    28.735     8.790
    27   6 C        2.922    -0.036    28.885     8.814
    28   6 C        3.059     0.027    27.334     8.574
    29   6 C        2.971     0.006    27.882     8.661
    30   6 C        2.923    -0.032    28.808     8.802
    31   6 C        2.918    -0.028    28.695     8.784
    32   6 C        2.919    -0.028    28.700     8.785
    33   6 C        2.918    -0.027    28.673     8.781
    34   6 C        2.925    -0.031    28.767     8.796
    35   7 N        2.839    -0.042    22.054     6.975
    36   6 C        2.914     0.064    26.559     8.451
    37   6 C        2.921    -0.038    28.941     8.822
    38   6 C        2.920    -0.025    28.636     8.775
    39   6 C        2.919    -0.029    28.714     8.787
    40   6 C        2.920    -0.025    28.632     8.775
    41   6 C        2.921    -0.037    28.922     8.819
    42   6 C        2.913    -0.038    28.942     8.822
    43   6 C        2.919    -0.036    28.896     8.815
    44   6 C        2.915    -0.035    28.876     8.812
    45   6 C        2.921    -0.033    28.811     8.802
    46   7 N        1.885    -0.309    28.863     7.964
    47   6 C        3.174     0.077    25.907     8.313
    48   6 C        2.984    -0.004    28.112     8.697
    49   6 C        2.922    -0.028    28.703     8.786
    50   6 C        2.916    -0.030    28.760     8.794
    51   6 C        2.917    -0.029    28.722     8.788
    52   6 C        2.922    -0.034    28.856     8.809
    53   6 C        2.978    -0.000    28.027     8.684
    54   6 C        2.978     0.000    28.017     8.682
    55   6 C        2.921    -0.033    28.821     8.804
    56   6 C        2.916    -0.032    28.791     8.799
    57   6 C        2.915    -0.031    28.772     8.796
    58   6 C        2.918    -0.040    28.995     8.830
    59   6 C        2.974    -0.007    28.193     8.710
    60   6 C        3.041     0.029    27.305     8.571
    61   6 C        2.920    -0.036    28.901     8.816
    62   6 C        2.919    -0.023    28.586     8.768
    63   1 H        0.926     0.062     2.170     2.304
    64   1 H        0.926     0.058     2.223     2.332
    65   1 H        0.926     0.025     2.662     2.551
    66   1 H        0.926     0.036     2.501     2.473
    67   1 H        0.926     0.042     2.418     2.432
    68   1 H        0.926     0.050     2.322     2.383
    69   1 H        0.926     0.047     2.351     2.398
    70   1 H        0.926     0.037     2.484     2.465
    71   1 H        0.926     0.037     2.490     2.467
    72   1 H        0.926     0.035     2.511     2.478
    73   1 H        0.926     0.030     2.587     2.515
    74   1 H        0.926     0.030     2.593     2.518
    75   1 H        0.926     0.039     2.466     2.456
    76   1 H        0.926     0.040     2.447     2.446
    77   1 H        0.926     0.040     2.446     2.446
    78   1 H        0.926     0.034     2.533     2.489
    79   1 H        0.926     0.040     2.443     2.444
    80   1 H        0.926     0.047     2.353     2.399
    81   1 H        0.926     0.047     2.353     2.399
    82   1 H        0.926     0.047     2.354     2.399
    83   1 H        0.926     0.040     2.447     2.446
    84   1 H        0.926     0.029     2.602     2.522
    85   1 H        0.926     0.037     2.484     2.465
    86   1 H        0.926     0.041     2.435     2.440
    87   1 H        0.926     0.050     2.322     2.383
    88   1 H        0.926     0.050     2.325     2.384
    89   1 H        0.926     0.039     2.466     2.456
    90   1 H        0.926     0.039     2.466     2.456
    91   1 H        0.926     0.041     2.441     2.443
    92   1 H        0.926     0.042     2.422     2.434
    93   1 H        0.926     0.037     2.491     2.468
    94   1 H        0.926     0.034     2.528     2.486
    95   1 H        0.926     0.031     2.566     2.505
    96   1 H        0.926     0.060     2.193     2.316
    97   1 H        0.926     0.059     2.206     2.323

molecular dipole:
                 x           y           z       tot (Debye)
 q only:        2.013       0.790      -0.567
   full:        1.981      -0.037      -0.683       5.326

 projected vibrational frequencies (cm⁻¹)
eigval :       -0.00    -0.00    -0.00     0.00     0.00     0.00
eigval :        4.43     6.97    11.09    16.35    18.08    18.94
eigval :       23.33    28.57    32.50    33.15    40.02    42.98
eigval :       47.44    57.06    58.99    64.90    71.91    75.36
eigval :       84.68    90.50    95.25    98.85   115.98   119.59
eigval :      126.23   130.02   141.24   155.10   165.17   175.78
eigval :      188.24   213.17   222.86   225.84   230.45   233.35
eigval :      240.03   243.80   256.95   264.34   274.98   279.95
eigval :      299.34   323.92   347.38   356.03   365.89   367.13
eigval :      368.54   368.85   373.09   376.11   378.14   380.22
eigval :      384.06   392.65   393.82   399.01   411.90   422.55
eigval :      430.72   449.19   452.91   456.75   463.09   478.19
eigval :      485.72   491.36   495.23   505.92   512.91   518.80
eigval :      520.36   529.73   544.42   555.06   582.61   584.07
eigval :      584.85   587.88   589.66   596.46   599.38   618.39
eigval :      621.38   624.57   635.47   641.37   643.14   647.19
eigval :      655.69   658.80   662.34   667.61   672.70   674.84
eigval :      675.86   681.03   682.70   689.76   700.69   708.53
eigval :      731.34   732.21   751.56   755.62   756.56   758.38
eigval :      762.41   775.38   781.62   793.47   801.56   813.30
eigval :      817.35   821.22   831.55   851.32   857.50   867.40
eigval :      870.26   872.10   872.81   898.89   900.04   900.66
eigval :      901.66   904.23   910.69   912.17   912.83   914.43
eigval :      914.54   917.14   918.54   920.07   922.39   926.31
eigval :      926.96   928.26   929.19   930.90   931.03   931.38
eigval :      937.58   941.25   948.09   966.32   971.18   979.57
eigval :      988.59   998.94  1007.95  1020.22  1026.05  1034.37
eigval :     1057.62  1060.30  1077.18  1079.68  1081.91  1083.44
eigval :     1098.08  1100.22  1105.20  1115.27  1118.01  1120.94
eigval :     1133.29  1134.17  1137.06  1150.90  1153.85  1158.43
eigval :     1166.82  1175.94  1178.59  1179.21  1179.42  1181.93
eigval :     1184.73  1187.57  1194.72  1200.71  1203.51  1207.03
eigval :     1209.37  1234.54  1240.34  1250.29  1252.34  1259.86
eigval :     1260.84  1266.57  1273.78  1274.80  1277.77  1280.19
eigval :     1284.38  1292.70  1302.53  1306.05  1312.57  1314.69
eigval :     1320.63  1325.35  1328.11  1332.43  1335.05  1335.59
eigval :     1349.43  1363.08  1374.68  1390.91  1399.47  1407.79
eigval :     1412.95  1414.01  1421.43  1424.62  1428.20  1431.53
eigval :     1433.25  1434.82  1442.83  1444.58  1451.98  1458.75
eigval :     1468.61  1472.11  1479.04  1479.69  1484.55  1499.76
eigval :     1503.08  1518.75  1521.92  1540.31  1542.44  1550.62
eigval :     1568.12  1568.77  1573.88  1578.64  1581.98  1582.83
eigval :     1585.71  1587.51  1589.89  1592.49  3071.56  3073.95
eigval :     3075.23  3075.51  3076.58  3077.45  3081.46  3083.36
eigval :     3083.76  3084.57  3085.36  3085.55  3087.40  3087.50
eigval :     3088.79  3088.90  3090.91  3093.48  3093.56  3094.24
eigval :     3094.52  3095.38  3097.76  3100.02  3100.15  3101.60
eigval :     3102.41  3102.65  3103.91  3104.09  3106.07  3107.49
eigval :     3110.51  3111.89  3127.01

   temp. (K)  partition function   enthalpy   heat capacity  entropy
                                   cal/mol     cal/K/mol   cal/K/mol   J/K/mol
 298.15  VIB  0.397E+26            29877.321    182.236    190.099
         ROT  0.274E+09              888.752      2.981     41.588
         INT  0.109E+35            30766.074    185.217    231.687
         TR   0.223E+29             1481.254      4.968     45.928
         TOT                       32247.3277   190.1847   277.6159  1161.5448

       T/K    H(0)-H(T)+PV         H(T)/Eh          T*S/Eh         G(T)/Eh
   ------------------------------------------------------------------------
    298.15    0.513894E-01    0.773418E+00    0.131904E+00    0.641513E+00
   ------------------------------------------------------------------------

         :::::::::::::::::::::::::::::::::::::::::::::::::::::
         ::                  THERMODYNAMIC                  ::
         :::::::::::::::::::::::::::::::::::::::::::::::::::::
         :: total free energy        -160.939886946600 Eh   ::
         ::.................................................::
         :: total energy             -161.581400288373 Eh   ::
         :: zero point energy           0.722028215574 Eh   ::
         :: G(RRHO) w/o ZPVE           -0.080514873802 Eh   ::
         :: G(RRHO) contrib.            0.641513341773 Eh   ::
         :::::::::::::::::::::::::::::::::::::::::::::::::::::

           -------------------------------------------------
          | TOTAL ENERGY             -161.581400288373 Eh   |
          | TOTAL ENTHALPY           -160.807982684964 Eh   |
          | TOTAL FREE ENERGY        -160.939886946600 Eh   |
          | GRADIENT NORM               0.000064733583 Eh/α |
          | HOMO-LUMO GAP               0.421902244628 eV   |
           -------------------------------------------------

 * finished run on 2025/08/26 at 03:36:57.206
