   * xtb version 6.7.1 (edcfbbe) compiled by 'albert@albert-system' on 2024-07-22

   ID    Z sym.   atoms
    1    9 F      1, 3, 4
    2    6 C      2, 5-8, 10-19, 21-34, 36-45, 47-62
    3    7 N      9, 20, 35, 46
    4    1 H      63-97

          program call               : xtb data2507/toluene/PPI-PIM-1/PPI-PIM-1_toluene_T1_crest.xyz --gfn 2 --uhf 2 --gbsa toluene --ohess vtight --parallel 40 --molden --ceasefiles --namespace data2507/toluene/PPI-PIM-1/PPI-PIM-1_toluene_T1_finalOpt
      * Solvation model:               GBSA
        Solvent                        toluene
        Solvent mass                       9.2140E+01 g/mol
          :  Hamiltonian                  GFN2-xTB          :
 * total energy  :  -161.5815838 Eh     change       -0.2414140E-08 Eh
 * total energy  :  -161.5816500 Eh     change       -0.6615302E-04 Eh
 * total energy  :  -161.5816802 Eh     change       -0.3024480E-04 Eh
 * total energy  :  -161.5816892 Eh     change       -0.8932284E-05 Eh
 * total energy  :  -161.5816987 Eh     change       -0.9496386E-05 Eh
 * total energy  :  -161.5817053 Eh     change       -0.6601739E-05 Eh
 * total energy  :  -161.5817113 Eh     change       -0.6049231E-05 Eh
 * total energy  :  -161.5817161 Eh     change       -0.4808332E-05 Eh
 * total energy  :  -161.5817188 Eh     change       -0.2694287E-05 Eh
 * total energy  :  -161.5817208 Eh     change       -0.1970688E-05 Eh
 * total energy  :  -161.5817546 Eh     change       -0.1557884E-06 Eh
 * total energy  :  -161.5817547 Eh     change       -0.1925678E-06 Eh
 * total energy  :  -161.5817550 Eh     change       -0.2134832E-06 Eh
 * total energy  :  -161.5817553 Eh     change       -0.3788898E-06 Eh
 * total energy  :  -161.5817551 Eh     change        0.2717284E-06 Eh
 * total energy  :  -161.5817555 Eh     change       -0.4770910E-06 Eh
 * total energy  :  -161.5817557 Eh     change       -0.1650152E-06 Eh
 * total energy  :  -161.5817561 Eh     change       -0.4119358E-06 Eh
 * total energy  :  -161.5817561 Eh     change       -0.5365706E-08 Eh
   *** GEOMETRY OPTIMIZATION CONVERGED AFTER 68 ITERATIONS ***

 final structure:
================
97
 xtb: 6.7.1 (edcfbbe)
F           -4.35965285021287       -5.63801811818513       -1.93591248432756
C           -4.37994460587028       -5.22525313880687       -0.65426885247417
F           -5.23745084862068       -6.04117798893964       -0.01427852666916
F           -3.15407804695631       -5.53670900205930       -0.16081166671505
C           -4.71034763823295       -3.77673290745777       -0.50354130014804
C           -5.39027449478945       -3.33195530076658        0.63071749325575
C           -5.66602188512027       -1.99081476209879        0.78036073990158
C           -5.25728986311560       -1.07513528667606       -0.19700649968280
N           -5.51626071159041        0.28876505517623       -0.04136007074312
C           -4.54729509357020        1.30870325998863       -0.03962969139299
C           -3.14584548303345        1.16168693470929       -0.03355456197773
C           -2.43938556652835       -0.02984978135758        0.28085138695216
C           -1.07804961214014       -0.06825946668836        0.26260059539961
C           -0.28775858223532        1.06946437387753       -0.05548675271510
C            1.13758110550263        1.00652958629448       -0.08393819935422
C            1.94758209510460        2.16642794848897        0.03747874132353
C            3.30909731831983        2.09184179195352        0.04679739592318
C            3.98127261246900        0.85179544508507       -0.06048501325663
C            5.40634751019494        0.85771379203343       -0.03013153008838
N            6.12244746071395        1.94841453797644       -0.27010018394820
C            7.42197868175751        1.59777033387452       -0.22728702243987
C            8.47098995744206        2.58539327614215       -0.42234656194978
C            8.20767583625407        3.70252235555138       -1.21695948525245
C            9.18000704216215        4.66217398498811       -1.41995859002644
C           10.42594249583770        4.52705580257621       -0.82706021562591
C           10.68869591697270        3.43169761053807       -0.01930197151043
C            9.72066051373237        2.46695380793212        0.18640116356545
C            7.52974876813178        0.22940354005016        0.05621824326677
C            8.70186817175467       -0.62046497632066        0.17572587874170
C            8.85386362148583       -1.50396596863074        1.24569491171238
C            9.97513575763467       -2.30736363923502        1.33231755065495
C           10.95719235544082       -2.24551528860066        0.35667993236984
C           10.81717911788410       -1.36658308943783       -0.70670373613796
C            9.70128733480363       -0.55816327987280       -0.79884436474691
N            6.24220321323865       -0.22310220055259        0.19452541710709
C            5.88685261869745       -1.53705135706578        0.56249550715423
C            6.30659314246545       -2.61307021030649       -0.21164025573815
C            5.97797613890308       -3.90073040929272        0.17264512688528
C            5.23549575797410       -4.11847058768807        1.32182139398938
C            4.81837555933806       -3.04391669008175        2.09176593577949
C            5.14485498237717       -1.75286282047984        1.72020883272599
C            3.18875875436021       -0.30171559579387       -0.24082172713654
C            1.82512487457078       -0.22418371339066       -0.24597699945490
C           -1.00069565034817        2.27356899992153       -0.31336966920625
C           -2.35897312047713        2.31933960458468       -0.29958130027172
N           -5.12978561994390        2.51142751308379        0.04649275302614
C           -6.44150111563531        2.29757498727817        0.14467971903785
C           -7.46602405227233        3.27250728202817        0.32520540754241
C           -7.15168739263442        4.62924495787869        0.44826876356116
C           -8.14477990391599        5.55726487656288        0.66062992178157
C           -9.46508288805972        5.12939474981597        0.75931366747830
C           -9.78594887703320        3.79410517519952        0.63385947879249
C           -8.80344542873658        2.82161505248530        0.40156733717502
C           -9.11191141201231        1.41265104893427        0.21190407501845
C          -10.43262663042467        0.95496910412236        0.17678256088263
C          -10.74776922563223       -0.36556505195816       -0.06100302488611
C           -9.73381835988263       -1.28977766998516       -0.30117563708005
C           -8.42331829466710       -0.88765888744459       -0.26333624146206
C           -8.07245061830939        0.44869007015516        0.01753358793015
C           -6.73921551681855        0.91417251805797        0.07231715207517
C           -4.56808046300822       -1.52909310196411       -1.32793761197920
C           -4.29690665644190       -2.87041824242409       -1.48043585535620
H           -5.69644352766252       -4.03884845871306        1.38620440855339
H           -6.18957752868780       -1.63605669220565        1.65500851704811
H           -2.98074854882635       -0.90812174799194        0.59382043098910
H           -0.58748791659439       -0.98475168951224        0.55302574409441
H            1.47916848004818        3.12892695645428        0.16877127084191
H            3.91215442565191        2.97947534798683        0.16008664063905
H            7.23211791543583        3.79445570167748       -1.66976845339272
H            8.96769391836789        5.51907001829486       -2.04279987846349
H           11.18741844529348        5.27626856968449       -0.98744612340715
H           11.65293424257791        3.33047833952798        0.45755871079469
H            9.92660506993392        1.62736620549357        0.83336787677455
H            8.10190794608958       -1.54497646745896        2.01998020399633
H           10.08281068429680       -2.98354568611519        2.16763797279225
H           11.83023916463305       -2.87708837354025        0.42584785792320
H           11.58008629739985       -1.31292608790386       -1.46931440554477
H            9.58740723923808        0.12352502646373       -1.62910964395281
H            6.88077608886549       -2.43505519845089       -1.10874903740774
H            6.30201629805621       -4.73498427427668       -0.43092876149294
H            4.98086360895293       -5.12485276180232        1.61749483570030
H            4.24085096582035       -3.21005196453836        2.98857328439881
H            4.82765087517426       -0.90838721319136        2.31457624411850
H            3.65958440725235       -1.25654249528495       -0.41667586666141
H            1.25936164073574       -1.12511366459672       -0.42652933567601
H           -0.45340983630003        3.16759822609493       -0.56766691971566
H           -2.88578258930069        3.23562232995069       -0.51520748460289
H           -6.11343919225039        4.91518682122268        0.37878141060380
H           -7.90454432629759        6.60563515143802        0.75570154074080
H          -10.25043683184697        5.84987014331664        0.93677444019259
H          -10.82277682976730        3.51211856843202        0.72200999293581
H          -11.24369896278250        1.64880119089242        0.32641813007443
H          -11.78098480147052       -0.67850736146858       -0.07891530104758
H           -9.97658279238034       -2.31868864863376       -0.52192338728503
H           -7.64733649019975       -1.60395297079897       -0.47531390634169
H           -4.25143390178522       -0.81954269267740       -2.07640645173619
H           -3.77583025162503       -3.22540454644818       -2.35597508823066

          :  Hamiltonian                  GFN2-xTB          :
         :: gradient norm              0.000038106306 Eh/a0 ::
         :: HOMO-LUMO gap              0.434598656244 eV    ::
         :: SCC energy              -164.332295373983 Eh    ::
         :: -> dispersion             -0.139985721167 Eh    ::
         :: -> Gsolv                  -0.064202966976 Eh    ::
         :: repulsion energy           2.750539245737 Eh    ::

    * Orbital Energies and Occupations

         #    Occupation            Energy/Eh            Energy/eV
      -------------------------------------------------------------
         1        2.0000           -0.8857668             -24.1029
       ...           ...                  ...                  ...
       137        2.0000           -0.4101884             -11.1618
       138        2.0000           -0.4090788             -11.1316
       139        2.0000           -0.4080837             -11.1045
       140        2.0000           -0.4065675             -11.0633
       141        2.0000           -0.4040553             -10.9949
       142        2.0000           -0.4021094             -10.9420
       143        2.0000           -0.3914952             -10.6531
       144        2.0000           -0.3880680             -10.5599
       145        2.0000           -0.3843634             -10.4591
       146        2.0000           -0.3828858             -10.4189
       147        1.9986           -0.3706318             -10.0854
       148        1.0014           -0.3581550              -9.7459
       149        0.9998           -0.2862481              -7.7892 (HOMO)
       150        0.0002           -0.2702768              -7.3546 (LUMO)
       151                         -0.2593210              -7.0565
       152                         -0.2545215              -6.9259
       153                         -0.2535658              -6.8999
       154                         -0.2526107              -6.8739
       155                         -0.2449921              -6.6666
       156                         -0.2410983              -6.5606
       157                         -0.2385279              -6.4907
       158                         -0.2322727              -6.3205
       159                         -0.2246607              -6.1133
       160                         -0.2238565              -6.0914
       ...                                ...                  ...
       283                          0.7203848              19.6027
      -------------------------------------------------------------
                  HL-Gap            0.0159713 Eh            0.4346 eV

     #   Z          covCN         q      C6AA      α(0)
     1   9 F        0.791    -0.219    11.434     3.994
     2   6 C        3.336     0.485    17.291     6.585
     3   9 F        0.791    -0.218    11.423     3.992
     4   9 F        0.790    -0.228    11.527     4.010
     5   6 C        2.975    -0.040    29.001     8.833
     6   6 C        2.918    -0.024    28.597     8.769
     7   6 C        2.920    -0.036    28.906     8.817
     8   6 C        2.908     0.069    26.447     8.433
     9   7 N        2.820    -0.054    22.287     7.012
    10   6 C        3.145     0.125    25.024     8.185
    11   6 C        2.969    -0.010    28.257     8.719
    12   6 C        2.911    -0.042    29.046     8.837
    13   6 C        2.917    -0.035    28.867     8.811
    14   6 C        2.969     0.006    27.875     8.660
    15   6 C        2.969     0.011    27.761     8.642
    16   6 C        2.917    -0.036    28.884     8.813
    17   6 C        2.921    -0.031    28.767     8.796
    18   6 C        2.971    -0.009    28.229     8.715
    19   6 C        3.140     0.129    24.951     8.175
    20   7 N        1.907    -0.308    28.835     7.961
    21   6 C        3.151     0.067    26.242     8.379
    22   6 C        2.973     0.007    27.849     8.656
    23   6 C        2.926    -0.028    28.707     8.787
    24   6 C        2.918    -0.029    28.718     8.788
    25   6 C        2.919    -0.029    28.723     8.789
    26   6 C        2.918    -0.029    28.734     8.790
    27   6 C        2.922    -0.035    28.878     8.812
    28   6 C        3.059     0.027    27.337     8.574
    29   6 C        2.971     0.006    27.884     8.662
    30   6 C        2.923    -0.033    28.812     8.802
    31   6 C        2.918    -0.028    28.696     8.784
    32   6 C        2.919    -0.028    28.701     8.785
    33   6 C        2.918    -0.027    28.674     8.781
    34   6 C        2.925    -0.031    28.770     8.796
    35   7 N        2.839    -0.042    22.056     6.975
    36   6 C        2.914     0.064    26.557     8.450
    37   6 C        2.921    -0.038    28.940     8.822
    38   6 C        2.920    -0.025    28.635     8.775
    39   6 C        2.919    -0.028    28.713     8.787
    40   6 C        2.920    -0.025    28.631     8.775
    41   6 C        2.921    -0.037    28.923     8.819
    42   6 C        2.913    -0.038    28.939     8.821
    43   6 C        2.919    -0.036    28.901     8.816
    44   6 C        2.915    -0.035    28.876     8.812
    45   6 C        2.921    -0.033    28.811     8.802
    46   7 N        1.885    -0.309    28.862     7.964
    47   6 C        3.174     0.077    25.906     8.313
    48   6 C        2.984    -0.004    28.112     8.697
    49   6 C        2.922    -0.028    28.704     8.786
    50   6 C        2.916    -0.030    28.759     8.794
    51   6 C        2.917    -0.029    28.723     8.789
    52   6 C        2.922    -0.034    28.856     8.809
    53   6 C        2.978    -0.000    28.027     8.684
    54   6 C        2.978     0.000    28.016     8.682
    55   6 C        2.921    -0.033    28.821     8.804
    56   6 C        2.916    -0.032    28.791     8.799
    57   6 C        2.915    -0.031    28.772     8.796
    58   6 C        2.918    -0.040    28.996     8.830
    59   6 C        2.974    -0.007    28.192     8.709
    60   6 C        3.041     0.029    27.306     8.571
    61   6 C        2.920    -0.036    28.891     8.814
    62   6 C        2.918    -0.022    28.556     8.763
    63   1 H        0.926     0.061     2.183     2.310
    64   1 H        0.926     0.061     2.190     2.314
    65   1 H        0.926     0.025     2.663     2.552
    66   1 H        0.926     0.036     2.502     2.474
    67   1 H        0.926     0.042     2.419     2.432
    68   1 H        0.926     0.050     2.322     2.383
    69   1 H        0.926     0.047     2.360     2.402
    70   1 H        0.926     0.037     2.484     2.464
    71   1 H        0.926     0.037     2.489     2.467
    72   1 H        0.926     0.036     2.509     2.477
    73   1 H        0.926     0.030     2.589     2.516
    74   1 H        0.926     0.030     2.590     2.517
    75   1 H        0.926     0.039     2.466     2.456
    76   1 H        0.926     0.040     2.447     2.446
    77   1 H        0.926     0.040     2.448     2.447
    78   1 H        0.926     0.034     2.534     2.489
    79   1 H        0.926     0.040     2.445     2.445
    80   1 H        0.926     0.047     2.355     2.400
    81   1 H        0.926     0.047     2.352     2.398
    82   1 H        0.926     0.048     2.350     2.397
    83   1 H        0.926     0.040     2.445     2.445
    84   1 H        0.926     0.029     2.605     2.524
    85   1 H        0.926     0.037     2.485     2.465
    86   1 H        0.926     0.041     2.431     2.438
    87   1 H        0.926     0.050     2.320     2.382
    88   1 H        0.926     0.050     2.325     2.384
    89   1 H        0.926     0.039     2.467     2.456
    90   1 H        0.926     0.039     2.467     2.456
    91   1 H        0.926     0.041     2.442     2.444
    92   1 H        0.926     0.042     2.423     2.434
    93   1 H        0.926     0.037     2.491     2.468
    94   1 H        0.926     0.034     2.527     2.486
    95   1 H        0.926     0.032     2.563     2.504
    96   1 H        0.926     0.058     2.224     2.332
    97   1 H        0.926     0.061     2.191     2.314

molecular dipole:
                 x           y           z       tot (Debye)
 q only:        1.870       0.687       0.491
   full:        1.831      -0.151       0.545       4.871

 projected vibrational frequencies (cm⁻¹)
eigval :       -0.00    -0.00     0.00     0.00     0.00     0.00
eigval :        3.49     4.49    10.23    14.31    18.31    20.27
eigval :       23.84    31.76    34.08    34.71    41.56    46.36
eigval :       49.07    54.46    62.82    65.68    77.12    78.55
eigval :       85.39    86.89    93.63    97.43   112.89   125.45
eigval :      126.25   130.88   139.06   151.06   174.46   180.76
eigval :      187.73   205.09   220.86   224.81   232.37   236.91
eigval :      241.39   243.62   253.73   263.05   274.59   278.13
eigval :      301.12   327.21   343.83   353.92   365.90   366.43
eigval :      369.15   370.53   374.77   376.02   379.13   380.58
eigval :      383.05   390.95   396.47   401.38   411.33   422.63
eigval :      432.56   441.40   452.21   460.32   465.46   477.14
eigval :      484.49   490.19   497.00   503.94   510.02   518.75
eigval :      520.87   527.43   545.97   555.71   582.63   583.94
eigval :      584.78   587.69   589.41   596.86   599.45   618.66
eigval :      621.63   624.48   635.49   639.59   644.57   646.99
eigval :      656.43   660.51   662.93   667.48   672.29   674.41
eigval :      675.95   681.79   684.51   688.79   700.72   708.67
eigval :      729.97   731.40   751.73   755.46   757.61   759.32
eigval :      763.85   775.30   782.11   794.38   799.22   815.45
eigval :      816.63   817.78   829.99   852.73   862.46   868.42
eigval :      868.71   875.45   876.17   899.53   901.22   902.18
eigval :      903.87   907.62   909.94   910.43   911.94   912.81
eigval :      915.72   917.54   918.30   921.95   922.88   925.22
eigval :      927.78   928.90   929.17   931.31   932.77   934.01
eigval :      937.56   941.04   948.02   964.74   970.99   979.27
eigval :      989.32   999.07  1007.93  1019.79  1029.87  1033.82
eigval :     1057.43  1059.60  1076.59  1078.79  1080.42  1083.60
eigval :     1097.98  1099.95  1105.63  1115.33  1116.69  1118.90
eigval :     1133.74  1134.37  1138.85  1150.75  1153.85  1159.07
eigval :     1167.99  1175.80  1177.93  1178.31  1178.43  1181.80
eigval :     1185.49  1187.22  1192.17  1197.48  1204.03  1207.74
eigval :     1208.80  1235.15  1240.83  1250.48  1252.71  1259.89
eigval :     1261.81  1266.57  1273.58  1274.30  1277.21  1277.89
eigval :     1284.07  1292.25  1303.20  1305.90  1312.69  1314.91
eigval :     1320.36  1325.12  1327.53  1332.67  1335.00  1335.48
eigval :     1349.31  1363.26  1375.03  1390.87  1399.94  1407.97
eigval :     1412.22  1413.79  1421.16  1423.99  1427.95  1431.34
eigval :     1433.27  1434.68  1442.23  1444.84  1451.69  1459.41
eigval :     1468.91  1472.02  1478.59  1480.84  1485.07  1499.52
eigval :     1503.57  1518.83  1522.48  1540.92  1542.85  1550.83
eigval :     1568.26  1568.67  1574.11  1578.82  1581.94  1583.29
eigval :     1585.59  1587.52  1589.86  1592.80  3070.93  3073.69
eigval :     3074.69  3075.60  3076.46  3077.61  3081.68  3083.43
eigval :     3083.75  3083.80  3084.77  3085.33  3087.57  3087.88
eigval :     3088.60  3090.22  3090.31  3092.52  3094.06  3095.29
eigval :     3095.64  3095.81  3097.35  3097.91  3100.21  3101.20
eigval :     3101.85  3102.71  3104.91  3105.81  3106.84  3107.53
eigval :     3109.78  3111.91  3127.64

   temp. (K)  partition function   enthalpy   heat capacity  entropy
                                   cal/mol     cal/K/mol   cal/K/mol   J/K/mol
 298.15  VIB  0.579E+26            29854.959    182.507    190.687
         ROT  0.273E+09              888.752      2.981     41.586
         INT  0.158E+35            30743.711    185.488    232.273
         TR   0.223E+29             1481.254      4.968     45.928
         TOT                       32224.9654   190.4560   278.2016  1163.9956

       T/K    H(0)-H(T)+PV         H(T)/Eh          T*S/Eh         G(T)/Eh
   ------------------------------------------------------------------------
    298.15    0.513538E-01    0.773452E+00    0.132183E+00    0.641270E+00
   ------------------------------------------------------------------------

         :::::::::::::::::::::::::::::::::::::::::::::::::::::
         ::                  THERMODYNAMIC                  ::
         :::::::::::::::::::::::::::::::::::::::::::::::::::::
         :: total free energy        -160.940486582922 Eh   ::
         ::.................................................::
         :: total energy             -161.581756130436 Eh   ::
         :: zero point energy           0.722098364615 Eh   ::
         :: G(RRHO) w/o ZPVE           -0.080828817101 Eh   ::
         :: G(RRHO) contrib.            0.641269547515 Eh   ::
         :::::::::::::::::::::::::::::::::::::::::::::::::::::

           -------------------------------------------------
          | TOTAL ENERGY             -161.581756130436 Eh   |
          | TOTAL ENTHALPY           -160.808304014717 Eh   |
          | TOTAL FREE ENERGY        -160.940486582922 Eh   |
          | GRADIENT NORM               0.000038218534 Eh/α |
          | HOMO-LUMO GAP               0.434601473566 eV   |
           -------------------------------------------------

 * finished run on 2025/08/26 at 03:44:13.370
