   * xtb version 6.7.1 (edcfbbe) compiled by 'albert@albert-system' on 2024-07-22

   ID    Z sym.   atoms
    1    9 F      1, 3, 4
    2    6 C      2, 5-8, 10-19, 21-34, 36-45, 47-62
    3    7 N      9, 20, 35, 46
    4    1 H      63-97

          program call               : xtb data2507/toluene/PPI-PIM-1/PPI-PIM-1.xyz --gfn 2 --gbsa toluene --ohess vtight --parallel 40 --molden --ceasefiles --namespace data2507/toluene/PPI-PIM-1/PPI-PIM-1_toluene_S0_preOpt
      * Solvation model:               GBSA
        Solvent                        toluene
        Solvent mass                       9.2140E+01 g/mol
          :  Hamiltonian                  GFN2-xTB          :
 * total energy  :  -161.6372106 Eh     change       -0.4598348E-08 Eh
 * total energy  :  -161.6508443 Eh     change       -0.1363370E-01 Eh
 * total energy  :  -161.6545839 Eh     change       -0.3739638E-02 Eh
 * total energy  :  -161.6558366 Eh     change       -0.1252702E-02 Eh
 * total energy  :  -161.6566987 Eh     change       -0.8620419E-03 Eh
 * total energy  :  -161.6571597 Eh     change       -0.4610446E-03 Eh
 * total energy  :  -161.6575076 Eh     change       -0.3478636E-03 Eh
 * total energy  :  -161.6578502 Eh     change       -0.3425629E-03 Eh
 * total energy  :  -161.6581599 Eh     change       -0.3097807E-03 Eh
 * total energy  :  -161.6584748 Eh     change       -0.3148378E-03 Eh
 * total energy  :  -161.6624613 Eh     change       -0.1110915E-05 Eh
 * total energy  :  -161.6624624 Eh     change       -0.1185885E-05 Eh
 * total energy  :  -161.6624636 Eh     change       -0.1157147E-05 Eh
 * total energy  :  -161.6624646 Eh     change       -0.1038154E-05 Eh
 * total energy  :  -161.6624655 Eh     change       -0.8319961E-06 Eh
 * total energy  :  -161.6624661 Eh     change       -0.6415409E-06 Eh
 * total energy  :  -161.6624667 Eh     change       -0.5994811E-06 Eh
 * total energy  :  -161.6624673 Eh     change       -0.6397037E-06 Eh
 * total energy  :  -161.6624673 Eh     change       -0.2735959E-08 Eh
   *** GEOMETRY OPTIMIZATION CONVERGED AFTER 260 ITERATIONS ***

 final structure:
================
97
 xtb: 6.7.1 (edcfbbe)
F           -4.19353810493386       -4.61585157178157       -4.08622528734924
C           -4.51107983445518       -4.85210862983052       -2.79977318569462
F           -5.53611528841114       -5.73454711641659       -2.83646892800120
F           -3.47252723879753       -5.52064354958438       -2.27406900389401
C           -4.86239205973227       -3.60378335818193       -2.04633022230732
C           -4.48839506790036       -3.46077887873621       -0.71604915992990
C           -4.84275823939196       -2.31650243197943       -0.02672534465499
C           -5.57338995541555       -1.31819150668500       -0.66526597515336
N           -5.90230804585195       -0.14234448487706        0.02839905031627
C           -4.98713956723439        0.74683597543871        0.56043648420714
C           -3.54267476272745        0.58567072435209        0.49785340944050
C           -2.88625440266043        0.09169951321631       -0.62840521049393
C           -1.51133924869945       -0.03154424845908       -0.63633142954074
C           -0.75141045678706        0.33019518314381        0.47479453740134
C            0.70989940109526        0.17891700448661        0.47043615132307
C            1.37779214238093       -0.30495034339525        1.59570105593183
C            2.74871119228884       -0.44969429323040        1.59397419235715
C            3.49915736149231       -0.09892093677699        0.47063621211288
C            4.93972917827756       -0.28514847235512        0.51236259133074
N            5.52128946219528       -1.26405235286823        1.16302406669650
C            6.86053651764267       -1.15244699860519        0.93993258094262
C            7.79611532555110       -2.08218528202548        1.55673016509333
C            7.36228335753893       -3.36872364952267        1.87590647935795
C            8.22399931822667       -4.27399126537150        2.46466366985198
C            9.53003042375183       -3.90815482065216        2.74935272627009
C            9.96438569992508       -2.62656692837220        2.45133230367297
C            9.10559885109614       -1.71633622308684        1.86378057447621
C            7.09977007754599       -0.06329992063594        0.11765887117635
C            8.33893800560062        0.47488590243217       -0.43094391643343
C            9.23658255851901       -0.37272068513169       -1.07994345503862
C           10.40982593655730        0.12779950750322       -1.61145732973553
C           10.70280580930114        1.47857784679475       -1.50643764049982
C            9.81911366279686        2.32591926077428       -0.85889216313430
C            8.64440656910760        1.83052832979090       -0.32323340345647
N            5.86352864973534        0.48785172918653       -0.14192233013131
C            5.62615598687139        1.65507121459755       -0.89499575044978
C            4.91921196603321        2.70940872087788       -0.32643883613237
C            4.69460397571272        3.85887181718174       -1.06165990027454
C            5.17875592761584        3.96478571188473       -2.35565903218383
C            5.88463669616996        2.91436245021751       -2.91876240715359
C            6.10957558481985        1.75740245321421       -2.19439348753370
C            2.83401073224733        0.36945501651151       -0.66185717729991
C            1.46027716986151        0.50389706044875       -0.65835334346427
C           -1.41084834068871        0.84599000377540        1.59077136750676
C           -2.78290043248584        0.98031240935841        1.60008424330914
N           -5.57098055067115        1.77523518633810        1.11826510809099
C           -6.90888048057373        1.58471453439231        0.95909400968204
C           -7.96554090444689        2.45369918457108        1.35218671530032
C           -7.70534114409167        3.67835733180421        1.97728538785351
C           -8.73711872837008        4.52083443318771        2.30938330556126
C          -10.04717877351987        4.14781590240910        2.01354594387993
C          -10.31514660889055        2.94328341998464        1.40565496631526
C           -9.28890214890077        2.04923343639919        1.06152546153153
C           -9.54166164092665        0.75226791139766        0.45677823931885
C          -10.84614925348254        0.28104651890732        0.24744148118953
C          -11.09735069682255       -0.96487680126634       -0.27718351542793
C          -10.04164918653205       -1.81196008238833       -0.60024916794741
C           -8.74891494977507       -1.38571283388783       -0.41842827825658
C           -8.47018595983871       -0.10583075634779        0.08322589481753
C           -7.15032398201852        0.38684073156160        0.29122150703816
C           -5.94528585232656       -1.46761535490585       -2.00121989204916
C           -5.59411863891110       -2.61101257429224       -2.69042509974258
H           -3.92307279355297       -4.23754631450667       -0.22553900438588
H           -4.55587661766505       -2.19261625675264        1.00579392793320
H           -3.44614223838849       -0.17806598630871       -1.51124161666385
H           -1.02037747433459       -0.43083322445246       -1.51138342937882
H            0.81192047372498       -0.58925551383820        2.47049909933786
H            3.26575277182680       -0.83693749394241        2.45867908082162
H            6.34115943105121       -3.63892028881799        1.65247256624735
H            7.87717684214638       -5.26954660534698        2.70277644420221
H           10.20512318437810       -4.61666007055843        3.20717892700089
H           10.97797666439397       -2.33160937116379        2.68334177733970
H            9.44738458070289       -0.71410385575306        1.65085583721546
H            9.00294936512780       -1.42459682659298       -1.16281174523183
H           11.09661397735733       -0.53811586846082       -2.11334928276286
H           11.61877045813684        1.86825665573782       -1.92538468257044
H           10.04543012653130        3.37830604756307       -0.76760249325879
H            7.96541169998370        2.49441608405593        0.19267697542885
H            4.55133249062097        2.61948208987282        0.68527841998664
H            4.14485596938511        4.67549085739928       -0.61848560866293
H            5.00565336349564        4.86560461134466       -2.92465786201007
H            6.26231521629640        2.99230738608975       -3.92716388992596
H            6.65491792386827        0.93289911502661       -2.62918740084520
H            3.38844494705946        0.61400702604109       -1.55577681897580
H            0.96320424762187        0.88300240446378       -1.53905453572524
H           -0.83725614219989        1.16071559529962        2.44976726443341
H           -3.29178107898471        1.38928552452728        2.45946547554154
H           -6.67632676594092        3.93501081845061        2.17768887968740
H           -8.53970118341625        5.46777714822234        2.78997209616105
H          -10.86204361764403        4.81166747780310        2.26425758129595
H          -11.34363829777906        2.69976295087771        1.19224339185459
H          -11.68776217479600        0.89953510544461        0.51350438554504
H          -12.11613119310629       -1.29243218941443       -0.42323015347159
H          -10.23562853740472       -2.80190979533558       -0.98590712114324
H           -7.93552197532855       -2.05519740559098       -0.64740680249822
H           -6.51028297849532       -0.68782942334221       -2.48897346877850
H           -5.87677365834377       -2.73262148237390       -3.72463509317897

          :  Hamiltonian                  GFN2-xTB          :
         :: gradient norm              0.000040897579 Eh/a0 ::
         :: HOMO-LUMO gap              2.250971454797 eV    ::
         :: SCC energy              -164.433108081487 Eh    ::
         :: -> dispersion             -0.139810683773 Eh    ::
         :: -> Gsolv                  -0.064827592572 Eh    ::
         :: repulsion energy           2.770640733003 Eh    ::

    * Orbital Energies and Occupations

         #    Occupation            Energy/Eh            Energy/eV
      -------------------------------------------------------------
         1        2.0000           -0.8903521             -24.2277
       ...           ...                  ...                  ...
       136        2.0000           -0.4130790             -11.2405
       137        2.0000           -0.4112160             -11.1898
       138        2.0000           -0.4102011             -11.1621
       139        2.0000           -0.4086274             -11.1193
       140        2.0000           -0.4046693             -11.0116
       141        2.0000           -0.4009623             -10.9107
       142        2.0000           -0.3991367             -10.8611
       143        2.0000           -0.3931788             -10.6989
       144        2.0000           -0.3871960             -10.5361
       145        2.0000           -0.3854381             -10.4883
       146        2.0000           -0.3786134             -10.3026
       147        2.0000           -0.3702729             -10.0756
       148        2.0000           -0.3627276              -9.8703 (HOMO)
       149                         -0.2800060              -7.6194 (LUMO)
       150                         -0.2688518              -7.3158
       151                         -0.2651039              -7.2138
       152                         -0.2552561              -6.9459
       153                         -0.2525625              -6.8726
       154                         -0.2484400              -6.7604
       155                         -0.2405249              -6.5450
       156                         -0.2389127              -6.5011
       157                         -0.2345545              -6.3826
       158                         -0.2311011              -6.2886
       159                         -0.2282684              -6.2115
       ...                                ...                  ...
       283                          0.7204685              19.6049
      -------------------------------------------------------------
                  HL-Gap            0.0827217 Eh            2.2510 eV

     #   Z          covCN         q      C6AA      α(0)
     1   9 F        0.791    -0.215    11.393     3.987
     2   6 C        3.336     0.487    17.271     6.581
     3   9 F        0.791    -0.221    11.455     3.998
     4   9 F        0.791    -0.213    11.365     3.982
     5   6 C        2.976    -0.025    28.624     8.776
     6   6 C        2.919    -0.017    28.444     8.746
     7   6 C        2.922    -0.032    28.791     8.799
     8   6 C        2.911     0.079    26.227     8.398
     9   7 N        2.840    -0.047    22.140     6.988
    10   6 C        3.182     0.132    24.726     8.116
    11   6 C        2.974    -0.004    28.116     8.698
    12   6 C        2.920    -0.036    28.906     8.817
    13   6 C        2.923    -0.034    28.837     8.806
    14   6 C        2.976     0.015    27.680     8.630
    15   6 C        2.976     0.011    27.758     8.642
    16   6 C        2.923    -0.033    28.814     8.803
    17   6 C        2.925    -0.030    28.752     8.793
    18   6 C        2.974    -0.002    28.069     8.690
    19   6 C        3.158     0.128    24.917     8.161
    20   7 N        1.912    -0.316    29.024     7.988
    21   6 C        3.164     0.054    26.468     8.408
    22   6 C        2.973     0.006    27.885     8.662
    23   6 C        2.927    -0.032    28.789     8.799
    24   6 C        2.918    -0.031    28.779     8.797
    25   6 C        2.919    -0.034    28.836     8.806
    26   6 C        2.919    -0.031    28.785     8.798
    27   6 C        2.923    -0.039    28.967     8.826
    28   6 C        3.069     0.016    27.581     8.611
    29   6 C        2.971     0.006    27.882     8.661
    30   6 C        2.925    -0.033    28.821     8.804
    31   6 C        2.918    -0.028    28.711     8.787
    32   6 C        2.920    -0.031    28.768     8.796
    33   6 C        2.918    -0.030    28.737     8.791
    34   6 C        2.924    -0.034    28.850     8.808
    35   7 N        2.850    -0.045    22.097     6.982
    36   6 C        2.913     0.065    26.536     8.447
    37   6 C        2.922    -0.038    28.954     8.824
    38   6 C        2.920    -0.026    28.643     8.776
    39   6 C        2.919    -0.029    28.727     8.789
    40   6 C        2.920    -0.026    28.653     8.778
    41   6 C        2.921    -0.038    28.945     8.823
    42   6 C        2.920    -0.036    28.889     8.814
    43   6 C        2.923    -0.034    28.843     8.807
    44   6 C        2.923    -0.032    28.787     8.799
    45   6 C        2.925    -0.028    28.697     8.785
    46   7 N        1.894    -0.303    28.699     7.942
    47   6 C        3.202     0.060    26.106     8.325
    48   6 C        2.985    -0.001    28.052     8.688
    49   6 C        2.921    -0.033    28.814     8.803
    50   6 C        2.917    -0.031    28.767     8.795
    51   6 C        2.917    -0.033    28.822     8.804
    52   6 C        2.921    -0.036    28.890     8.814
    53   6 C        2.979    -0.003    28.096     8.695
    54   6 C        2.979     0.001    28.005     8.681
    55   6 C        2.922    -0.034    28.848     8.808
    56   6 C        2.916    -0.033    28.814     8.802
    57   6 C        2.917    -0.031    28.786     8.798
    58   6 C        2.919    -0.042    29.039     8.837
    59   6 C        2.978    -0.004    28.116     8.698
    60   6 C        3.067     0.018    27.532     8.604
    61   6 C        2.922    -0.030    28.755     8.794
    62   6 C        2.920    -0.018    28.467     8.749
    63   1 H        0.926     0.073     2.050     2.239
    64   1 H        0.926     0.067     2.115     2.274
    65   1 H        0.926     0.029     2.595     2.519
    66   1 H        0.926     0.042     2.428     2.436
    67   1 H        0.926     0.044     2.400     2.423
    68   1 H        0.926     0.047     2.361     2.403
    69   1 H        0.926     0.042     2.420     2.433
    70   1 H        0.926     0.031     2.566     2.505
    71   1 H        0.926     0.031     2.574     2.509
    72   1 H        0.926     0.030     2.592     2.518
    73   1 H        0.926     0.024     2.672     2.556
    74   1 H        0.926     0.029     2.596     2.519
    75   1 H        0.926     0.036     2.507     2.476
    76   1 H        0.926     0.036     2.502     2.474
    77   1 H        0.926     0.035     2.518     2.482
    78   1 H        0.926     0.026     2.648     2.545
    79   1 H        0.926     0.038     2.476     2.461
    80   1 H        0.926     0.047     2.359     2.402
    81   1 H        0.926     0.047     2.360     2.402
    82   1 H        0.926     0.046     2.374     2.410
    83   1 H        0.926     0.039     2.464     2.455
    84   1 H        0.926     0.029     2.598     2.521
    85   1 H        0.926     0.040     2.446     2.446
    86   1 H        0.926     0.046     2.364     2.404
    87   1 H        0.926     0.049     2.332     2.388
    88   1 H        0.926     0.046     2.370     2.408
    89   1 H        0.926     0.034     2.525     2.485
    90   1 H        0.926     0.034     2.535     2.490
    91   1 H        0.926     0.037     2.494     2.469
    92   1 H        0.926     0.040     2.452     2.449
    93   1 H        0.926     0.035     2.520     2.482
    94   1 H        0.926     0.033     2.539     2.492
    95   1 H        0.926     0.028     2.614     2.528
    96   1 H        0.926     0.070     2.081     2.256
    97   1 H        0.926     0.071     2.073     2.252

molecular dipole:
                 x           y           z       tot (Debye)
 q only:       -0.176       1.902      -0.258
   full:       -0.123       1.763      -0.696       4.827

 projected vibrational frequencies (cm⁻¹)
eigval :       -0.00    -0.00     0.00     0.00     0.00     0.00
eigval :       -9.41     7.51    10.21    14.73    16.67    17.93
eigval :       25.32    27.71    33.27    38.42    39.96    43.40
eigval :       47.83    56.55    63.37    67.40    72.23    77.25
eigval :       85.55    89.41    90.81    95.50   113.95   118.53
eigval :      127.27   129.15   131.63   150.79   167.85   180.65
eigval :      186.33   218.09   220.88   224.64   231.84   238.30
eigval :      245.48   246.54   262.68   265.82   273.30   276.82
eigval :      311.65   334.88   349.66   359.58   368.37   369.63
eigval :      370.20   371.50   374.65   376.00   377.18   381.64
eigval :      384.56   392.85   400.89   407.25   425.03   430.30
eigval :      440.65   451.05   462.83   472.78   480.66   483.38
eigval :      495.24   496.45   513.57   517.19   521.85   527.63
eigval :      534.31   539.71   552.70   558.81   584.82   585.54
eigval :      586.75   589.14   596.83   600.32   605.68   622.57
eigval :      630.21   639.84   642.13   652.00   652.65   656.73
eigval :      663.01   666.23   673.57   676.31   676.44   681.52
eigval :      685.42   693.90   694.78   702.62   710.19   716.40
eigval :      735.26   737.50   760.50   761.57   762.66   764.38
eigval :      765.60   783.05   785.00   804.47   808.11   827.58
eigval :      834.65   862.44   869.28   869.94   874.07   874.21
eigval :      876.08   876.99   877.71   899.82   900.07   903.05
eigval :      907.22   913.58   914.06   915.95   922.16   924.30
eigval :      926.38   926.58   927.20   928.39   928.55   929.26
eigval :      930.07   931.73   932.15   933.03   937.98   942.01
eigval :      943.62   955.29   972.78   978.86   990.67   996.12
eigval :     1010.97  1017.16  1026.29  1033.38  1038.60  1065.48
eigval :     1067.98  1078.44  1079.47  1080.71  1082.63  1084.06
eigval :     1107.04  1109.26  1117.33  1117.85  1119.80  1130.05
eigval :     1134.22  1136.89  1141.46  1150.07  1164.06  1170.00
eigval :     1178.56  1179.62  1180.94  1181.98  1183.78  1186.82
eigval :     1190.95  1194.13  1194.32  1199.01  1202.03  1206.30
eigval :     1215.44  1243.95  1253.76  1257.57  1261.45  1266.39
eigval :     1267.57  1271.44  1276.12  1281.27  1281.71  1282.00
eigval :     1288.39  1308.16  1313.22  1314.56  1315.74  1317.73
eigval :     1318.17  1319.30  1323.98  1332.37  1337.05  1344.41
eigval :     1363.64  1370.63  1389.58  1396.26  1404.80  1406.06
eigval :     1409.10  1416.13  1427.54  1427.95  1432.52  1433.82
eigval :     1434.86  1448.96  1457.81  1474.06  1479.99  1486.08
eigval :     1489.70  1511.27  1514.16  1532.38  1541.69  1554.79
eigval :     1557.27  1560.86  1564.16  1568.20  1570.82  1577.34
eigval :     1579.94  1584.07  1586.45  1587.49  1592.58  1593.04
eigval :     1596.11  1598.39  1599.81  1603.14  3065.73  3068.85
eigval :     3071.40  3071.42  3072.15  3075.03  3078.11  3079.04
eigval :     3080.12  3080.92  3081.66  3081.76  3081.90  3082.78
eigval :     3083.51  3085.04  3085.09  3087.94  3088.65  3090.83
eigval :     3092.82  3092.86  3093.98  3095.78  3097.64  3097.96
eigval :     3098.75  3099.76  3100.04  3101.26  3102.13  3107.21
eigval :     3111.00  3111.59  3115.11

   temp. (K)  partition function   enthalpy   heat capacity  entropy
                                   cal/mol     cal/K/mol   cal/K/mol   J/K/mol
 298.15  VIB  0.148E+26            29583.410    180.357    188.144
         ROT  0.271E+09              888.752      2.981     41.571
         INT  0.402E+34            30472.162    183.338    229.716
         TR   0.223E+29             1481.254      4.968     45.928
         TOT                       31953.4159   188.3059   275.6443  1153.2957

       T/K    H(0)-H(T)+PV         H(T)/Eh          T*S/Eh         G(T)/Eh
   ------------------------------------------------------------------------
    298.15    0.509210E-01    0.777314E+00    0.130967E+00    0.646347E+00
   ------------------------------------------------------------------------

         :::::::::::::::::::::::::::::::::::::::::::::::::::::
         ::                  THERMODYNAMIC                  ::
         :::::::::::::::::::::::::::::::::::::::::::::::::::::
         :: total free energy        -161.016120502538 Eh   ::
         ::.................................................::
         :: total energy             -161.662467347622 Eh   ::
         :: zero point energy           0.726393329872 Eh   ::
         :: G(RRHO) w/o ZPVE           -0.080046484788 Eh   ::
         :: G(RRHO) contrib.            0.646346845084 Eh   ::
         :::::::::::::::::::::::::::::::::::::::::::::::::::::

           -------------------------------------------------
          | TOTAL ENERGY             -161.662467347622 Eh   |
          | TOTAL ENTHALPY           -160.885153008291 Eh   |
          | TOTAL FREE ENERGY        -161.016120502538 Eh   |
          | GRADIENT NORM               0.000040892506 Eh/α |
          | HOMO-LUMO GAP               2.250971123765 eV   |
           -------------------------------------------------

 * finished run on 2025/08/26 at 03:30:50.998
