   * xtb version 6.7.1 (edcfbbe) compiled by 'albert@albert-system' on 2024-07-22

   ID    Z sym.   atoms
    1    9 F      1, 3, 4
    2    6 C      2, 5-8, 10-19, 21-34, 36-45, 47-62
    3    7 N      9, 20, 35, 46
    4    1 H      63-97

          program call               : xtb data2507/toluene/PPI-PIM-1/PPI-PIM-1_toluene_S0_crest.xyz --gfn 2 --gbsa toluene --ohess vtight --parallel 40 --molden --ceasefiles --namespace data2507/toluene/PPI-PIM-1/PPI-PIM-1_toluene_S0_finalOpt
      * Solvation model:               GBSA
        Solvent                        toluene
        Solvent mass                       9.2140E+01 g/mol
          :  Hamiltonian                  GFN2-xTB          :
 * total energy  :  -161.6622464 Eh     change       -0.5279475E-08 Eh
 * total energy  :  -161.6623219 Eh     change       -0.7548467E-04 Eh
 * total energy  :  -161.6623563 Eh     change       -0.3439275E-04 Eh
 * total energy  :  -161.6623687 Eh     change       -0.1238828E-04 Eh
 * total energy  :  -161.6623840 Eh     change       -0.1536915E-04 Eh
 * total energy  :  -161.6623959 Eh     change       -0.1183214E-04 Eh
 * total energy  :  -161.6624036 Eh     change       -0.7729385E-05 Eh
 * total energy  :  -161.6624088 Eh     change       -0.5257449E-05 Eh
 * total energy  :  -161.6624134 Eh     change       -0.4589526E-05 Eh
 * total energy  :  -161.6624175 Eh     change       -0.4076274E-05 Eh
 * total energy  :  -161.6624920 Eh     change       -0.2021502E-05 Eh
 * total energy  :  -161.6624939 Eh     change       -0.1969813E-05 Eh
 * total energy  :  -161.6624959 Eh     change       -0.1974887E-05 Eh
 * total energy  :  -161.6624980 Eh     change       -0.2115011E-05 Eh
 * total energy  :  -161.6625001 Eh     change       -0.2032141E-05 Eh
 * total energy  :  -161.6625019 Eh     change       -0.1793060E-05 Eh
 * total energy  :  -161.6625031 Eh     change       -0.1230907E-05 Eh
 * total energy  :  -161.6625038 Eh     change       -0.6806996E-06 Eh
 * total energy  :  -161.6625038 Eh     change       -0.8540781E-08 Eh
   *** GEOMETRY OPTIMIZATION CONVERGED AFTER 44 ITERATIONS ***

 final structure:
================
97
 xtb: 6.7.1 (edcfbbe)
F           -3.61990028497315       -5.72446898349516        0.16996230410047
C           -3.94456360426707       -5.00357468796397        1.25932745431718
F           -4.94677936022058       -5.68601458581708        1.85931100248565
F           -2.89459435279353       -5.08984843193657        2.09149070247605
C           -4.33401763203301       -3.59287608820308        0.93126416376108
C           -3.97305344902101       -2.55193981151154        1.77754994077390
C           -4.36296448690408       -1.26076743414315        1.47599514370886
C           -5.11613420885528       -1.01115690119514        0.33198327119008
N           -5.48203444952711        0.30609541015013        0.01086855589359
C           -4.59771952710682        1.33555030098456       -0.25402549463944
C           -3.14882310751910        1.21701980974337       -0.21975004372084
C           -2.46828218560988        0.08081764736971       -0.65531850903365
C           -1.08986935615650        0.02977682839804       -0.60128100730332
C           -0.34882152019984        1.10602940326936       -0.11558065233808
C            1.11689807085627        1.04137491768952       -0.04758923764752
C            1.80531153286531        1.57166720530839        1.04405261144494
C            3.18029101915422        1.50172647416040        1.11255891933055
C            3.91409441395781        0.90068519722548        0.08833461419116
C            5.36232524540067        0.87375687161696        0.19679324096491
N            6.05808279664850        1.81649659743107        0.78619868422582
C            7.37296766463481        1.48764003754301        0.65123805780905
C            8.41246795551728        2.32348130629879        1.23476229038025
C            8.16076067272892        3.68096197129642        1.43306876927245
C            9.12596129648139        4.50025454277429        1.98615627875602
C           10.35587906740742        3.97777279209775        2.35360549252525
C           10.60765589571476        2.62666344470670        2.17743287510070
C            9.64418870335795        1.80189791587383        1.62730073134682
C            7.47868068313581        0.29879657013507       -0.05282825930934
C            8.64357569312631       -0.46358328156951       -0.48685934685366
C            8.74451573672473       -1.83067319917540       -0.23542432061321
C            9.85229205214743       -2.53892378609972       -0.66403136584718
C           10.87125616955726       -1.89524424216076       -1.34634426545318
C           10.78080637751719       -0.53473479108983       -1.59593931575809
C            9.67539813622605        0.17784208893903       -1.17199640313273
N            6.18541507510037       -0.08839866549154       -0.32927585397311
C            5.80861955702233       -1.27909667378934       -0.98196554034996
C            6.32221654147008       -1.57807828138710       -2.23873849920900
C            5.95861126778679       -2.75759695400239       -2.86356704991922
C            5.08373105078976       -3.63483258637425       -2.24410941620300
C            4.57077120062360       -3.33316775050897       -0.99268366032845
C            4.93321731857128       -2.16037863063335       -0.35597425808538
C            3.23181782129244        0.39643014749682       -1.01853629877908
C            1.85452160612579        0.45988404697235       -1.07781247629462
C           -1.03271535991413        2.25112242814307        0.29406297937648
C           -2.40864632729383        2.30944132001084        0.23636465556149
N           -5.21766972449135        2.44638363930832       -0.55779335932604
C           -6.54784466366634        2.16687464091109       -0.50258043039695
C           -7.63423528519979        3.03880926156912       -0.79510142020381
C           -7.41662778497190        4.36099240361914       -1.19833474630207
C           -8.47734249922186        5.17324876277357       -1.51409225865059
C           -9.77367068784618        4.66689123260988       -1.43645309284871
C           -9.99965130036576        3.37098189581883       -1.03421235470541
C           -8.94280547548337        2.51357175343191       -0.68951575410593
C           -9.15019130716840        1.15497837236939       -0.21720049023432
C          -10.43750358032719        0.63741940264180       -0.01094668283724
C          -10.64526230075347       -0.62729946793064        0.48711967566500
C           -9.56079966684430       -1.43163200816553        0.82385315275073
C           -8.28367048614898       -0.96669660490370        0.62730060005155
C           -8.04945038847548        0.30704753028598        0.08862732818235
C           -6.74761091865656        0.83770706483258       -0.13828239615194
C           -5.47558938473718       -2.06071517494206       -0.51340940131430
C           -5.08926245560396       -3.35126238286611       -0.21201749556390
H           -3.39020878230942       -2.75064881935576        2.66320974982325
H           -4.08616265560596       -0.44334028535033        2.12324614921940
H           -3.01168516019108       -0.75988300844478       -1.05932354422469
H           -0.58022448703702       -0.86505795151850       -0.92662384923131
H            1.25298471621043        2.02126724703556        1.85580351848610
H            3.71404762520742        1.90860447760054        1.95779541922518
H            7.19747863620114        4.07413487059084        1.14488193453543
H            8.92022603028211        5.55142434059661        2.13032303836214
H           11.11281849978344        4.61872639802696        2.78209616960584
H           11.55967140217634        2.21073011343823        2.47546119757557
H            9.84238873614659        0.74657343285546        1.51075049952169
H            7.95939911702741       -2.33606372265237        0.30881586636541
H            9.92014865030655       -3.59781618535233       -0.46105734974518
H           11.73502546141451       -2.45103161347542       -1.68010541533910
H           11.57317221633915       -0.02732891474249       -2.12668762160012
H            9.59962088188507        1.23801382116503       -1.36716202858768
H            6.99890899245116       -0.88666874459398       -2.71862319988069
H            6.35962195384577       -2.98804775312632       -3.83902775165451
H            4.80198060611713       -4.55363805055943       -2.73567905682036
H            3.89002827491106       -4.01516750772719       -0.50578190370436
H            4.54353554795112       -1.91912644626867        0.62230311316680
H            3.77851230556026       -0.02866491596384       -1.84696840788203
H            1.34453287238891        0.07968495317889       -1.95063391186447
H           -0.47590360079464        3.10863409242865        0.64104030765709
H           -2.93699279878131        3.19873908484365        0.54400221160651
H           -6.39703014268841        4.71016568165542       -1.25756433365886
H           -8.31310134746597        6.19425400889007       -1.82586322021558
H          -10.61113369500171        5.29929223563274       -1.69397179877947
H          -11.01926463545496        3.02266470734867       -0.99243253096440
H          -11.30025626334111        1.24344081606976       -0.23467151353045
H          -11.65203666848706       -0.99043438108716        0.63243232779306
H           -9.72037425150321       -2.41436272386787        1.24237181615615
H           -7.44761479586270       -1.58532936530771        0.91107291980403
H           -6.05827633243371       -1.85764887628335       -1.39907325809231
H           -5.36191763133153       -4.16793760352732       -0.86237011165696

          :  Hamiltonian                  GFN2-xTB          :
         :: gradient norm              0.000060711089 Eh/a0 ::
         :: HOMO-LUMO gap              2.236911403131 eV    ::
         :: SCC energy              -164.433028340005 Eh    ::
         :: -> dispersion             -0.139916880478 Eh    ::
         :: -> Gsolv                  -0.064630463741 Eh    ::
         :: repulsion energy           2.770524557521 Eh    ::

    * Orbital Energies and Occupations

         #    Occupation            Energy/Eh            Energy/eV
      -------------------------------------------------------------
         1        2.0000           -0.8910304             -24.2462
       ...           ...                  ...                  ...
       136        2.0000           -0.4129957             -11.2382
       137        2.0000           -0.4118042             -11.2058
       138        2.0000           -0.4103089             -11.1651
       139        2.0000           -0.4090387             -11.1305
       140        2.0000           -0.4048406             -11.0163
       141        2.0000           -0.4008008             -10.9063
       142        2.0000           -0.3988509             -10.8533
       143        2.0000           -0.3931641             -10.6985
       144        2.0000           -0.3870868             -10.5332
       145        2.0000           -0.3853740             -10.4866
       146        2.0000           -0.3786639             -10.3040
       147        2.0000           -0.3702165             -10.0741
       148        2.0000           -0.3625849              -9.8664 (HOMO)
       149                         -0.2803799              -7.6295 (LUMO)
       150                         -0.2694959              -7.3334
       151                         -0.2655216              -7.2252
       152                         -0.2554560              -6.9513
       153                         -0.2526436              -6.8748
       154                         -0.2484467              -6.7606
       155                         -0.2407749              -6.5518
       156                         -0.2393070              -6.5119
       157                         -0.2349683              -6.3938
       158                         -0.2307889              -6.2801
       159                         -0.2283936              -6.2149
       ...                                ...                  ...
       283                          0.7205160              19.6062
      -------------------------------------------------------------
                  HL-Gap            0.0822050 Eh            2.2369 eV

     #   Z          covCN         q      C6AA      α(0)
     1   9 F        0.791    -0.215    11.392     3.987
     2   6 C        3.336     0.487    17.271     6.581
     3   9 F        0.791    -0.221    11.455     3.998
     4   9 F        0.791    -0.213    11.365     3.982
     5   6 C        2.976    -0.025    28.625     8.776
     6   6 C        2.919    -0.017    28.446     8.746
     7   6 C        2.922    -0.032    28.788     8.799
     8   6 C        2.911     0.080    26.222     8.397
     9   7 N        2.840    -0.047    22.144     6.989
    10   6 C        3.181     0.131    24.736     8.119
    11   6 C        2.974    -0.004    28.119     8.698
    12   6 C        2.920    -0.037    28.918     8.818
    13   6 C        2.924    -0.034    28.845     8.807
    14   6 C        2.976     0.014    27.684     8.631
    15   6 C        2.976     0.011    27.762     8.643
    16   6 C        2.923    -0.033    28.815     8.803
    17   6 C        2.925    -0.030    28.754     8.794
    18   6 C        2.974    -0.002    28.072     8.691
    19   6 C        3.157     0.128    24.925     8.163
    20   7 N        1.912    -0.315    29.010     7.986
    21   6 C        3.163     0.054    26.470     8.409
    22   6 C        2.973     0.006    27.889     8.662
    23   6 C        2.927    -0.032    28.790     8.799
    24   6 C        2.918    -0.031    28.778     8.797
    25   6 C        2.919    -0.034    28.836     8.806
    26   6 C        2.919    -0.032    28.786     8.798
    27   6 C        2.923    -0.039    28.972     8.827
    28   6 C        3.069     0.016    27.578     8.611
    29   6 C        2.971     0.006    27.881     8.661
    30   6 C        2.924    -0.034    28.849     8.808
    31   6 C        2.918    -0.030    28.737     8.791
    32   6 C        2.920    -0.031    28.767     8.795
    33   6 C        2.918    -0.028    28.710     8.787
    34   6 C        2.925    -0.033    28.818     8.803
    35   7 N        2.850    -0.045    22.098     6.982
    36   6 C        2.913     0.066    26.532     8.446
    37   6 C        2.921    -0.038    28.943     8.822
    38   6 C        2.920    -0.026    28.651     8.778
    39   6 C        2.919    -0.029    28.729     8.790
    40   6 C        2.920    -0.026    28.647     8.777
    41   6 C        2.922    -0.038    28.954     8.824
    42   6 C        2.920    -0.036    28.896     8.815
    43   6 C        2.923    -0.034    28.847     8.808
    44   6 C        2.923    -0.032    28.786     8.799
    45   6 C        2.926    -0.028    28.696     8.785
    46   7 N        1.894    -0.303    28.701     7.942
    47   6 C        3.201     0.060    26.108     8.325
    48   6 C        2.985    -0.001    28.053     8.688
    49   6 C        2.921    -0.033    28.812     8.802
    50   6 C        2.917    -0.031    28.766     8.795
    51   6 C        2.917    -0.033    28.821     8.803
    52   6 C        2.921    -0.036    28.890     8.814
    53   6 C        2.979    -0.003    28.096     8.695
    54   6 C        2.979     0.001    28.005     8.681
    55   6 C        2.922    -0.034    28.848     8.808
    56   6 C        2.916    -0.033    28.814     8.802
    57   6 C        2.917    -0.032    28.787     8.798
    58   6 C        2.919    -0.042    29.041     8.837
    59   6 C        2.978    -0.004    28.117     8.698
    60   6 C        3.067     0.018    27.530     8.604
    61   6 C        2.922    -0.030    28.753     8.793
    62   6 C        2.920    -0.018    28.466     8.749
    63   1 H        0.926     0.073     2.049     2.239
    64   1 H        0.926     0.067     2.115     2.274
    65   1 H        0.926     0.030     2.593     2.518
    66   1 H        0.926     0.042     2.423     2.434
    67   1 H        0.926     0.044     2.399     2.422
    68   1 H        0.926     0.047     2.357     2.401
    69   1 H        0.926     0.043     2.412     2.429
    70   1 H        0.926     0.032     2.563     2.503
    71   1 H        0.926     0.031     2.574     2.509
    72   1 H        0.926     0.029     2.595     2.519
    73   1 H        0.926     0.024     2.674     2.557
    74   1 H        0.926     0.025     2.652     2.547
    75   1 H        0.926     0.035     2.521     2.483
    76   1 H        0.926     0.036     2.501     2.473
    77   1 H        0.926     0.036     2.504     2.474
    78   1 H        0.926     0.030     2.591     2.517
    79   1 H        0.926     0.039     2.459     2.452
    80   1 H        0.926     0.046     2.371     2.408
    81   1 H        0.926     0.047     2.363     2.404
    82   1 H        0.926     0.046     2.369     2.407
    83   1 H        0.926     0.038     2.477     2.461
    84   1 H        0.926     0.029     2.598     2.520
    85   1 H        0.926     0.040     2.449     2.447
    86   1 H        0.926     0.046     2.364     2.404
    87   1 H        0.926     0.050     2.326     2.385
    88   1 H        0.926     0.046     2.371     2.408
    89   1 H        0.926     0.034     2.525     2.485
    90   1 H        0.926     0.034     2.534     2.490
    91   1 H        0.926     0.037     2.493     2.469
    92   1 H        0.926     0.040     2.452     2.449
    93   1 H        0.926     0.035     2.520     2.482
    94   1 H        0.926     0.033     2.539     2.492
    95   1 H        0.926     0.028     2.615     2.529
    96   1 H        0.926     0.070     2.082     2.256
    97   1 H        0.926     0.071     2.073     2.251

molecular dipole:
                 x           y           z       tot (Debye)
 q only:       -0.323      -0.258      -0.836
   full:       -0.292      -1.001      -0.897       3.495

 projected vibrational frequencies (cm⁻¹)
eigval :       -0.00    -0.00    -0.00    -0.00     0.00     0.00
eigval :        4.16     5.95    10.58    14.80    15.54    17.19
eigval :       22.30    30.05    33.52    34.59    42.06    46.54
eigval :       48.63    56.30    61.31    67.81    70.46    75.85
eigval :       83.56    89.37    91.41    96.26   114.81   118.96
eigval :      125.00   129.51   135.98   153.97   167.94   180.34
eigval :      185.47   217.48   222.28   227.40   232.71   234.28
eigval :      243.87   250.13   259.27   267.82   272.75   276.90
eigval :      313.74   335.72   347.67   362.92   369.14   370.18
eigval :      371.16   374.53   375.88   376.76   379.57   382.20
eigval :      391.61   392.96   400.77   404.33   423.63   430.74
eigval :      439.03   454.45   463.91   471.43   480.24   485.43
eigval :      491.74   497.91   508.13   517.43   521.91   529.54
eigval :      534.57   545.41   548.42   559.46   584.90   585.37
eigval :      586.41   589.05   598.27   600.77   604.90   621.54
eigval :      630.52   639.66   642.83   650.49   653.61   656.96
eigval :      662.62   666.58   672.33   675.80   677.48   682.57
eigval :      686.67   692.40   694.40   704.81   710.01   716.48
eigval :      734.99   736.87   756.48   762.51   763.72   765.99
eigval :      767.01   782.94   784.96   803.64   809.44   829.54
eigval :      834.09   861.51   868.75   872.18   875.25   875.78
eigval :      876.68   877.28   877.91   895.97   901.69   902.68
eigval :      906.17   913.43   915.26   917.35   921.99   924.40
eigval :      926.68   927.17   927.99   929.34   929.50   930.05
eigval :      931.02   932.22   933.84   934.42   938.03   942.05
eigval :      943.72   955.30   972.73   979.04   991.03   996.26
eigval :     1010.96  1017.27  1026.28  1033.39  1038.36  1065.46
eigval :     1067.63  1078.35  1079.53  1081.12  1082.87  1084.78
eigval :     1106.72  1109.59  1116.92  1118.48  1119.83  1129.73
eigval :     1135.44  1136.03  1142.66  1150.10  1164.30  1169.81
eigval :     1177.74  1178.31  1179.90  1180.02  1183.62  1185.78
eigval :     1190.46  1195.09  1195.79  1200.78  1202.92  1206.30
eigval :     1215.99  1243.99  1253.11  1256.89  1261.18  1266.94
eigval :     1267.55  1272.05  1276.10  1280.20  1281.52  1282.66
eigval :     1288.78  1308.38  1312.79  1314.28  1316.19  1317.66
eigval :     1319.05  1319.34  1324.25  1332.42  1336.70  1344.51
eigval :     1363.69  1370.68  1390.11  1396.64  1405.00  1405.90
eigval :     1409.64  1416.44  1427.29  1427.42  1432.67  1433.09
eigval :     1434.50  1448.93  1457.73  1473.81  1479.81  1486.00
eigval :     1489.61  1510.84  1513.65  1531.79  1540.64  1554.56
eigval :     1556.76  1560.63  1564.11  1568.09  1570.76  1576.92
eigval :     1579.78  1583.71  1586.47  1587.03  1592.56  1592.82
eigval :     1596.01  1598.35  1600.04  1603.02  3065.50  3069.57
eigval :     3070.71  3071.02  3072.77  3075.06  3078.51  3078.91
eigval :     3080.16  3080.83  3081.39  3082.04  3082.07  3083.00
eigval :     3083.71  3085.24  3086.16  3088.52  3088.70  3092.16
eigval :     3092.54  3093.96  3095.03  3096.55  3097.39  3097.67
eigval :     3099.44  3100.18  3100.72  3101.63  3102.33  3107.10
eigval :     3110.50  3111.79  3115.20

   temp. (K)  partition function   enthalpy   heat capacity  entropy
                                   cal/mol     cal/K/mol   cal/K/mol   J/K/mol
 298.15  VIB  0.459E+26            29578.702    180.296    189.211
         ROT  0.265E+09              888.752      2.981     41.523
         INT  0.121E+35            30467.454    183.277    230.734
         TR   0.223E+29             1481.254      4.968     45.928
         TOT                       31948.7079   188.2454   276.6625  1157.5559

       T/K    H(0)-H(T)+PV         H(T)/Eh          T*S/Eh         G(T)/Eh
   ------------------------------------------------------------------------
    298.15    0.509135E-01    0.777381E+00    0.131451E+00    0.645930E+00
   ------------------------------------------------------------------------

         :::::::::::::::::::::::::::::::::::::::::::::::::::::
         ::                  THERMODYNAMIC                  ::
         :::::::::::::::::::::::::::::::::::::::::::::::::::::
         :: total free energy        -161.016574272752 Eh   ::
         ::.................................................::
         :: total energy             -161.662503786771 Eh   ::
         :: zero point energy           0.726467287071 Eh   ::
         :: G(RRHO) w/o ZPVE           -0.080537773052 Eh   ::
         :: G(RRHO) contrib.            0.645929514019 Eh   ::
         :::::::::::::::::::::::::::::::::::::::::::::::::::::

           -------------------------------------------------
          | TOTAL ENERGY             -161.662503786771 Eh   |
          | TOTAL ENTHALPY           -160.885122992821 Eh   |
          | TOTAL FREE ENERGY        -161.016574272752 Eh   |
          | GRADIENT NORM               0.000060724591 Eh/α |
          | HOMO-LUMO GAP               2.236911141240 eV   |
           -------------------------------------------------

 * finished run on 2025/08/26 at 03:36:38.513
