   * xtb version 6.7.1 (edcfbbe) compiled by 'albert@albert-system' on 2024-07-22

   ID    Z sym.   atoms
    1    6 C      1-6, 8-11, 13, 14, 16-39
    2    5 B      7
    3   35 Br     12
    4    7 N      15
    5    1 H      40-72

          program call               : xtb data2507/gas/CzBroB/CzBroB_gas_S0_crest.xyz --gfn 2 --ohess vtight --parallel 40 --molden --ceasefiles --namespace data2507/gas/CzBroB/CzBroB_gas_S0_finalOpt
          :  Hamiltonian                  GFN2-xTB          :
 * total energy  :  -102.2114199 Eh     change       -0.1200974E-08 Eh
 * total energy  :  -102.2114209 Eh     change       -0.1006697E-05 Eh
 * total energy  :  -102.2114213 Eh     change       -0.4565181E-06 Eh
 * total energy  :  -102.2114222 Eh     change       -0.9196998E-06 Eh
 * total energy  :  -102.2114231 Eh     change       -0.8078425E-06 Eh
 * total energy  :  -102.2114235 Eh     change       -0.4904107E-06 Eh
 * total energy  :  -102.2114239 Eh     change       -0.3152971E-06 Eh
 * total energy  :  -102.2114242 Eh     change       -0.3090387E-06 Eh
 * total energy  :  -102.2114246 Eh     change       -0.3819435E-06 Eh
 * total energy  :  -102.2114249 Eh     change       -0.3857555E-06 Eh
 * total energy  :  -102.2114293 Eh     change       -0.5529764E-06 Eh
 * total energy  :  -102.2114300 Eh     change       -0.6550067E-06 Eh
 * total energy  :  -102.2114307 Eh     change       -0.6769800E-06 Eh
 * total energy  :  -102.2114277 Eh     change        0.2934907E-05 Eh
 * total energy  :  -102.2114314 Eh     change       -0.3637887E-05 Eh
 * total energy  :  -102.2114315 Eh     change       -0.1690222E-06 Eh
 * total energy  :  -102.2114318 Eh     change       -0.2544396E-06 Eh
 * total energy  :  -102.2114319 Eh     change       -0.1296215E-06 Eh
 * total energy  :  -102.2114319 Eh     change       -0.4004875E-08 Eh
   *** GEOMETRY OPTIMIZATION CONVERGED AFTER 25 ITERATIONS ***

 final structure:
================
72
 xtb: 6.7.1 (edcfbbe)
C           -1.30381157338089        5.26064757313724       -1.22885452692037
C           -1.38841205240957        3.77450877630059       -1.06786841270360
C           -2.21638156816882        3.20411528923734       -0.11174045618852
C           -2.27921826981705        1.83373348838607        0.07117577228303
C           -3.23083446187497        1.28742390826521        1.09525529755497
C           -1.46904815926284        0.97604372922272       -0.69690304387617
B           -1.37357626358152       -0.54340693124293       -0.32988826691270
C            0.04377449576389       -1.20699551652455       -0.12213262454866
C            0.17102499433338       -2.57144473847312       -0.41710891505987
C            1.37643631959508       -3.24320794970052       -0.37452446453211
C            2.51223810260674       -2.54454693878277       -0.00245197696038
Br           4.19408476637068       -3.44177992365060        0.07849188272572
C            2.44340809269919       -1.20266813277827        0.31506770514907
C            1.22449150744998       -0.53247743859222        0.24784504873989
N            1.25066217539467        0.84329224019503        0.53094607064578
C            0.55358712058331        1.51545340004266        1.51199543952789
C           -0.21853315186631        1.01030823914561        2.54516860831797
C           -0.78009329502247        1.90880088312537        3.43197452640993
C           -0.57529310358721        3.27990346623471        3.30355096028293
C            0.22754816624825        3.78582626548442        2.30114081475988
C            0.81043644065309        2.90077622183257        1.40544428784793
C            1.72497146805258        3.06261590268984        0.31203790307638
C            2.33095651656265        4.16727798836957       -0.27027176902223
C            3.19316743490653        3.96771674796108       -1.32974386991473
C            3.45546383319265        2.68572066975157       -1.80680513146609
C            2.86097032217380        1.57146418540965       -1.24538080242172
C            1.99025453416546        1.76652581196592       -0.18352570603624
C           -2.64434689132923       -1.46295660892853       -0.23541069184203
C           -3.54055702046463       -1.52180536454525       -1.32238842196546
C           -3.28925741785621       -0.72848722263677       -2.57135009566057
C           -4.65152480228515       -2.34491197466262       -1.27923666364918
C           -4.93689689446742       -3.12890555793958       -0.16906739396584
C           -6.15298627722602       -4.00280737523620       -0.14780941793552
C           -4.06223996297222       -3.07424730296196        0.90054235221632
C           -2.93073279668919       -2.26852615382775        0.87867437511892
C           -2.07963550342905       -2.25800393492037        2.11605105348782
C           -0.70542987514983        1.55087245468434       -1.72575692996812
C            0.01588655412004        0.70890190541703       -2.73904002414697
C           -0.66951089430682        2.92675139683544       -1.89332909433582
H           -0.32941794166296        5.54786308346191       -1.61750233606620
H           -2.06436954615174        5.60847992473861       -1.92916534048894
H           -1.46904982855389        5.76005235963737       -0.27693865769499
H           -2.81888626455981        3.84724234782988        0.51471883451659
H           -3.64986843047110        2.09348079690369        1.69306462922184
H           -2.73702244301413        0.58546061782822        1.75905499134724
H           -4.04806068082048        0.76273016383673        0.60073170412690
H           -0.71559867754952       -3.11719947232989       -0.70511261472546
H            1.43494943671995       -4.29156921041832       -0.62224068263230
H            3.32908400789953       -0.66351619812873        0.61674354618784
H           -0.36447797459687       -0.05180629806441        2.66104090587999
H           -1.38753774080559        1.53964566184559        4.24557797836508
H           -1.03783971492379        3.95086315598328        4.01227184755883
H            0.41107527019787        4.84642525344331        2.21829013605536
H            2.12836762213507        5.16011136023779        0.10211027129125
H            3.67619739077245        4.81307894301690       -1.79724611537932
H            4.13845103309921        2.55909788275455       -2.63419108913157
H            3.06998144499139        0.58282707502801       -1.62671516857769
H           -2.34261102047852       -1.01921951329439       -3.02272536522459
H           -3.23959649096374        0.33478596716140       -2.34792530769187
H           -4.08233542014357       -0.89585607296874       -3.29667867842824
H           -5.31791369117964       -2.37998983742830       -2.13041643367553
H           -7.05268137633251       -3.40300751098463       -0.28117175073803
H           -6.11387413173196       -4.72662252131406       -0.96130526882461
H           -6.23031535325468       -4.54149633033240        0.79332400596679
H           -4.25955049888181       -3.67443366626154        1.77840558872441
H           -2.46514840062857       -1.52491352663561        2.82669557565392
H           -2.10541927429469       -3.23152689614110        2.60210189660113
H           -1.04750463364622       -2.00943465204949        1.89014449471494
H            0.18319997762298       -0.30401809051741       -2.38393512478414
H           -0.58428031139559        0.65274933820221       -3.64882629250905
H            0.96998839435159        1.16032835472357       -3.00246059900089
H           -0.05300836427582        3.34370368135157       -2.67780292164833

          :  Hamiltonian                  GFN2-xTB          :
         :: gradient norm              0.000085294926 Eh/a0 ::
         :: HOMO-LUMO gap              2.111987226352 eV    ::
         :: SCC energy              -104.014079825223 Eh    ::
         :: -> dispersion             -0.112907762643 Eh    ::
         :: repulsion energy           1.802647912291 Eh    ::

    * Orbital Energies and Occupations

         #    Occupation            Energy/Eh            Energy/eV
      -------------------------------------------------------------
         1        2.0000           -0.8367068             -22.7680
       ...           ...                  ...                  ...
        84        2.0000           -0.4162938             -11.3279
        85        2.0000           -0.4147664             -11.2864
        86        2.0000           -0.4107706             -11.1776
        87        2.0000           -0.4071288             -11.0785
        88        2.0000           -0.4041257             -10.9968
        89        2.0000           -0.4026057             -10.9555
        90        2.0000           -0.3969706             -10.8021
        91        2.0000           -0.3860261             -10.5043
        92        2.0000           -0.3843286             -10.4581
        93        2.0000           -0.3786795             -10.3044
        94        2.0000           -0.3750403             -10.2054
        95        2.0000           -0.3719819             -10.1221
        96        2.0000           -0.3613555              -9.8330 (HOMO)
        97                         -0.2837416              -7.7210 (LUMO)
        98                         -0.2482795              -6.7560
        99                         -0.2423306              -6.5942
       100                         -0.2320305              -6.3139
       101                         -0.2218414              -6.0366
       102                         -0.2143016              -5.8314
       103                         -0.2120109              -5.7691
       104                         -0.2066488              -5.6232
       105                         -0.2054469              -5.5905
       106                         -0.1913752              -5.2076
       107                         -0.1846873              -5.0256
       ...                                ...                  ...
       194                          0.7503301              20.4175
      -------------------------------------------------------------
                  HL-Gap            0.0776139 Eh            2.1120 eV

     #   Z          covCN         q      C6AA      α(0)
     1   6 C        3.758    -0.106    22.578     6.774
     2   6 C        2.964     0.016    27.658     8.626
     3   6 C        2.930    -0.054    29.346     8.884
     4   6 C        2.967     0.012    27.736     8.639
     5   6 C        3.759    -0.111    22.680     6.789
     6   6 C        2.890    -0.085    30.124     8.998
     7   5 B        2.708     0.253    17.665     7.049
     8   6 C        2.880    -0.075    29.858     8.958
     9   6 C        2.930    -0.030    28.756     8.794
    10   6 C        2.981    -0.042    29.030     8.838
    11   6 C        2.916     0.084    26.137     8.384
    12  35 Br       1.062    -0.169   189.738    22.210
    13   6 C        2.995    -0.050    29.220     8.867
    14   6 C        2.916     0.068    26.486     8.439
    15   7 N        2.805    -0.046    22.127     6.986
    16   6 C        3.079     0.050    26.803     8.488
    17   6 C        2.911    -0.052    29.279     8.873
    18   6 C        2.925    -0.032    28.802     8.801
    19   6 C        2.920    -0.040    29.005     8.832
    20   6 C        2.913    -0.031    28.778     8.797
    21   6 C        3.071    -0.015    28.313     8.725
    22   6 C        3.070    -0.014    28.294     8.722
    23   6 C        2.913    -0.032    28.789     8.798
    24   6 C        2.920    -0.041    29.022     8.834
    25   6 C        2.924    -0.034    28.854     8.809
    26   6 C        2.910    -0.049    29.227     8.865
    27   6 C        3.082     0.049    26.802     8.487
    28   6 C        2.887    -0.085    30.128     8.999
    29   6 C        2.968     0.013    27.724     8.637
    30   6 C        3.759    -0.114    22.735     6.798
    31   6 C        2.930    -0.056    29.393     8.891
    32   6 C        2.963     0.015    27.676     8.629
    33   6 C        3.758    -0.108    22.611     6.779
    34   6 C        2.931    -0.056    29.391     8.891
    35   6 C        2.967     0.012    27.755     8.641
    36   6 C        3.760    -0.107    22.593     6.776
    37   6 C        2.967     0.011    27.768     8.644
    38   6 C        3.759    -0.108    22.612     6.779
    39   6 C        2.931    -0.055    29.355     8.886
    40   1 H        0.925     0.042     2.429     2.437
    41   1 H        0.924     0.044     2.390     2.418
    42   1 H        0.925     0.041     2.438     2.442
    43   1 H        0.925     0.024     2.668     2.554
    44   1 H        0.925     0.037     2.489     2.467
    45   1 H        0.925     0.043     2.413     2.429
    46   1 H        0.925     0.047     2.363     2.404
    47   1 H        0.926     0.048     2.345     2.395
    48   1 H        0.926     0.051     2.303     2.373
    49   1 H        0.926     0.056     2.246     2.344
    50   1 H        0.926     0.023     2.692     2.566
    51   1 H        0.926     0.027     2.622     2.532
    52   1 H        0.926     0.028     2.619     2.531
    53   1 H        0.926     0.031     2.571     2.508
    54   1 H        0.926     0.031     2.575     2.509
    55   1 H        0.926     0.027     2.626     2.534
    56   1 H        0.926     0.029     2.608     2.525
    57   1 H        0.926     0.025     2.652     2.547
    58   1 H        0.925     0.040     2.445     2.445
    59   1 H        0.925     0.051     2.312     2.378
    60   1 H        0.925     0.038     2.474     2.460
    61   1 H        0.925     0.025     2.654     2.548
    62   1 H        0.925     0.044     2.393     2.419
    63   1 H        0.925     0.044     2.395     2.420
    64   1 H        0.925     0.039     2.461     2.453
    65   1 H        0.925     0.025     2.665     2.553
    66   1 H        0.924     0.040     2.449     2.447
    67   1 H        0.925     0.040     2.455     2.450
    68   1 H        0.925     0.036     2.505     2.475
    69   1 H        0.925     0.032     2.565     2.504
    70   1 H        0.924     0.042     2.419     2.432
    71   1 H        0.925     0.042     2.419     2.432
    72   1 H        0.925     0.024     2.673     2.557

molecular dipole:
                 x           y           z       tot (Debye)
 q only:       -1.171       0.235      -0.207
   full:       -1.458       0.289      -0.229       3.823

 projected vibrational frequencies (cm⁻¹)
eigval :       -0.00    -0.00    -0.00     0.00     0.00     0.00
eigval :       13.98    14.17    22.58    26.11    28.86    35.92
eigval :       37.92    46.35    55.45    61.53    84.43    92.54
eigval :      101.91   105.33   122.81   128.10   132.28   137.87
eigval :      140.33   148.89   160.33   166.76   169.70   182.71
eigval :      184.99   194.64   198.94   204.96   205.33   217.61
eigval :      261.69   274.42   275.21   282.47   288.17   307.26
eigval :      313.23   321.22   328.14   336.73   385.41   398.40
eigval :      420.53   426.35   431.81   438.56   463.52   486.59
eigval :      489.09   492.86   497.41   504.75   512.87   514.47
eigval :      520.18   526.50   536.91   542.20   551.47   566.57
eigval :      585.11   592.10   601.06   602.27   610.58   613.56
eigval :      649.80   672.40   678.56   680.73   701.47   706.78
eigval :      739.73   758.84   770.60   782.18   822.24   837.17
eigval :      840.30   867.66   871.02   873.71   879.87   886.15
eigval :      886.56   890.46   898.52   900.80   905.77   921.06
eigval :      922.69   924.72   935.04   963.83   964.88   976.33
eigval :      978.26  1012.81  1020.26  1023.64  1029.55  1029.86
eigval :     1030.82  1032.67  1033.80  1035.14  1041.77  1042.23
eigval :     1044.22  1044.66  1069.29  1072.33  1075.00  1110.62
eigval :     1112.20  1145.47  1151.84  1165.30  1176.60  1181.77
eigval :     1182.11  1193.40  1209.27  1221.39  1235.66  1236.51
eigval :     1237.65  1240.96  1244.62  1289.88  1300.35  1301.47
eigval :     1304.01  1306.86  1334.65  1337.61  1340.57  1362.04
eigval :     1364.85  1391.80  1400.01  1400.89  1402.10  1403.99
eigval :     1405.85  1409.75  1425.99  1428.70  1429.36  1430.06
eigval :     1448.48  1450.71  1456.57  1477.26  1477.92  1479.52
eigval :     1481.24  1482.11  1483.81  1485.61  1486.95  1487.02
eigval :     1488.57  1489.97  1492.65  1494.35  1500.60  1535.30
eigval :     1557.54  1559.30  1559.92  1576.59  1593.09  1601.23
eigval :     1602.44  1604.63  1618.49  2982.24  2984.36  2991.70
eigval :     3003.62  3005.58  3016.46  3020.18  3026.59  3031.89
eigval :     3032.92  3034.88  3035.57  3036.18  3038.40  3042.52
eigval :     3051.54  3060.33  3063.17  3064.30  3065.33  3066.21
eigval :     3067.84  3073.42  3074.10  3078.81  3081.99  3084.04
eigval :     3086.44  3092.32  3094.77  3095.18  3103.21  3107.74

   temp. (K)  partition function   enthalpy   heat capacity  entropy
                                   cal/mol     cal/K/mol   cal/K/mol   J/K/mol
 298.15  VIB  0.145E+18            21793.789    130.054    136.980
         ROT  0.400E+08              888.752      2.981     37.765
         INT  0.580E+25            22682.542    133.035    174.744
         TR   0.132E+29             1481.254      4.968     44.888
         TOT                       24163.7954   138.0033   219.6319   918.9399

       T/K    H(0)-H(T)+PV         H(T)/Eh          T*S/Eh         G(T)/Eh
   ------------------------------------------------------------------------
    298.15    0.385075E-01    0.612449E+00    0.104354E+00    0.508094E+00
   ------------------------------------------------------------------------

         :::::::::::::::::::::::::::::::::::::::::::::::::::::
         ::                  THERMODYNAMIC                  ::
         :::::::::::::::::::::::::::::::::::::::::::::::::::::
         :: total free energy        -101.703337565531 Eh   ::
         ::.................................................::
         :: total energy             -102.211431912972 Eh   ::
         :: zero point energy           0.573941089541 Eh   ::
         :: G(RRHO) w/o ZPVE           -0.065846742100 Eh   ::
         :: G(RRHO) contrib.            0.508094347441 Eh   ::
         :::::::::::::::::::::::::::::::::::::::::::::::::::::

           -------------------------------------------------
          | TOTAL ENERGY             -102.211431912972 Eh   |
          | TOTAL ENTHALPY           -101.598983364283 Eh   |
          | TOTAL FREE ENERGY        -101.703337565531 Eh   |
          | GRADIENT NORM               0.000085199016 Eh/α |
          | HOMO-LUMO GAP               2.111981404074 eV   |
           -------------------------------------------------

 * finished run on 2025/08/23 at 23:46:31.056
