   * xtb version 6.7.1 (edcfbbe) compiled by 'albert@albert-system' on 2024-07-22

   ID    Z sym.   atoms
    1    6 C      1-6, 8-11, 13, 14, 16-39
    2    5 B      7
    3   35 Br     12
    4    7 N      15
    5    1 H      40-72

          program call               : xtb data2507/gas/CzBroB/CzBroB.xyz --gfn 2 --ohess vtight --parallel 40 --molden --ceasefiles --namespace data2507/gas/CzBroB/CzBroB_gas_S0_preOpt
          :  Hamiltonian                  GFN2-xTB          :
 * total energy  :  -102.1579945 Eh     change       -0.1185740E-08 Eh
 * total energy  :  -102.1936104 Eh     change       -0.3561592E-01 Eh
 * total energy  :  -102.2024795 Eh     change       -0.8869054E-02 Eh
 * total energy  :  -102.2046948 Eh     change       -0.2215331E-02 Eh
 * total energy  :  -102.2061408 Eh     change       -0.1445993E-02 Eh
 * total energy  :  -102.2067868 Eh     change       -0.6460412E-03 Eh
 * total energy  :  -102.2071579 Eh     change       -0.3710894E-03 Eh
 * total energy  :  -102.2074153 Eh     change       -0.2573983E-03 Eh
 * total energy  :  -102.2076527 Eh     change       -0.2373214E-03 Eh
 * total energy  :  -102.2079116 Eh     change       -0.2589128E-03 Eh
 * total energy  :  -102.2114265 Eh     change       -0.6767807E-06 Eh
 * total energy  :  -102.2114269 Eh     change       -0.4100104E-06 Eh
 * total energy  :  -102.2114273 Eh     change       -0.4024237E-06 Eh
 * total energy  :  -102.2114278 Eh     change       -0.4186844E-06 Eh
 * total energy  :  -102.2114280 Eh     change       -0.2666939E-06 Eh
 * total energy  :  -102.2114283 Eh     change       -0.2508220E-06 Eh
 * total energy  :  -102.2114285 Eh     change       -0.2601663E-06 Eh
 * total energy  :  -102.2114287 Eh     change       -0.1665626E-06 Eh
 * total energy  :  -102.2114288 Eh     change       -0.6225360E-07 Eh
   *** GEOMETRY OPTIMIZATION CONVERGED AFTER 136 ITERATIONS ***

 final structure:
================
72
 xtb: 6.7.1 (edcfbbe)
C            3.61610448076720        3.28861228246064        0.57898032744233
C            2.37412817853252        2.49885747728064        0.30405498472469
C            1.39152744954867        2.34452497563820        1.27086830640270
C            0.25489613386433        1.58955532646469        1.03803163682014
C           -0.78533964409195        1.50390794123407        2.11657671467781
C            0.08205418268849        0.92451956042849       -0.19040020389959
B           -1.08637862007916       -0.10399576408366       -0.36351949816205
C           -0.77125838881270       -1.55907662407111       -0.88841735803610
C           -1.77274125613999       -2.21803038360131       -1.61484694140325
C           -1.58399498827599       -3.44664857401195       -2.21566804629719
C           -0.35546722526389       -4.07011644166013       -2.07896224144496
Br          -0.06096149136380       -5.77324574172474       -2.88696178212018
C            0.66210587350281       -3.47549369369485       -1.35972905239692
C            0.46445317618421       -2.22693378396571       -0.77549143948472
N            1.56606264986815       -1.66612906723722       -0.10800129991111
C            1.64399382740180       -1.28342653976571        1.21395948370376
C            0.73905000790650       -1.48643529378421        2.24288076122128
C            1.08249980807021       -1.03840682377863        3.50401517136934
C            2.30069260726134       -0.40839074678616        3.74380238002275
C            3.22385655628626       -0.24150216952668        2.73122575437270
C            2.90457600590431       -0.69409244829933        1.45898910714503
C            3.62536821798473       -0.74424029384807        0.21961989362466
C            4.89129756340042       -0.32577086217068       -0.16622305547461
C            5.29187002287564       -0.54289396041994       -1.46934744319350
C            4.44813437660836       -1.17199649289028       -2.38161974995811
C            3.18254754873586       -1.59448240727194       -2.02110142240905
C            2.77289714212436       -1.37399213241209       -0.71449726752112
C           -2.58767289835607        0.28472038993163       -0.10974318104702
C           -3.13584608921774        1.40369000764793       -0.76920377144600
C           -2.30855060217869        2.21959927802772       -1.71909752880123
C           -4.46298526220982        1.75115027372357       -0.58907126429818
C           -5.29905531230600        1.02891617318477        0.25171814371538
C           -6.72542909135836        1.44106690364433        0.44799419359184
C           -4.76629108402557       -0.06905124719055        0.90266567449256
C           -3.44199655227313       -0.44999428439037        0.72887685107308
C           -2.96441541576657       -1.63294687654171        1.52134437703097
C            1.03299008258209        1.15960734752665       -1.19691258205897
C            0.82829602294222        0.67967191564212       -2.60541006048453
C            2.15677108271189        1.92939717680270       -0.93944507675913
H            3.48866776516861        4.32010305944540        0.24788309801865
H            3.83833690259673        3.29977305183692        1.64340330771926
H            4.46248105554283        2.86513073083867        0.04247774646127
H            1.52162850434769        2.81614643859922        2.23509946164606
H           -0.41420421866562        1.94483654684637        3.03882372338033
H           -1.06551442325419        0.47442744532230        2.31407325237936
H           -1.68217374850680        2.04285956058817        1.81182979792168
H           -2.73181692480682       -1.73222428082379       -1.72016837183571
H           -2.37636880332813       -3.91526887001631       -2.77816225499625
H            1.61494695011772       -3.97032642270068       -1.24424881435422
H           -0.19735908049495       -1.99140084367718        2.06691647185407
H            0.39318727726752       -1.18402127043265        4.32310296166425
H            2.52923261520823       -0.06486685673843        4.74187691836757
H            4.18069564602773        0.22038635945513        2.92222821319212
H            5.54535108585408        0.15868548554317        0.54302715968510
H            6.27299437257690       -0.22576723304027       -1.79083364455234
H            4.79023294451888       -1.33354450265462       -3.39351796577964
H            2.53666142758217       -2.07883698158208       -2.73854409847787
H           -1.95593236950559        1.60234410545532       -2.54313649879528
H           -1.43761823695262        2.63145765836864       -1.21435565711455
H           -2.89417048621640        3.03937051865167       -2.12910919086094
H           -4.86167054514280        2.60773113534349       -1.11546486986865
H           -7.29103826059021        0.66117877306679        0.95203391603209
H           -6.77307495012003        2.34598388514251        1.05439852774184
H           -7.19799332337969        1.65728759774646       -0.50863837812171
H           -5.39550896270252       -0.65042912403929        1.56288377263341
H           -2.62145677666452       -1.30796840231414        2.50506802964830
H           -3.77742068532363       -2.34024701252309        1.67400513065855
H           -2.14706396158258       -2.14483590738742        1.02324369404554
H            0.10916859094195       -0.13268088239726       -2.65999262641452
H            0.45230760598036        1.50479086721106       -3.21274523804359
H            1.77140979269759        0.35545340258256       -3.04002627693537
H            2.88529214475678        2.07396959184989       -1.72536879174835

          :  Hamiltonian                  GFN2-xTB          :
         :: gradient norm              0.000058346119 Eh/a0 ::
         :: HOMO-LUMO gap              2.112283847638 eV    ::
         :: SCC energy              -104.014059930649 Eh    ::
         :: -> dispersion             -0.112870486512 Eh    ::
         :: repulsion energy           1.802631155161 Eh    ::

    * Orbital Energies and Occupations

         #    Occupation            Energy/Eh            Energy/eV
      -------------------------------------------------------------
         1        2.0000           -0.8367330             -22.7687
       ...           ...                  ...                  ...
        84        2.0000           -0.4163143             -11.3285
        85        2.0000           -0.4147552             -11.2861
        86        2.0000           -0.4108005             -11.1785
        87        2.0000           -0.4072191             -11.0810
        88        2.0000           -0.4041515             -10.9975
        89        2.0000           -0.4026186             -10.9558
        90        2.0000           -0.3969375             -10.8012
        91        2.0000           -0.3860615             -10.5053
        92        2.0000           -0.3844151             -10.4605
        93        2.0000           -0.3787210             -10.3055
        94        2.0000           -0.3750757             -10.2063
        95        2.0000           -0.3719130             -10.1203
        96        2.0000           -0.3613726              -9.8334 (HOMO)
        97                         -0.2837479              -7.7212 (LUMO)
        98                         -0.2483218              -6.7572
        99                         -0.2423692              -6.5952
       100                         -0.2320700              -6.3149
       101                         -0.2218965              -6.0381
       102                         -0.2143539              -5.8329
       103                         -0.2120040              -5.7689
       104                         -0.2066163              -5.6223
       105                         -0.2054797              -5.5914
       106                         -0.1914285              -5.2090
       107                         -0.1847166              -5.0264
       ...                                ...                  ...
       194                          0.7502963              20.4166
      -------------------------------------------------------------
                  HL-Gap            0.0776247 Eh            2.1123 eV

     #   Z          covCN         q      C6AA      α(0)
     1   6 C        3.758    -0.106    22.579     6.775
     2   6 C        2.964     0.016    27.658     8.626
     3   6 C        2.930    -0.054    29.343     8.884
     4   6 C        2.967     0.012    27.736     8.639
     5   6 C        3.759    -0.111    22.679     6.789
     6   6 C        2.890    -0.085    30.123     8.998
     7   5 B        2.708     0.254    17.663     7.048
     8   6 C        2.880    -0.075    29.857     8.958
     9   6 C        2.930    -0.030    28.757     8.794
    10   6 C        2.981    -0.042    29.030     8.838
    11   6 C        2.916     0.084    26.137     8.384
    12  35 Br       1.062    -0.169   189.737    22.210
    13   6 C        2.995    -0.050    29.219     8.867
    14   6 C        2.916     0.068    26.485     8.439
    15   7 N        2.805    -0.046    22.128     6.986
    16   6 C        3.079     0.050    26.803     8.488
    17   6 C        2.911    -0.052    29.282     8.873
    18   6 C        2.925    -0.032    28.803     8.801
    19   6 C        2.920    -0.040    29.005     8.832
    20   6 C        2.913    -0.031    28.777     8.797
    21   6 C        3.071    -0.015    28.313     8.725
    22   6 C        3.070    -0.014    28.295     8.722
    23   6 C        2.913    -0.032    28.791     8.799
    24   6 C        2.920    -0.041    29.022     8.834
    25   6 C        2.924    -0.034    28.853     8.809
    26   6 C        2.910    -0.049    29.226     8.865
    27   6 C        3.082     0.049    26.802     8.487
    28   6 C        2.887    -0.085    30.128     8.999
    29   6 C        2.968     0.013    27.724     8.637
    30   6 C        3.759    -0.114    22.736     6.798
    31   6 C        2.930    -0.056    29.391     8.891
    32   6 C        2.963     0.015    27.676     8.629
    33   6 C        3.758    -0.108    22.611     6.779
    34   6 C        2.931    -0.056    29.393     8.891
    35   6 C        2.967     0.012    27.754     8.641
    36   6 C        3.760    -0.107    22.594     6.776
    37   6 C        2.967     0.011    27.769     8.644
    38   6 C        3.759    -0.108    22.612     6.779
    39   6 C        2.931    -0.055    29.358     8.886
    40   1 H        0.924     0.044     2.391     2.418
    41   1 H        0.925     0.040     2.446     2.446
    42   1 H        0.925     0.042     2.419     2.432
    43   1 H        0.925     0.024     2.669     2.555
    44   1 H        0.925     0.037     2.489     2.467
    45   1 H        0.925     0.043     2.415     2.430
    46   1 H        0.925     0.047     2.363     2.404
    47   1 H        0.926     0.048     2.345     2.395
    48   1 H        0.926     0.051     2.303     2.373
    49   1 H        0.926     0.056     2.246     2.344
    50   1 H        0.926     0.023     2.691     2.565
    51   1 H        0.926     0.027     2.624     2.533
    52   1 H        0.926     0.028     2.619     2.531
    53   1 H        0.926     0.031     2.568     2.506
    54   1 H        0.926     0.031     2.578     2.511
    55   1 H        0.926     0.027     2.626     2.534
    56   1 H        0.926     0.029     2.607     2.525
    57   1 H        0.926     0.025     2.652     2.546
    58   1 H        0.925     0.040     2.445     2.445
    59   1 H        0.925     0.051     2.312     2.378
    60   1 H        0.925     0.038     2.474     2.460
    61   1 H        0.925     0.025     2.655     2.548
    62   1 H        0.925     0.039     2.456     2.451
    63   1 H        0.924     0.045     2.380     2.413
    64   1 H        0.925     0.043     2.413     2.429
    65   1 H        0.925     0.025     2.664     2.552
    66   1 H        0.924     0.040     2.449     2.447
    67   1 H        0.925     0.040     2.455     2.450
    68   1 H        0.925     0.036     2.503     2.474
    69   1 H        0.925     0.031     2.566     2.505
    70   1 H        0.924     0.042     2.419     2.432
    71   1 H        0.925     0.042     2.419     2.432
    72   1 H        0.925     0.024     2.671     2.556

molecular dipole:
                 x           y           z       tot (Debye)
 q only:       -0.509       1.055       0.312
   full:       -0.634       1.300       0.415       3.826

 projected vibrational frequencies (cm⁻¹)
eigval :       -0.00    -0.00     0.00     0.00     0.00     0.00
eigval :       13.43    19.51    24.10    28.43    30.16    35.57
eigval :       37.94    46.43    56.05    61.38    84.08    92.75
eigval :      101.90   105.30   122.84   127.42   131.83   137.87
eigval :      140.27   148.76   160.40   166.43   169.65   182.76
eigval :      184.90   194.60   199.19   204.70   205.26   217.53
eigval :      261.82   274.60   275.18   282.90   288.20   307.21
eigval :      313.09   321.15   328.10   336.70   385.40   398.54
eigval :      420.41   426.53   431.97   438.55   463.30   486.90
eigval :      488.93   492.23   497.61   505.06   512.86   514.27
eigval :      520.19   527.24   537.30   542.24   551.44   566.35
eigval :      585.14   592.20   600.82   602.29   610.48   613.56
eigval :      649.83   672.43   678.57   680.77   701.48   706.80
eigval :      739.66   758.94   770.70   782.29   822.29   837.05
eigval :      840.16   867.75   871.13   873.93   879.83   886.14
eigval :      886.67   890.32   898.48   900.77   905.91   921.09
eigval :      922.81   924.79   935.02   963.95   964.96   976.53
eigval :      978.46  1012.76  1020.20  1023.68  1029.44  1029.95
eigval :     1030.63  1032.54  1033.95  1035.04  1041.72  1042.42
eigval :     1044.46  1044.75  1069.23  1072.45  1074.76  1110.45
eigval :     1112.12  1145.42  1151.70  1165.19  1176.42  1181.80
eigval :     1182.12  1193.51  1209.31  1221.48  1235.77  1236.59
eigval :     1237.64  1241.10  1244.56  1289.87  1301.11  1301.67
eigval :     1304.09  1307.43  1333.97  1336.80  1340.31  1362.00
eigval :     1364.83  1391.72  1399.92  1400.72  1402.08  1404.09
eigval :     1406.02  1409.80  1426.10  1428.67  1429.33  1429.98
eigval :     1448.57  1450.85  1456.77  1477.26  1478.00  1479.51
eigval :     1481.73  1482.17  1483.71  1485.67  1486.55  1486.91
eigval :     1488.51  1490.15  1492.69  1494.27  1500.65  1535.33
eigval :     1557.42  1559.10  1559.80  1576.58  1593.14  1601.26
eigval :     1602.30  1604.41  1618.43  2982.87  2984.42  2992.05
eigval :     2998.18  3005.94  3020.29  3022.84  3027.03  3031.86
eigval :     3032.27  3032.92  3036.15  3037.44  3038.54  3040.62
eigval :     3051.79  3059.82  3063.13  3064.28  3064.80  3065.94
eigval :     3068.04  3073.44  3074.07  3078.63  3082.09  3083.98
eigval :     3086.23  3092.49  3094.58  3095.21  3103.13  3107.84

   temp. (K)  partition function   enthalpy   heat capacity  entropy
                                   cal/mol     cal/K/mol   cal/K/mol   J/K/mol
 298.15  VIB  0.933E+17            21781.177    130.123    136.646
         ROT  0.400E+08              888.752      2.981     37.764
         INT  0.373E+25            22669.930    133.104    174.410
         TR   0.132E+29             1481.254      4.968     44.888
         TOT                       24151.1834   138.0719   219.2979   917.5424

       T/K    H(0)-H(T)+PV         H(T)/Eh          T*S/Eh         G(T)/Eh
   ------------------------------------------------------------------------
    298.15    0.384874E-01    0.612449E+00    0.104196E+00    0.508253E+00
   ------------------------------------------------------------------------

         :::::::::::::::::::::::::::::::::::::::::::::::::::::
         ::                  THERMODYNAMIC                  ::
         :::::::::::::::::::::::::::::::::::::::::::::::::::::
         :: total free energy        -101.703175363484 Eh   ::
         ::.................................................::
         :: total energy             -102.211428775506 Eh   ::
         :: zero point energy           0.573961554365 Eh   ::
         :: G(RRHO) w/o ZPVE           -0.065708142343 Eh   ::
         :: G(RRHO) contrib.            0.508253412022 Eh   ::
         :::::::::::::::::::::::::::::::::::::::::::::::::::::

           -------------------------------------------------
          | TOTAL ENERGY             -102.211428775506 Eh   |
          | TOTAL ENTHALPY           -101.598979860518 Eh   |
          | TOTAL FREE ENERGY        -101.703175363484 Eh   |
          | GRADIENT NORM               0.000058342706 Eh/α |
          | HOMO-LUMO GAP               2.112276511522 eV   |
           -------------------------------------------------

 * finished run on 2025/08/23 at 23:42:59.750
