   * xtb version 6.7.1 (edcfbbe) compiled by 'albert@albert-system' on 2024-07-22

   ID    Z sym.   atoms
    1    6 C      1-6, 8-11, 13, 14, 16-39
    2    5 B      7
    3   35 Br     12
    4    7 N      15
    5    1 H      40-72

          program call               : xtb data2507/gas/CzBroB/CzBroB_gas_T1_crest.xyz --gfn 2 --spinpol --tblite --uhf 2 --ohess vtight --parallel 40 --molden --ceasefiles --namespace data2507/gas/CzBroB/CzBroB_gas_T1_finalOpt
 * total energy  :  -102.1264210 Eh     change       -0.1145482E-07 Eh
 * total energy  :  -102.1264278 Eh     change       -0.6814181E-05 Eh
 * total energy  :  -102.1264306 Eh     change       -0.2775770E-05 Eh
 * total energy  :  -102.1264317 Eh     change       -0.1098849E-05 Eh
 * total energy  :  -102.1264333 Eh     change       -0.1608525E-05 Eh
 * total energy  :  -102.1264349 Eh     change       -0.1615099E-05 Eh
 * total energy  :  -102.1264368 Eh     change       -0.1886655E-05 Eh
 * total energy  :  -102.1264381 Eh     change       -0.1287472E-05 Eh
 * total energy  :  -102.1264386 Eh     change       -0.4756073E-06 Eh
 * total energy  :  -102.1264391 Eh     change       -0.5080337E-06 Eh
 * total energy  :  -102.1264409 Eh     change       -0.2202332E-06 Eh
 * total energy  :  -102.1264409 Eh     change        0.1997466E-07 Eh
 * total energy  :  -102.1264411 Eh     change       -0.2166065E-06 Eh
 * total energy  :  -102.1264413 Eh     change       -0.2046771E-06 Eh
 * total energy  :  -102.1264414 Eh     change       -0.1412834E-06 Eh
 * total energy  :  -102.1264416 Eh     change       -0.1390610E-06 Eh
 * total energy  :  -102.1264418 Eh     change       -0.2188115E-06 Eh
 * total energy  :  -102.1264418 Eh     change        0.5876473E-08 Eh
 * total energy  :  -102.1264419 Eh     change       -0.7404597E-07 Eh
   *** GEOMETRY OPTIMIZATION CONVERGED AFTER 23 ITERATIONS ***

 final structure:
================
72
 xtb: 6.7.1 (edcfbbe)
C           -0.34791625854495        5.31259766017142       -1.07376023286080
C           -0.71112448387741        3.86658947038703       -0.96850090607230
C           -1.70125397782854        3.44374072373027       -0.08135497502787
C           -2.04313833203157        2.11430143703831        0.04113763568279
C           -3.13286517149995        1.72429270397336        0.98950144857329
C           -1.33802108456477        1.12646185907321       -0.69070538701470
B           -1.43163634958259       -0.39169333820716       -0.32666515224232
C           -0.19912806318069       -1.23996423230559       -0.07639351024503
C           -0.23919721083976       -2.65947687724216       -0.21937651127366
C            0.86468833845274       -3.45775168368069       -0.18613664075300
C            2.12596311249222       -2.87473902449992        0.02984000719955
Br           3.68112349462800       -3.97272718466246        0.11523014863668
C            2.23656241761590       -1.51055396774258        0.23298267019533
C            1.11480156882519       -0.70067234872784        0.21980773857913
N            1.31350462878088        0.66607135226730        0.44133858236860
C            0.73017822692867        1.42791328143616        1.43341916057023
C           -0.14097580340142        1.03798209727255        2.43888212834086
C           -0.55902064405343        2.00009699850958        3.33874578135855
C           -0.11292825721339        3.31588860023148        3.25313936390814
C            0.79070081558257        3.69964973889016        2.27921138621873
C            1.22417008778979        2.75073126946309        1.36730893964133
C            2.18076076995465        2.77259958812152        0.29376932951755
C            2.98971655395978        3.76107930305187       -0.24206359115783
C            3.82754962102913        3.43350246454160       -1.29361406635708
C            3.86341371957931        2.13852181621777       -1.80488861736697
C            3.06596681177163        1.13597905930451       -1.28536682972534
C            2.22060747902149        1.45808493246733       -0.23094256777540
C           -2.86885289382248       -1.07572227250102       -0.25601653249075
C           -3.74881739333515       -0.94873402776639       -1.34375836790961
C           -3.35487569120395       -0.19827767618821       -2.58073254445722
C           -4.98876127163845       -1.56534180452648       -1.31506908712217
C           -5.40797368388034       -2.31078582172368       -0.22162737615287
C           -6.75397576966380       -2.97039382091135       -0.21894233538736
C           -4.54173169770382       -2.42843885633372        0.84983589943541
C           -3.29077631601150       -1.82137090064514        0.85385794101193
C           -2.47462001395799       -1.96221870322932        2.10692181376110
C           -0.44474218517610        1.57423042336152       -1.69651652448565
C            0.14264668937533        0.63746663905426       -2.70839225354849
C           -0.12286416837767        2.91652501668335       -1.79203122988440
H            0.64494745086552        5.42967926969037       -1.50190300137774
H           -1.05923025801079        5.83591533427942       -1.71471934479719
H           -0.37393185509674        5.78436210862443       -0.09349718756221
H           -2.20400913562481        4.17990539748017        0.53067290037195
H           -3.99609866277835        1.34767383776622        0.44175098196612
H           -3.44504087274473        2.57641080931808        1.58881389431041
H           -2.79343141661439        0.93180540121225        1.65064577283204
H           -1.20501938441677       -3.10914343892328       -0.39900668552530
H            0.78626209103049       -4.52491699339074       -0.32567343503596
H            3.19934519525861       -1.07442480604963        0.45845142228658
H           -0.46988597390810        0.01555608747403        2.51859389414466
H           -1.23986210498804        1.72469619927788        4.13048075103014
H           -0.46459170842243        4.04051603301671        3.97246685928989
H            1.16079408819465        4.71274856525218        2.23415110901685
H            2.96439626135453        4.76474561832391        0.15445435216373
H            4.46654952903118        4.18926745893717       -1.72558839147866
H            4.52932381642065        1.91234008275887       -2.62438586619381
H            3.10055309771958        0.13619651589253       -1.68978822782259
H           -3.11208121652515        0.83626515537047       -2.34507098381389
H           -4.16058853504124       -0.20826610766946       -3.31143617715189
H           -2.47409993223018       -0.65536028627920       -3.02839475231190
H           -5.64345654909085       -1.47295812945066       -2.17120746534903
H           -7.00418753652559       -3.34036418237932        0.77235059524405
H           -7.52501526981613       -2.27089777059495       -0.53804120729209
H           -6.76082576969296       -3.81239952788163       -0.91174249212767
H           -4.84715699660807       -2.99377557907779        1.72001327270835
H           -1.41075965709537       -1.91942599199272        1.89564937231684
H           -2.72353769693147       -1.16165522865461        2.80636263853304
H           -2.69238611539917       -2.90846207158074        2.59810193773344
H            0.21817195904345       -0.37616723032194       -2.32503711380470
H           -0.49910774810418        0.61526950843688       -3.59084795307456
H            1.12491456334617        0.98089316359006       -3.02571690114226
H            0.60155999500315        3.23279760009132       -2.53043178217561

 projected vibrational frequencies (cm⁻¹)
eigval :       -0.00    -0.00    -0.00     0.00     0.00     0.00
eigval :       19.22    20.79    28.39    33.60    36.47    40.14
eigval :       40.96    45.71    63.71    66.26    78.37    80.71
eigval :       95.48   104.20   111.29   120.61   125.77   135.28
eigval :      141.89   151.08   157.22   167.05   169.98   176.86
eigval :      183.29   192.16   193.56   204.95   209.87   220.68
eigval :      259.29   274.46   276.69   280.91   288.10   302.82
eigval :      307.87   313.97   324.43   330.46   376.43   396.16
eigval :      398.25   422.30   426.08   435.47   452.31   470.52
eigval :      473.57   482.05   487.74   493.54   500.34   512.66
eigval :      516.28   520.13   525.63   537.97   543.72   553.21
eigval :      565.59   582.34   595.88   599.26   600.52   603.96
eigval :      635.43   646.00   663.19   667.48   674.04   707.15
eigval :      731.98   756.85   769.66   779.55   798.31   834.15
eigval :      836.95   847.15   863.53   865.58   867.37   870.78
eigval :      875.85   883.84   894.30   901.36   907.96   911.29
eigval :      918.08   920.25   925.36   960.32   961.93   973.41
eigval :      975.28  1011.19  1012.92  1017.87  1023.05  1024.88
eigval :     1026.19  1026.52  1030.04  1031.88  1033.88  1037.41
eigval :     1042.09  1042.80  1054.73  1067.04  1070.26  1076.27
eigval :     1088.18  1102.64  1133.38  1143.07  1171.73  1179.01
eigval :     1181.77  1189.92  1196.80  1202.71  1224.71  1228.21
eigval :     1231.11  1234.86  1236.43  1278.87  1287.00  1292.67
eigval :     1299.07  1302.38  1317.55  1330.42  1339.42  1346.60
eigval :     1365.02  1367.81  1386.93  1397.02  1397.34  1399.11
eigval :     1401.26  1403.02  1406.40  1411.75  1412.61  1417.87
eigval :     1420.88  1427.91  1433.84  1437.90  1462.50  1465.27
eigval :     1469.49  1473.95  1477.56  1480.22  1481.52  1482.28
eigval :     1482.74  1483.78  1484.11  1487.07  1490.17  1492.74
eigval :     1500.01  1517.99  1541.91  1566.65  1569.04  1577.14
eigval :     1580.58  1584.96  1603.83  2975.06  2983.17  2986.04
eigval :     2995.63  3007.76  3013.21  3019.64  3022.58  3027.45
eigval :     3029.07  3031.21  3033.97  3035.36  3036.53  3040.25
eigval :     3047.35  3047.83  3056.32  3059.58  3060.79  3061.99
eigval :     3065.31  3077.14  3078.35  3078.59  3080.01  3085.25
eigval :     3086.93  3093.56  3095.26  3096.42  3099.28  3124.79

   temp. (K)  partition function   enthalpy   heat capacity  entropy
                                   cal/mol     cal/K/mol   cal/K/mol   J/K/mol
 298.15  VIB  0.502E+17            22006.238    132.073    137.952
         ROT  0.397E+08              888.752      2.981     37.754
         INT  0.200E+25            22894.991    135.054    175.706
         TR   0.132E+29             1481.254      4.968     44.888
         TOT                       24376.2445   140.0220   220.5936   922.9635

       T/K    H(0)-H(T)+PV         H(T)/Eh          T*S/Eh         G(T)/Eh
   ------------------------------------------------------------------------
    298.15    0.388460E-01    0.609099E+00    0.104811E+00    0.504288E+00
   ------------------------------------------------------------------------

         :::::::::::::::::::::::::::::::::::::::::::::::::::::
         ::                  THERMODYNAMIC                  ::
         :::::::::::::::::::::::::::::::::::::::::::::::::::::
         :: total free energy        -101.622153775440 Eh   ::
         ::.................................................::
         :: total energy             -102.126441869864 Eh   ::
         :: zero point energy           0.570253198425 Eh   ::
         :: G(RRHO) w/o ZPVE           -0.065965104001 Eh   ::
         :: G(RRHO) contrib.            0.504288094423 Eh   ::
         :::::::::::::::::::::::::::::::::::::::::::::::::::::

           -------------------------------------------------
          | TOTAL ENERGY             -102.126441869864 Eh   |
          | TOTAL ENTHALPY           -101.517342653249 Eh   |
          | TOTAL FREE ENERGY        -101.622153775440 Eh   |
          | GRADIENT NORM               0.000037810551 Eh/α |
           -------------------------------------------------

 * finished run on 2025/08/23 at 23:50:27.560
