   * xtb version 6.7.1 (edcfbbe) compiled by 'albert@albert-system' on 2024-07-22

   ID    Z sym.   atoms
    1    6 C      1-6, 8-11, 13, 14, 16-39
    2    5 B      7
    3   35 Br     12
    4    7 N      15
    5    1 H      40-72

          program call               : xtb data2507/gas/CzBroB/CzBroB_gas_S0_finalOpt.xtbopt.xyz --gfn 2 --spinpol --tblite --uhf 2 --ohess vtight --parallel 40 --molden --ceasefiles --namespace data2507/gas/CzBroB/CzBroB_gas_T1_preOpt
 * total energy  :  -102.1203921 Eh     change       -0.3434127E-07 Eh
 * total energy  :  -102.1239346 Eh     change       -0.3542531E-02 Eh
 * total energy  :  -102.1253949 Eh     change       -0.1460318E-02 Eh
 * total energy  :  -102.1256093 Eh     change       -0.2144378E-03 Eh
 * total energy  :  -102.1259081 Eh     change       -0.2987984E-03 Eh
 * total energy  :  -102.1260377 Eh     change       -0.1295261E-03 Eh
 * total energy  :  -102.1262002 Eh     change       -0.1625166E-03 Eh
 * total energy  :  -102.1263179 Eh     change       -0.1177599E-03 Eh
 * total energy  :  -102.1263606 Eh     change       -0.4266103E-04 Eh
 * total energy  :  -102.1263791 Eh     change       -0.1844189E-04 Eh
 * total energy  :  -102.1264381 Eh     change       -0.1103342E-06 Eh
 * total energy  :  -102.1264384 Eh     change       -0.2752395E-06 Eh
 * total energy  :  -102.1264386 Eh     change       -0.2053760E-06 Eh
 * total energy  :  -102.1264389 Eh     change       -0.2602491E-06 Eh
 * total energy  :  -102.1264391 Eh     change       -0.2166753E-06 Eh
 * total energy  :  -102.1264393 Eh     change       -0.2128810E-06 Eh
 * total energy  :  -102.1264395 Eh     change       -0.2397970E-06 Eh
 * total energy  :  -102.1264395 Eh     change        0.7487726E-07 Eh
 * total energy  :  -102.1264395 Eh     change       -0.7967658E-07 Eh
   *** GEOMETRY OPTIMIZATION CONVERGED AFTER 45 ITERATIONS ***

 final structure:
================
72
 xtb: 6.7.1 (edcfbbe)
C           -1.16976253270413        5.21652469718730       -1.06839290367557
C           -1.30421940911683        3.73168074615427       -0.96340101820226
C           -2.20779636175180        3.15891748640174       -0.06817370093259
C           -2.33793878226226        1.79231291560761        0.05357525213146
C           -3.34461404545422        1.23667689690617        1.01107497034999
C           -1.49518374406342        0.92689610839244       -0.68769438212903
B           -1.34688376763383       -0.58740425527997       -0.32590066003533
C            0.00556476836760       -1.23306429041900       -0.09084131077744
C            0.18575259129628       -2.64138974030183       -0.23630056769669
C            1.40102602706431       -3.25760188399377       -0.21767919521514
C            2.55833475687642       -2.48482103403531       -0.01553091679876
Br           4.26678852472338       -3.32658445613061        0.04824038222189
C            2.45708361073461       -1.12022538102983        0.18971887041775
C            1.22252935138612       -0.49543485873702        0.19192627638737
N            1.20782831431090        0.88527074919085        0.41538092488482
C            0.52340182664515        1.54542932732292        1.41575392490813
C           -0.26637774272693        1.02312870175054        2.42834316570445
C           -0.82031214945512        1.90712490838399        3.33493031957707
C           -0.58539759299286        3.27646822219795        3.24901037673061
C            0.23787041228514        3.79765451683918        2.26773451590924
C            0.80475426640038        2.92910550140486        1.34893738021018
C            1.73505807559660        3.10136541088598        0.26594717939865
C            2.37488185482473        4.20459617005453       -0.27455540869909
C            3.24160010410182        4.01334198391234       -1.33628339476795
C            3.47203397626817        2.74077244251852       -1.85312807514981
C            2.84598185566993        1.62541853927072       -1.32874409136234
C            1.97307101686691        1.81004415996710       -0.26384327906131
C           -2.65836270086597       -1.48814696883741       -0.24028426391851
C           -3.55874225211926       -1.50154071284171       -1.31865005313558
C           -3.29929728893048       -0.70058926585159       -2.55945914714518
C           -4.68643163026876       -2.30452436776299       -1.27733282173330
C           -4.97201735261296       -3.10578332567972       -0.18012896973261
C           -6.20099429495649       -3.96382848430548       -0.16300830962240
C           -4.08664951143500       -3.08575020451426        0.88173949070071
C           -2.94614590977910       -2.29016920874441        0.87303509615090
C           -2.10406603059679       -2.30126883533954        2.11679963760183
C           -0.69268164913596        1.50951844166384       -1.70119175205214
C            0.02250324498343        0.67645066537175       -2.72139742575439
C           -0.58429089845244        2.88552149064264       -1.79587572989333
H           -0.20127718797210        5.48614863869576       -1.48346354684185
H           -1.94432624903044        5.62155510727585       -1.72163165152128
H           -1.28287850523891        5.68003538412275       -0.09045631606302
H           -2.81257881331949        3.80707880858617        0.55104794783930
H           -3.77868503960347        2.02915933905109        1.61630691782236
H           -2.88022880909108        0.50488557661437        1.66617149084042
H           -4.14476508170846        0.73223708444309        0.47036420976560
H           -0.70014001232841       -3.23621230975984       -0.40562005665543
H            1.48846405063633       -4.32391027424359       -0.35835210300183
H            3.34263095525721       -0.53931272176605        0.40494915513227
H           -0.43134218535620       -0.03811777803126        2.50803812225571
H           -1.44228958870080        1.52793719708689        4.13217503977477
H           -1.03862005784632        3.93644898892258        3.97371731686747
H            0.44510545443532        4.85610274592049        2.22196566005570
H            2.19871619952532        5.19126889363727        0.12630089408157
H            3.75074970116107        4.86006932061072       -1.77207659651690
H            4.15541523549182        2.62253948932516       -2.68087887100184
H            3.03053519971441        0.64407768451898       -1.73764102275057
H           -2.36327615886160       -1.01656629190703       -3.01683212646596
H           -3.21691114035226        0.35935245207204       -2.32597896688197
H           -4.10158227056689       -0.83612077779529       -3.28138053150644
H           -5.35657706642171       -2.31680718029721       -2.12639695874310
H           -7.08531095851243       -3.37011526593069       -0.39059794257601
H           -6.12378857287772       -4.74773683520794       -0.91658587561512
H           -6.33506739599328       -4.43231902605114        0.80886924800127
H           -4.29014078054710       -3.69167550027609        1.75440456579775
H           -2.46178226401188       -1.54346935233200        2.81668743962901
H           -2.17236403763674       -3.26699817506791        2.61351470610345
H           -1.06095464370693       -2.10106734717657        1.89277689819116
H            0.26961244955527       -0.30927756641527       -2.33742436027205
H           -0.62222746078662        0.54466043804713       -3.59201744783343
H            0.92961761084870        1.17441686232144       -3.05700135264429
H            0.07449792056213        3.31179235032172       -2.54044428473084

 projected vibrational frequencies (cm⁻¹)
eigval :       -0.00    -0.00     0.00     0.00     0.00     0.00
eigval :       13.87    20.89    27.74    33.62    35.89    40.06
eigval :       41.19    46.06    64.48    66.26    79.20    81.52
eigval :       95.50   104.08   111.93   119.22   126.49   133.97
eigval :      141.73   151.07   157.53   166.42   169.79   176.91
eigval :      183.25   191.41   193.32   204.63   210.17   220.55
eigval :      259.33   274.46   276.59   280.86   287.74   303.01
eigval :      308.64   313.98   324.63   330.39   376.30   396.21
eigval :      398.38   422.34   426.12   435.53   452.78   470.49
eigval :      473.36   482.01   487.23   493.21   500.41   512.40
eigval :      516.27   520.19   525.91   537.93   543.33   552.97
eigval :      565.59   582.39   595.65   599.19   600.22   603.97
eigval :      635.65   645.95   663.03   667.52   674.00   707.12
eigval :      732.17   756.80   769.50   779.42   798.31   834.22
eigval :      836.87   847.00   863.51   865.37   867.11   870.76
eigval :      875.67   883.81   894.32   901.28   907.97   911.44
eigval :      918.12   920.17   925.20   960.47   961.86   973.44
eigval :      975.64  1011.30  1012.74  1017.65  1023.01  1024.47
eigval :     1025.95  1026.42  1030.04  1031.91  1033.77  1037.26
eigval :     1042.14  1042.89  1055.05  1066.99  1070.22  1076.33
eigval :     1087.63  1102.77  1133.70  1143.08  1171.64  1178.87
eigval :     1181.58  1189.71  1196.71  1203.25  1224.41  1228.25
eigval :     1231.08  1234.75  1236.40  1278.88  1286.81  1292.61
eigval :     1298.81  1302.39  1317.39  1330.98  1339.32  1346.65
eigval :     1365.00  1367.55  1386.99  1396.84  1397.26  1398.99
eigval :     1401.11  1402.73  1406.19  1411.71  1412.69  1417.66
eigval :     1420.78  1427.97  1434.20  1437.83  1462.37  1464.93
eigval :     1469.05  1473.54  1476.80  1480.00  1481.48  1482.01
eigval :     1482.43  1483.63  1483.85  1487.07  1489.91  1492.31
eigval :     1499.67  1517.49  1541.88  1566.93  1569.17  1577.46
eigval :     1580.93  1585.00  1603.94  2974.58  2982.93  2985.30
eigval :     2998.06  3007.24  3012.74  3015.66  3022.19  3028.25
eigval :     3029.13  3030.76  3033.28  3034.73  3035.22  3040.97
eigval :     3046.74  3047.46  3055.26  3059.22  3060.31  3061.59
eigval :     3064.78  3076.85  3078.06  3078.29  3079.72  3084.94
eigval :     3086.58  3093.17  3094.98  3096.30  3099.02  3125.14

   temp. (K)  partition function   enthalpy   heat capacity  entropy
                                   cal/mol     cal/K/mol   cal/K/mol   J/K/mol
 298.15  VIB  0.692E+17            22015.367    132.078    138.252
         ROT  0.397E+08              888.752      2.981     37.753
         INT  0.275E+25            22904.119    135.058    176.005
         TR   0.132E+29             1481.254      4.968     44.888
         TOT                       24385.3728   140.0265   220.8924   924.2140

       T/K    H(0)-H(T)+PV         H(T)/Eh          T*S/Eh         G(T)/Eh
   ------------------------------------------------------------------------
    298.15    0.388606E-01    0.609052E+00    0.104953E+00    0.504099E+00
   ------------------------------------------------------------------------

         :::::::::::::::::::::::::::::::::::::::::::::::::::::
         ::                  THERMODYNAMIC                  ::
         :::::::::::::::::::::::::::::::::::::::::::::::::::::
         :: total free energy        -101.622340635886 Eh   ::
         ::.................................................::
         :: total energy             -102.126439541098 Eh   ::
         :: zero point energy           0.570191467526 Eh   ::
         :: G(RRHO) w/o ZPVE           -0.066092562314 Eh   ::
         :: G(RRHO) contrib.            0.504098905212 Eh   ::
         :::::::::::::::::::::::::::::::::::::::::::::::::::::

           -------------------------------------------------
          | TOTAL ENERGY             -102.126439541098 Eh   |
          | TOTAL ENTHALPY           -101.517387508361 Eh   |
          | TOTAL FREE ENERGY        -101.622340635886 Eh   |
          | GRADIENT NORM               0.000137881877 Eh/α |
           -------------------------------------------------

 * finished run on 2025/08/23 at 23:46:38.930
