   * xtb version 6.7.1 (edcfbbe) compiled by 'albert@albert-system' on 2024-07-22

   ID    Z sym.   atoms
    1    6 C      1-8, 10-31, 33-64
    2    7 N      9, 32
    3    1 H      65-140

          program call               : xtb data2507/toluene/6tBPA/6tBPA_toluene_T1_crest.xyz --gfn 2 --uhf 2 --gbsa toluene --ohess vtight --parallel 40 --molden --ceasefiles --namespace data2507/toluene/6tBPA/6tBPA_toluene_T1_finalOpt
      * Solvation model:               GBSA
        Solvent                        toluene
        Solvent mass                       9.2140E+01 g/mol
          :  Hamiltonian                  GFN2-xTB          :
 * total energy  :  -177.5078051 Eh     change       -0.4242025E-08 Eh
 * total energy  :  -177.5079270 Eh     change       -0.1219262E-03 Eh
 * total energy  :  -177.5080113 Eh     change       -0.8434403E-04 Eh
 * total energy  :  -177.5080574 Eh     change       -0.4601659E-04 Eh
 * total energy  :  -177.5080963 Eh     change       -0.3894232E-04 Eh
 * total energy  :  -177.5081635 Eh     change       -0.6723306E-04 Eh
 * total energy  :  -177.5082025 Eh     change       -0.3892815E-04 Eh
 * total energy  :  -177.5082670 Eh     change       -0.6458787E-04 Eh
 * total energy  :  -177.5083035 Eh     change       -0.3643953E-04 Eh
 * total energy  :  -177.5083310 Eh     change       -0.2747003E-04 Eh
 * total energy  :  -177.5084808 Eh     change       -0.3504437E-06 Eh
 * total energy  :  -177.5084812 Eh     change       -0.3833707E-06 Eh
 * total energy  :  -177.5084807 Eh     change        0.4602249E-06 Eh
 * total energy  :  -177.5084812 Eh     change       -0.4850024E-06 Eh
 * total energy  :  -177.5084813 Eh     change       -0.1343365E-06 Eh
 * total energy  :  -177.5084816 Eh     change       -0.2362556E-06 Eh
 * total energy  :  -177.5084817 Eh     change       -0.1618764E-06 Eh
 * total energy  :  -177.5084818 Eh     change       -0.1030892E-06 Eh
 * total energy  :  -177.5084819 Eh     change       -0.9925009E-07 Eh
   *** GEOMETRY OPTIMIZATION CONVERGED AFTER 52 ITERATIONS ***

 final structure:
================
140
 xtb: 6.7.1 (edcfbbe)
C            5.80146684046589       -4.60726768871327        2.61955607193393
C            6.40592724261738       -3.55667996299138        1.68325321363648
C            7.61259547806739       -2.92153477012048        2.39086468658786
C            6.86985212895705       -4.26805143060290        0.40329226094852
C            5.41558653284723       -2.46367997037009        1.31420533198235
C            4.10470139667330       -2.43282418862583        1.77831084726199
C            3.23564937319094       -1.41904752233204        1.42576866668532
C            3.64672108804609       -0.38717852040938        0.58346154136882
N            2.74795651137366        0.61423808197599        0.21894298071773
C            3.17571381306952        1.91343959623110       -0.04865428817582
C            2.48766806149334        2.69419710615059       -0.97905416398921
C            2.88829559029844        3.98609227653742       -1.24081583193177
C            3.98610029022628        4.56102449190946       -0.60116681414795
C            4.38471434761625        5.99153617036429       -0.92789431012063
C            5.61427421033971        6.45652615262271       -0.14149354161263
C            3.21462168563658        6.92561010035990       -0.58398736699442
C            4.70879348918017        6.09449017365216       -2.42602778129215
C            4.66334705362698        3.77505390528351        0.32578494302870
C            4.26909637590567        2.48106498697939        0.60512394619568
C            1.38465120897458        0.30523591148096        0.11098915532823
C            0.43491869798289        1.04674667256843        0.87450442457265
C            0.81157526963298        2.01183904700788        1.81219376546060
C           -0.12026461898955        2.69108301499884        2.58760337205490
C           -1.47118246815269        2.40304672622270        2.49215756831333
C           -2.54417428305638        3.11019444880762        3.30316028090326
C           -1.96851305149569        4.19168487830131        4.22254381597939
C           -3.28224699406136        2.08315493595867        4.17500347665526
C           -3.53640629762406        3.77841565655799        2.33904246776535
C           -1.85362781684959        1.40122044242357        1.59569611580247
C           -0.95099517493309        0.73422550962351        0.76698557548467
C           -1.36562529373604       -0.31672538399501       -0.10989176861556
N           -2.72909042238425       -0.62355812881308       -0.22044474353525
C           -3.62690987122051        0.38107983549601       -0.57817848479491
C           -4.93713302964087        0.40682755224160       -0.09468671573749
C           -5.79199529930081        1.42764253132746       -0.44984853626643
C           -5.39154428576571        2.46853752163021       -1.28781002213516
C           -6.37845669688492        3.56952925669241       -1.64196837955024
C           -6.83442183554233        4.26935800383343       -0.35277740671560
C           -5.77269282837021        4.62733738891790       -2.56923637996438
C           -7.59064921325632        2.94737152643974       -2.35162650348209
C           -4.08241214017857        2.43666445458560       -1.75685122333030
C           -3.21547416134300        1.41755409351445       -1.41465784962595
C           -3.16034981367681       -1.92205662227535        0.04546223586199
C           -2.47960322825256       -2.70515885258024        0.97631933974471
C           -2.88368068896968       -3.99865205799976        1.24211855424867
C           -3.97985754816789       -4.56597161345466        0.60083221500446
C           -4.46066809553435       -5.98346903287426        0.86840970397003
C           -5.90888233613968       -5.93437836604677        1.37849411077226
C           -4.39725859418125       -6.78966044868808       -0.43782479677281
C           -3.60975515315822       -6.70666906414586        1.91677140113252
C           -4.65055292633141       -3.77502691889772       -0.33212978997837
C           -4.25508469027717       -2.48539253618053       -0.61375921050214
C           -0.41570967556128       -1.05896824382171       -0.87258497834870
C           -0.79186276836643       -2.02439276277412       -1.81013258081696
C            0.14043672511859       -2.70453612189727       -2.58429265718122
C            1.49147910759441       -2.41744021823818       -2.48750181636368
C            2.56479325486606       -3.12498049901652       -3.29775161945428
C            3.55931400596211       -3.78944218470779       -2.33340194476241
C            1.98988112444782       -4.20947221588640       -4.21405895552544
C            3.30017008200896       -2.09856106837643       -4.17261248476018
C            1.87357810997941       -1.41530815453843       -1.59125442208017
C            0.97031884737068       -0.74699753439189       -0.76428777775315
C            4.95776932699582       -0.41369828793489        0.10237859831116
C            5.81474981971525       -1.42910454451531        0.46785137722408
H            6.55154294793272       -5.36129168838938        2.85019305298104
H            4.95568544949231       -5.10662545318367        2.15222310246015
H            5.47809754509117       -4.15799762618424        3.55593864483179
H            8.11998617802789       -2.20848800796881        1.74682446450825
H            7.28978737701029       -2.39986593312467        3.28996564777173
H            8.32693392185666       -3.69114178248778        2.67606287072141
H            7.36241647456302       -3.57947361359939       -0.27770564269732
H            6.01756472335578       -4.70637642056823       -0.11160199790556
H            7.57089774381139       -5.06271114530165        0.65025176859836
H            3.73651895442193       -3.20414450401462        2.43468722839549
H            2.22440074826661       -1.41520824705812        1.80631633154506
H            1.63839386839094        2.27117210104007       -1.49607689030797
H            2.32918656394434        4.55322453325520       -1.96976081791703
H            5.85442277358745        7.48126853074693       -0.41824169273857
H            5.42565872020040        6.43420854456853        0.92949504148116
H            6.47981963531715        5.83682729905448       -0.36510576708058
H            2.96341435802125        6.84008865651838        0.47163288450167
H            2.32895537533984        6.68128409090651       -1.16418761454801
H            3.48567010520147        7.95855944599574       -0.79261462535262
H            5.01463032281387        7.10885239432975       -2.67398000164543
H            5.52058079616353        5.41655457394950       -2.68296122975644
H            3.84678066991497        5.84031554866335       -3.03658020939918
H            5.51271170942486        4.16706631740011        0.86112659805144
H            4.80033179159973        1.90907622399729        1.35261988572633
H            1.85631189699053        2.24190563194896        1.95296020920369
H            0.24531603657382        3.44040014117304        3.27089522168680
H           -2.77763029973115        4.67457080631028        4.76746372854512
H           -1.44645599287553        4.95408863362086        3.64848232910496
H           -1.28239575933065        3.76214896230657        4.94929727539329
H           -2.58178204961522        1.58258686508899        4.84112116136271
H           -3.77297404829720        1.32804866946969        3.56682354125958
H           -4.03963211055358        2.57924195129289        4.77881321519470
H           -4.31029750521033        4.29987806953107        2.89914290940192
H           -4.01489027441154        3.04774273052966        1.69200345022479
H           -3.01791077140964        4.49960651456857        1.70954005911437
H           -2.89383738162525        1.12634534965276        1.54455501547571
H           -5.27362979810163       -0.36779485307249        0.57981448520096
H           -6.79413519780690        1.41216870316621       -0.04833849039133
H           -7.32589334973136        3.57541986177686        0.32356196013410
H           -5.97846726606503        4.69985654186470        0.16261694181948
H           -7.53424589708822        5.06848470303983       -0.58852192519775
H           -6.51976674262355        5.38786393920226       -2.78796961455340
H           -4.92220333271502        5.11696757467416       -2.10014888577384
H           -5.45595041847927        4.18690784019587       -3.51206206114334
H           -8.30163834910835        3.72341551898596       -2.62761814671078
H           -7.27345019051271        2.43215980685126       -3.25642994874357
H           -8.09997522957868        2.23132683820958       -1.71245406062338
H           -3.71379815364205        3.21172636197084       -2.40857592970893
H           -2.20532218931194        1.41348939106147       -1.79813755599816
H           -1.63004990960741       -2.28540919664337        1.49564677280933
H           -2.32487263242422       -4.55913848507466        1.97361827254241
H           -6.26610290116236       -6.94054807462247        1.58801424534099
H           -6.57244385285458       -5.48342473868158        0.64570186544611
H           -5.96493053355370       -5.34998820495271        2.29501257563115
H           -3.37827656814794       -6.80598014601023       -0.82002230931132
H           -5.04028937396474       -6.36002679653303       -1.20107735098120
H           -4.71653370116870       -7.81471768568280       -0.26103535274481
H           -2.57559132184572       -6.79147254813363        1.59050629911684
H           -3.64127965277965       -6.18780165805990        2.87224220484676
H           -3.99823771796813       -7.71203955925247        2.06745760430023
H           -5.50019333765719       -4.17283498258435       -0.86654102795232
H           -4.78140871885298       -1.91123123120031       -1.36301687880914
H           -1.83654257140913       -2.25411076513312       -1.95193318642839
H           -0.22496029937932       -3.45387367605186       -3.26768531658110
H            4.03920457076014       -3.05636077569744       -1.69017490219061
H            3.04257172325272       -4.50844434237860       -1.69996309606535
H            4.33209582170948       -4.31275511563739       -2.89330415197316
H            1.30308301720402       -3.78262790974926       -4.94173397578640
H            1.46871234229191       -4.97081554839679       -3.63776870477458
H            2.79926295471648       -4.69301680614740       -4.75799636955263
H            3.78913882444902       -1.34066190835880       -3.56647399227527
H            4.05857737712877       -2.59442497764656       -4.77532205060028
H            2.59833536574542       -1.60140116777900       -4.83983515883870
H            2.91390034537804       -1.14100958100740       -1.53885108553586
H            5.29354111994744        0.35654418335721       -0.57746910083292
H            6.81776791024528       -1.41410769238240        0.06851496714052

          :  Hamiltonian                  GFN2-xTB          :
         :: gradient norm              0.000035628556 Eh/a0 ::
         :: HOMO-LUMO gap              1.263425773181 eV    ::
         :: SCC energy              -180.560845855563 Eh    ::
         :: -> dispersion             -0.184474279697 Eh    ::
         :: -> Gsolv                  -0.062943631306 Eh    ::
         :: repulsion energy           3.052363917142 Eh    ::

    * Orbital Energies and Occupations

         #    Occupation            Energy/Eh            Energy/eV
      -------------------------------------------------------------
         1        2.0000           -0.6609459             -17.9853
       ...           ...                  ...                  ...
       156        2.0000           -0.4027854             -10.9603
       157        2.0000           -0.4021002             -10.9417
       158        2.0000           -0.4001314             -10.8881
       159        2.0000           -0.4000968             -10.8872
       160        2.0000           -0.3984795             -10.8432
       161        2.0000           -0.3941555             -10.7255
       162        2.0000           -0.3866091             -10.5202
       163        2.0000           -0.3839924             -10.4490
       164        2.0000           -0.3836744             -10.4403
       165        2.0000           -0.3580467              -9.7429
       166        2.0000           -0.3519692              -9.5776
       167        1.0000           -0.3261315              -8.8745
       168        1.0000           -0.2720293              -7.4023 (HOMO)
       169                         -0.2255992              -6.1389 (LUMO)
       170                         -0.2253288              -6.1315
       171                         -0.2209751              -6.0130
       172                         -0.2204140              -5.9978
       173                         -0.2173458              -5.9143
       174                         -0.2172441              -5.9115
       175                         -0.2132231              -5.8021
       176                         -0.2079483              -5.6586
       177                         -0.2022159              -5.5026
       178                         -0.1995928              -5.4312
       179                         -0.1624630              -4.4208
       ...                                ...                  ...
       332                          0.7124525              19.3868
      -------------------------------------------------------------
                  HL-Gap            0.0464301 Eh            1.2634 eV

     #   Z          covCN         q      C6AA      α(0)
     1   6 C        3.761    -0.107    22.598     6.777
     2   6 C        3.902     0.026    20.087     6.371
     3   6 C        3.761    -0.105    22.555     6.770
     4   6 C        3.761    -0.106    22.564     6.771
     5   6 C        2.972     0.003    27.961     8.674
     6   6 C        2.924    -0.039    28.964     8.826
     7   6 C        2.922    -0.047    29.172     8.857
     8   6 C        2.924     0.065    26.539     8.448
     9   7 N        2.750    -0.055    22.306     7.015
    10   6 C        2.924     0.065    26.541     8.448
    11   6 C        2.921    -0.047    29.172     8.857
    12   6 C        2.926    -0.035    28.872     8.812
    13   6 C        2.972     0.002    27.968     8.675
    14   6 C        3.902     0.026    20.089     6.371
    15   6 C        3.761    -0.107    22.601     6.777
    16   6 C        3.761    -0.105    22.546     6.769
    17   6 C        3.761    -0.105    22.556     6.770
    18   6 C        2.924    -0.041    29.008     8.832
    19   6 C        2.920    -0.051    29.263     8.871
    20   6 C        2.922     0.022    27.507     8.601
    21   6 C        2.976    -0.007    28.192     8.710
    22   6 C        2.919    -0.052    29.295     8.876
    23   6 C        2.920    -0.048    29.204     8.862
    24   6 C        2.969    -0.001    28.050     8.687
    25   6 C        3.903     0.024    20.117     6.375
    26   6 C        3.761    -0.105    22.544     6.769
    27   6 C        3.761    -0.102    22.489     6.760
    28   6 C        3.761    -0.100    22.461     6.756
    29   6 C        2.930    -0.055    29.366     8.887
    30   6 C        2.975    -0.006    28.156     8.704
    31   6 C        2.922     0.022    27.509     8.601
    32   7 N        2.750    -0.055    22.306     7.015
    33   6 C        2.924     0.065    26.538     8.448
    34   6 C        2.919    -0.051    29.259     8.870
    35   6 C        2.926    -0.036    28.906     8.817
    36   6 C        2.972     0.003    27.961     8.674
    37   6 C        3.902     0.026    20.087     6.371
    38   6 C        3.761    -0.106    22.565     6.772
    39   6 C        3.761    -0.107    22.598     6.777
    40   6 C        3.761    -0.105    22.554     6.770
    41   6 C        2.924    -0.039    28.964     8.826
    42   6 C        2.922    -0.047    29.172     8.857
    43   6 C        2.924     0.065    26.541     8.449
    44   6 C        2.922    -0.048    29.181     8.859
    45   6 C        2.924    -0.039    28.977     8.828
    46   6 C        2.972     0.002    27.967     8.675
    47   6 C        3.902     0.026    20.090     6.371
    48   6 C        3.761    -0.105    22.557     6.770
    49   6 C        3.761    -0.105    22.550     6.769
    50   6 C        3.761    -0.107    22.598     6.777
    51   6 C        2.926    -0.036    28.902     8.816
    52   6 C        2.919    -0.050    29.249     8.869
    53   6 C        2.976    -0.007    28.193     8.710
    54   6 C        2.919    -0.052    29.297     8.876
    55   6 C        2.920    -0.049    29.206     8.862
    56   6 C        2.969    -0.001    28.052     8.688
    57   6 C        3.903     0.024    20.117     6.375
    58   6 C        3.761    -0.100    22.461     6.756
    59   6 C        3.761    -0.104    22.543     6.768
    60   6 C        3.761    -0.102    22.489     6.760
    61   6 C        2.930    -0.055    29.366     8.887
    62   6 C        2.975    -0.006    28.156     8.704
    63   6 C        2.919    -0.051    29.258     8.870
    64   6 C        2.926    -0.036    28.906     8.817
    65   1 H        0.925     0.038     2.477     2.461
    66   1 H        0.925     0.036     2.501     2.473
    67   1 H        0.925     0.035     2.511     2.478
    68   1 H        0.925     0.037     2.491     2.468
    69   1 H        0.925     0.032     2.554     2.499
    70   1 H        0.925     0.039     2.461     2.453
    71   1 H        0.925     0.037     2.491     2.468
    72   1 H        0.925     0.035     2.513     2.479
    73   1 H        0.925     0.039     2.465     2.455
    74   1 H        0.926     0.040     2.451     2.448
    75   1 H        0.926     0.027     2.633     2.538
    76   1 H        0.926     0.027     2.628     2.535
    77   1 H        0.926     0.033     2.548     2.496
    78   1 H        0.925     0.038     2.475     2.460
    79   1 H        0.925     0.036     2.502     2.474
    80   1 H        0.925     0.036     2.498     2.472
    81   1 H        0.925     0.032     2.552     2.498
    82   1 H        0.925     0.036     2.500     2.473
    83   1 H        0.925     0.039     2.458     2.452
    84   1 H        0.925     0.039     2.458     2.452
    85   1 H        0.925     0.033     2.545     2.495
    86   1 H        0.925     0.037     2.495     2.470
    87   1 H        0.926     0.041     2.441     2.443
    88   1 H        0.926     0.030     2.585     2.514
    89   1 H        0.926     0.016     2.800     2.617
    90   1 H        0.926     0.024     2.673     2.557
    91   1 H        0.925     0.035     2.512     2.478
    92   1 H        0.925     0.034     2.533     2.489
    93   1 H        0.925     0.034     2.536     2.490
    94   1 H        0.925     0.031     2.579     2.511
    95   1 H        0.925     0.034     2.531     2.488
    96   1 H        0.925     0.037     2.494     2.469
    97   1 H        0.925     0.036     2.498     2.472
    98   1 H        0.925     0.034     2.524     2.485
    99   1 H        0.925     0.029     2.602     2.522
   100   1 H        0.926     0.021     2.711     2.575
   101   1 H        0.926     0.029     2.599     2.521
   102   1 H        0.926     0.034     2.535     2.490
   103   1 H        0.925     0.037     2.491     2.468
   104   1 H        0.925     0.035     2.511     2.478
   105   1 H        0.925     0.039     2.465     2.455
   106   1 H        0.925     0.038     2.477     2.461
   107   1 H        0.925     0.036     2.501     2.473
   108   1 H        0.925     0.035     2.512     2.479
   109   1 H        0.925     0.039     2.461     2.453
   110   1 H        0.925     0.032     2.555     2.500
   111   1 H        0.925     0.037     2.492     2.468
   112   1 H        0.926     0.040     2.454     2.449
   113   1 H        0.926     0.027     2.636     2.539
   114   1 H        0.926     0.027     2.627     2.534
   115   1 H        0.926     0.040     2.451     2.448
   116   1 H        0.925     0.039     2.458     2.452
   117   1 H        0.925     0.037     2.490     2.468
   118   1 H        0.925     0.033     2.546     2.495
   119   1 H        0.925     0.033     2.551     2.498
   120   1 H        0.925     0.037     2.493     2.469
   121   1 H        0.925     0.039     2.459     2.452
   122   1 H        0.925     0.036     2.506     2.476
   123   1 H        0.925     0.036     2.503     2.474
   124   1 H        0.925     0.038     2.474     2.460
   125   1 H        0.926     0.034     2.536     2.490
   126   1 H        0.926     0.030     2.586     2.515
   127   1 H        0.926     0.016     2.799     2.616
   128   1 H        0.926     0.024     2.673     2.557
   129   1 H        0.925     0.034     2.524     2.485
   130   1 H        0.925     0.029     2.603     2.523
   131   1 H        0.925     0.036     2.498     2.472
   132   1 H        0.925     0.034     2.535     2.490
   133   1 H        0.925     0.034     2.535     2.490
   134   1 H        0.925     0.035     2.512     2.479
   135   1 H        0.925     0.034     2.530     2.487
   136   1 H        0.925     0.037     2.493     2.469
   137   1 H        0.925     0.031     2.579     2.511
   138   1 H        0.926     0.021     2.711     2.575
   139   1 H        0.926     0.029     2.599     2.521
   140   1 H        0.926     0.034     2.535     2.490

molecular dipole:
                 x           y           z       tot (Debye)
 q only:       -0.003       0.002       0.006
   full:       -0.017       0.004      -0.005       0.046

 projected vibrational frequencies (cm⁻¹)
eigval :       -0.00    -0.00    -0.00     0.00     0.00     0.00
eigval :      -10.58     6.25    10.69    17.06    20.85    22.74
eigval :       23.38    23.91    26.76    27.44    28.52    30.46
eigval :       31.41    41.52    46.54    62.50    65.46    68.26
eigval :       73.16    79.09    80.26    85.35    87.80    95.66
eigval :      103.81   109.25   128.09   131.22   135.88   140.36
eigval :      154.40   160.23   167.04   170.21   171.25   174.02
eigval :      175.72   179.75   182.73   183.27   184.78   202.83
eigval :      207.50   213.38   220.16   220.90   222.36   224.35
eigval :      227.15   233.20   238.66   240.66   251.91   254.07
eigval :      257.38   263.85   270.63   278.21   298.48   301.67
eigval :      307.51   310.95   311.26   311.56   314.76   315.84
eigval :      316.45   318.81   326.86   332.56   336.03   338.13
eigval :      340.00   340.74   349.38   356.68   356.88   358.57
eigval :      361.32   378.61   381.52   382.90   383.33   390.61
eigval :      391.13   392.79   398.80   399.49   408.33   411.26
eigval :      416.25   416.60   424.94   430.19   432.09   445.87
eigval :      452.26   452.88   457.41   458.08   462.38   471.21
eigval :      476.71   479.69   485.54   510.51   530.22   533.83
eigval :      535.25   538.96   540.60   551.97   570.33   572.28
eigval :      584.27   586.57   606.34   607.05   607.37   608.10
eigval :      608.53   620.78   631.50   635.21   675.47   684.56
eigval :      685.03   685.66   686.25   694.36   698.89   712.41
eigval :      723.73   723.79   730.64   782.75   792.58   792.96
eigval :      808.16   809.74   810.26   815.70   830.12   832.60
eigval :      832.95   851.45   861.28   862.92   866.27   870.21
eigval :      871.47   873.12   875.14   880.55   881.01   885.69
eigval :      887.17   906.20   908.44   910.75   912.46   914.70
eigval :      922.83   924.14   929.54   929.76   933.36   934.49
eigval :      958.10   958.67   958.82   959.10   959.29   959.30
eigval :      960.73   961.00   961.17   961.21   961.68   961.82
eigval :      962.07   962.90   962.97   963.11   964.08   965.10
eigval :      967.48   994.62  1001.38  1001.98  1021.27  1023.33
eigval :     1033.61  1033.70  1033.71  1034.29  1034.42  1034.50
eigval :     1034.79  1034.90  1035.03  1035.59  1036.07  1036.78
eigval :     1075.79  1138.62  1141.90  1142.26  1142.54  1143.26
eigval :     1150.17  1151.13  1152.80  1153.36  1156.81  1160.71
eigval :     1164.36  1194.03  1204.47  1205.54  1209.90  1210.46
eigval :     1223.77  1223.91  1224.44  1224.61  1224.77  1224.84
eigval :     1231.24  1231.47  1231.55  1231.57  1232.30  1232.68
eigval :     1244.29  1250.62  1255.41  1269.03  1275.71  1276.00
eigval :     1278.06  1281.02  1282.44  1282.82  1287.56  1290.76
eigval :     1293.12  1295.22  1298.86  1305.19  1317.16  1318.56
eigval :     1320.07  1323.13  1323.40  1327.24  1328.82  1342.04
eigval :     1362.29  1364.29  1383.52  1391.56  1397.74  1398.30
eigval :     1399.90  1400.36  1401.48  1401.56  1401.67  1402.49
eigval :     1402.71  1403.47  1404.81  1405.48  1409.21  1409.51
eigval :     1416.79  1417.08  1425.89  1425.93  1426.07  1426.28
eigval :     1427.52  1428.15  1435.48  1476.20  1478.08  1478.35
eigval :     1482.06  1483.01  1487.53  1487.95  1488.26  1488.33
eigval :     1489.04  1489.23  1490.58  1491.30  1491.36  1492.12
eigval :     1493.24  1493.78  1494.39  1497.90  1498.23  1499.18
eigval :     1499.30  1500.60  1501.56  1501.76  1502.21  1502.63
eigval :     1503.17  1503.27  1506.37  1510.22  1510.40  1510.52
eigval :     1510.71  1511.09  1511.18  1516.07  1516.35  1517.20
eigval :     1517.23  1518.30  1519.11  1525.14  1545.90  1551.36
eigval :     1552.71  1553.13  1559.07  1559.28  1591.31  1591.58
eigval :     1597.85  1598.45  3015.83  3015.86  3017.25  3017.29
eigval :     3019.33  3019.34  3019.75  3019.88  3020.24  3020.33
eigval :     3020.65  3020.78  3020.87  3020.88  3021.76  3021.96
eigval :     3023.46  3023.62  3023.81  3024.00  3024.29  3024.51
eigval :     3025.45  3025.63  3026.30  3026.54  3027.69  3027.90
eigval :     3028.64  3028.78  3028.90  3029.30  3030.68  3031.03
eigval :     3031.78  3032.19  3034.23  3034.24  3035.71  3036.05
eigval :     3036.22  3036.25  3041.80  3041.96  3043.76  3044.03
eigval :     3044.25  3044.29  3045.57  3045.70  3047.08  3047.62
eigval :     3047.63  3047.65  3070.53  3070.94  3072.60  3072.76
eigval :     3075.11  3075.19  3077.18  3077.33  3085.67  3086.37
eigval :     3086.55  3086.82  3092.28  3092.30  3106.88  3107.26
eigval :     3111.04  3111.82  3112.24  3112.54  3118.97  3119.44

   temp. (K)  partition function   enthalpy   heat capacity  entropy
                                   cal/mol     cal/K/mol   cal/K/mol   J/K/mol
 298.15  VIB  0.129E+33            40462.015    243.782    252.180
         ROT  0.185E+09              888.752      2.981     40.811
         INT  0.239E+41            41350.767    246.763    292.991
         TR   0.239E+29             1481.254      4.968     46.074
         TOT                       42832.0208   251.7310   339.0648  1418.6470

       T/K    H(0)-H(T)+PV         H(T)/Eh          T*S/Eh         G(T)/Eh
   ------------------------------------------------------------------------
    298.15    0.682572E-01    0.126504E+01    0.161101E+00    0.110394E+01
   ------------------------------------------------------------------------

         :::::::::::::::::::::::::::::::::::::::::::::::::::::
         ::                  THERMODYNAMIC                  ::
         :::::::::::::::::::::::::::::::::::::::::::::::::::::
         :: total free energy        -176.404538394661 Eh   ::
         ::.................................................::
         :: total energy             -177.508481942332 Eh   ::
         :: zero point energy           1.196786991364 Eh   ::
         :: G(RRHO) w/o ZPVE           -0.092843443692 Eh   ::
         :: G(RRHO) contrib.            1.103943547671 Eh   ::
         :::::::::::::::::::::::::::::::::::::::::::::::::::::

           -------------------------------------------------
          | TOTAL ENERGY             -177.508481942332 Eh   |
          | TOTAL ENTHALPY           -176.243437781014 Eh   |
          | TOTAL FREE ENERGY        -176.404538394661 Eh   |
          | GRADIENT NORM               0.000035753265 Eh/α |
          | HOMO-LUMO GAP               1.263427446645 eV   |
           -------------------------------------------------

 * finished run on 2025/09/11 at 03:29:40.333
