   * xtb version 6.7.1 (edcfbbe) compiled by 'albert@albert-system' on 2024-07-22

   ID    Z sym.   atoms
    1    6 C      1-8, 10-31, 33-64
    2    7 N      9, 32
    3    1 H      65-140

          program call               : xtb data2507/toluene/6tBPA/6tBPA_toluene_S0_crest.xyz --gfn 2 --gbsa toluene --ohess vtight --parallel 40 --molden --ceasefiles --namespace data2507/toluene/6tBPA/6tBPA_toluene_S0_finalOpt
      * Solvation model:               GBSA
        Solvent                        toluene
        Solvent mass                       9.2140E+01 g/mol
          :  Hamiltonian                  GFN2-xTB          :
 * total energy  :  -177.5651889 Eh     change       -0.1533920E-08 Eh
 * total energy  :  -177.5653361 Eh     change       -0.1472893E-03 Eh
 * total energy  :  -177.5654567 Eh     change       -0.1205961E-03 Eh
 * total energy  :  -177.5655169 Eh     change       -0.6012434E-04 Eh
 * total energy  :  -177.5656027 Eh     change       -0.8583098E-04 Eh
 * total energy  :  -177.5657112 Eh     change       -0.1085238E-03 Eh
 * total energy  :  -177.5658770 Eh     change       -0.1657924E-03 Eh
 * total energy  :  -177.5659831 Eh     change       -0.1061110E-03 Eh
 * total energy  :  -177.5661195 Eh     change       -0.1363741E-03 Eh
 * total energy  :  -177.5662770 Eh     change       -0.1575145E-03 Eh
 * total energy  :  -177.5673880 Eh     change       -0.1390142E-05 Eh
 * total energy  :  -177.5673893 Eh     change       -0.1303917E-05 Eh
 * total energy  :  -177.5673904 Eh     change       -0.1104692E-05 Eh
 * total energy  :  -177.5673914 Eh     change       -0.1019604E-05 Eh
 * total energy  :  -177.5673925 Eh     change       -0.1057516E-05 Eh
 * total energy  :  -177.5673936 Eh     change       -0.1166290E-05 Eh
 * total energy  :  -177.5673951 Eh     change       -0.1453230E-05 Eh
 * total energy  :  -177.5673967 Eh     change       -0.1624565E-05 Eh
 * total energy  :  -177.5673967 Eh     change       -0.6451188E-08 Eh
   *** GEOMETRY OPTIMIZATION CONVERGED AFTER 94 ITERATIONS ***

 final structure:
================
140
 xtb: 6.7.1 (edcfbbe)
C            5.91073835759419       -0.75045515822585        5.48456595936655
C            5.89422575521555       -1.76995501293066        4.33532198818331
C            7.34565310980135       -2.08509579148647        3.95968061293089
C            5.22953654173276       -3.07134168529349        4.80813926455414
C            5.09936459761157       -1.19436332271493        3.17275014450769
C            3.76860704149990       -0.82432643214812        3.35850912589580
C            3.01309973305280       -0.28053051628896        2.34105785795053
C            3.56224933102031       -0.09111561442711        1.07298145531527
N            2.78737471355244        0.44258922660834        0.04316217977905
C            3.34610067297675        1.19884133480345       -0.98860455512045
C            2.77915617032754        1.17575128097098       -2.26031306074853
C            3.30222964796491        1.94338086427814       -3.28371664717740
C            4.41196033845185        2.75732404002180       -3.08986670318045
C            5.01977976729787        3.61693328627543       -4.18778816317352
C            6.48599565245006        3.20817314918040       -4.39437561902212
C            4.94741733710727        5.09255578728605       -3.76667407752036
C            4.29004431653927        3.46674376262483       -5.52613593215255
C            4.97065824812215        2.77372022689662       -1.81277850543236
C            4.45450185840019        2.02040606111912       -0.78009972726821
C            1.39328447369703        0.21599991870291        0.03977002406895
C            0.51087420703308        1.30962444125500        0.04782978856974
C            0.95690333103199        2.65223259658869        0.13435839383478
C            0.08866234213819        3.69654799387617        0.07205992435094
C           -1.30111515943480        3.49539819068823       -0.11428540397063
C           -2.21378710557193        4.70392521080266       -0.23693917396786
C           -1.74105652214485        5.58232533320234       -1.40467933733924
C           -2.14988192945907        5.49949286814414        1.07546726118303
C           -3.67306323885217        4.31492836097688       -0.49218547867697
C           -1.75710298723900        2.20862732410499       -0.14812475595173
C           -0.89673035185220        1.08869506868269       -0.02263361142703
C           -1.39504688187319       -0.22584162928043        0.02916191713755
N           -2.78958565573244       -0.44858080989786        0.02801472404809
C           -3.34414760685461       -1.24785421378828       -0.97257826750360
C           -4.46006255823478       -2.04925062749772       -0.73959532776717
C           -4.97212961402194       -2.85564488510572       -1.73809015078737
C           -4.39435994182584       -2.90959963115932       -3.00161974985440
C           -4.91613120646268       -3.79996584802069       -4.11916342220375
C           -6.15100885186459       -4.60581642185188       -3.70410813191338
C           -5.29854573064278       -2.92734668035691       -5.32405342397683
C           -3.81328736025102       -4.78972839641648       -4.52419351113257
C           -3.27733111240449       -2.10626556884947       -3.22208459006496
C           -2.76174271080870       -1.28843907400736       -2.23904513413112
C           -3.56903430026259        0.12698652984277        1.03233284762572
C           -4.88607015144590        0.52554788781830        0.79953581026439
C           -5.63116062491888        1.10239226199420        1.80581484526274
C           -5.10774002734523        1.32304823841541        3.07899965883589
C           -5.98091753106516        1.95427074108129        4.15304437638900
C           -7.21102436871432        1.06296797113423        4.38290057992141
C           -5.24976282816556        2.11094353037675        5.48987281367693
C           -6.43200252628003        3.34751381505499        3.68969458512442
C           -3.78921636918247        0.93916244577532        3.29437847472473
C           -3.03321397657435        0.35014249158351        2.29832439598911
C           -0.51286123776544       -1.31854819665999        0.08278988579376
C           -0.95997380718220       -2.65825980772148        0.20274090221266
C           -0.09136179650357       -3.70369916491949        0.17937202509382
C            1.30098252913985       -3.50779264697332        0.00692363175108
C            2.21286200027075       -4.72022852037942       -0.07580381587499
C            2.11995790473409       -5.49653358479516        1.24633084659892
C            1.76107459724106       -5.61407788593692       -1.24024802148288
C            3.67821484438868       -4.33885659516534       -0.30634023108789
C            1.75801184004297       -2.22241700973499       -0.05547371466242
C            0.89581185722528       -1.09962800487694        0.02403696460834
C            4.88561820158865       -0.47832183328680        0.86986452358933
C            5.63428154737810       -1.00954070285684        1.90268492731176
H            6.50236139326788       -1.13115168170665        6.31471420597758
H            4.90730908127406       -0.54614776509529        5.84789185764059
H            6.34953579577156        0.18740897981560        5.14899964016155
H            7.39381136693835       -2.83205860036503        3.17043058603885
H            7.86906316997126       -1.18852309695880        3.63485293730167
H            7.86626801281018       -2.48226188549956        4.82900776217984
H            5.77205248118524       -3.48199567616458        5.65737700576713
H            5.23448280520386       -3.80888729086893        4.00804497390094
H            4.19934752271741       -2.90245737750966        5.11025857268731
H            3.30142727530598       -0.95230001975781        4.32382008699190
H            1.98653775669609        0.00457843279164        2.52271590805713
H            1.91682758914883        0.55070380759246       -2.44451371261695
H            2.82345303736487        1.88707683749501       -4.24790114625154
H            6.54787872221245        2.15782622083356       -4.67319239362167
H            6.93274510729711        3.80326410266270       -5.18836827202798
H            7.06974198912742        3.35536516799036       -3.48977945825960
H            5.50517335235840        5.27058834541072       -2.85125492296581
H            3.91261858665634        5.38484066706858       -3.59788581088175
H            5.36271805793914        5.72629110662325       -4.54771064431501
H            4.76792556021627        4.09838745163370       -6.27259782163551
H            4.32982359359617        2.43897333870044       -5.88021328911534
H            3.25030046596655        3.77478656070704       -5.44131640818632
H            5.82651946247898        3.39866562787667       -1.60491288101655
H            4.90006659935596        2.07823528340344        0.20297003347984
H            2.01073119887409        2.84475172655059        0.26366374622247
H            0.47668279675422        4.70021330914600        0.15688932342828
H           -0.72954683143338        5.94638914432699       -1.24676779901087
H           -2.39839828068065        6.44241854077183       -1.51468790660723
H           -1.75783326838334        5.01384366589168       -2.33270076163937
H           -1.14490880083838        5.86535904910395        1.26864568983413
H           -2.44963854473080        4.86738226218871        1.90935107432162
H           -2.82146809340616        6.35425441345119        1.02871987863980
H           -3.77058509115353        3.75076017626535       -1.41731381836513
H           -4.27813307625869        5.21513121895542       -0.58038977228985
H           -4.06982987577864        3.72137965258130        0.32810931481885
H           -2.80626986484085        2.00913569227388       -0.27757733148611
H           -4.91938592632698       -2.05439728569947        0.23883086468018
H           -5.83405832497842       -3.45847470455413       -1.50184308854667
H           -5.92487940995631       -5.26745600092294       -2.87089197884510
H           -6.97175675028151       -3.94856458725978       -3.42547099168256
H           -6.48079031590488       -5.21976567947185       -4.54008615359210
H           -4.44082628352697       -2.37950375282943       -5.70465867090886
H           -5.69000687434887       -3.54813751807367       -6.12748119749603
H           -6.06385395183497       -2.20766019085546       -5.03937321525849
H           -3.52546563708880       -5.40151627605360       -3.67118887835261
H           -4.16969840028753       -5.44572212708313       -5.31591825091383
H           -2.92852349314289       -4.27106774058887       -4.88332767751540
H           -2.79153065215142       -2.10807590907762       -4.18650203673866
H           -1.89544413132321       -0.67573667945149       -2.44459064353475
H           -5.31963529168097        0.39265780194006       -0.18150441750193
H           -6.64537837322532        1.39661447440729        1.57981101996257
H           -7.81115998469871        0.97615161866090        3.48117635075087
H           -7.83602121353637        1.48175512020899        5.16911055377076
H           -6.90067180835441        0.06400315097443        4.68380229850883
H           -4.93317871112598        1.14535779439577        5.87809182440802
H           -5.91976124200674        2.56339082532234        6.21854213056412
H           -4.38009418844848        2.75639482498488        5.38754284600226
H           -5.56829115158443        3.99099203586079        3.53485117948475
H           -6.99001981433847        3.29493315690404        2.75879240542712
H           -7.06994438972926        3.80400751571040        4.44388804926127
H           -3.32405289908809        1.08632140378847        4.25571263851048
H           -2.01300170767107        0.05645325598305        2.50103913998421
H           -2.01529242242252       -2.84730055736958        0.32449630769767
H           -0.48084624411010       -4.70476188845177        0.28527259004777
H            1.11052988408474       -5.85760179758947        1.42431830441754
H            2.78987173910638       -6.35364887828629        1.22536268892800
H            2.40453948648419       -4.85378144410050        2.07724270720744
H            1.79820764308932       -5.05909997508897       -2.17584078213111
H            0.74519433289786       -5.97218100816704       -1.09735415148331
H            2.41740713219643       -6.47783462088468       -1.32455669866101
H            4.28293144689929       -5.24175773203848       -0.36501774387337
H            3.79768103285839       -3.79197959338274       -1.23919916559588
H            4.05798434242129       -3.73095122035857        0.51161080425181
H            2.80914788801344       -2.02589835240937       -0.17420636835291
H            5.32863928942154       -0.37316693258943       -0.11032034165202
H            6.65264433539961       -1.29137161275725        1.68918696026892

          :  Hamiltonian                  GFN2-xTB          :
         :: gradient norm              0.000065464488 Eh/a0 ::
         :: HOMO-LUMO gap              1.645445786164 eV    ::
         :: SCC energy              -180.633174698949 Eh    ::
         :: -> dispersion             -0.182944753038 Eh    ::
         :: -> Gsolv                  -0.063843058534 Eh    ::
         :: repulsion energy           3.065777968054 Eh    ::

    * Orbital Energies and Occupations

         #    Occupation            Energy/Eh            Energy/eV
      -------------------------------------------------------------
         1        2.0000           -0.6593920             -17.9430
       ...           ...                  ...                  ...
       155        2.0000           -0.4066240             -11.0648
       156        2.0000           -0.4032862             -10.9740
       157        2.0000           -0.4005003             -10.8982
       158        2.0000           -0.3987085             -10.8494
       159        2.0000           -0.3970709             -10.8048
       160        2.0000           -0.3966698             -10.7939
       161        2.0000           -0.3963868             -10.7862
       162        2.0000           -0.3913381             -10.6489
       163        2.0000           -0.3883861             -10.5685
       164        2.0000           -0.3852201             -10.4824
       165        2.0000           -0.3632482              -9.8845
       166        2.0000           -0.3470752              -9.4444
       167        2.0000           -0.3339933              -9.0884 (HOMO)
       168                         -0.2735242              -7.4430 (LUMO)
       169                         -0.2277236              -6.1967
       170                         -0.2221170              -6.0441
       171                         -0.2212315              -6.0200
       172                         -0.2171446              -5.9088
       173                         -0.2165400              -5.8924
       174                         -0.2140306              -5.8241
       175                         -0.2138491              -5.8191
       176                         -0.2133153              -5.8046
       177                         -0.1998212              -5.4374
       178                         -0.1962041              -5.3390
       ...                                ...                  ...
       332                          0.7148924              19.4532
      -------------------------------------------------------------
                  HL-Gap            0.0604690 Eh            1.6454 eV

     #   Z          covCN         q      C6AA      α(0)
     1   6 C        3.761    -0.104    22.539     6.768
     2   6 C        3.902     0.025    20.099     6.373
     3   6 C        3.761    -0.107    22.582     6.774
     4   6 C        3.761    -0.104    22.526     6.766
     5   6 C        2.971    -0.003    28.091     8.694
     6   6 C        2.927    -0.037    28.913     8.818
     7   6 C        2.922    -0.053    29.304     8.877
     8   6 C        2.920     0.066    26.532     8.447
     9   7 N        2.750    -0.083    22.848     7.099
    10   6 C        2.921     0.065    26.542     8.449
    11   6 C        2.923    -0.053    29.315     8.879
    12   6 C        2.925    -0.041    29.015     8.834
    13   6 C        2.972    -0.002    28.072     8.691
    14   6 C        3.902     0.025    20.100     6.373
    15   6 C        3.761    -0.105    22.544     6.769
    16   6 C        3.761    -0.104    22.541     6.768
    17   6 C        3.761    -0.106    22.581     6.774
    18   6 C        2.927    -0.037    28.931     8.821
    19   6 C        2.920    -0.054    29.330     8.881
    20   6 C        2.924     0.045    26.989     8.519
    21   6 C        2.982    -0.008    28.218     8.714
    22   6 C        2.915    -0.038    28.953     8.824
    23   6 C        2.922    -0.036    28.895     8.815
    24   6 C        2.969     0.007    27.864     8.659
    25   6 C        3.903     0.025    20.100     6.373
    26   6 C        3.761    -0.104    22.536     6.767
    27   6 C        3.762    -0.103    22.513     6.764
    28   6 C        3.761    -0.106    22.568     6.772
    29   6 C        2.925    -0.048    29.183     8.859
    30   6 C        2.981    -0.007    28.196     8.710
    31   6 C        2.924     0.045    26.987     8.519
    32   7 N        2.750    -0.083    22.846     7.099
    33   6 C        2.921     0.065    26.541     8.448
    34   6 C        2.921    -0.054    29.353     8.885
    35   6 C        2.925    -0.042    29.038     8.837
    36   6 C        2.972    -0.002    28.075     8.691
    37   6 C        3.902     0.025    20.100     6.373
    38   6 C        3.761    -0.107    22.583     6.774
    39   6 C        3.761    -0.104    22.543     6.768
    40   6 C        3.761    -0.104    22.538     6.768
    41   6 C        2.927    -0.037    28.909     8.818
    42   6 C        2.922    -0.052    29.302     8.877
    43   6 C        2.921     0.066    26.533     8.447
    44   6 C        2.920    -0.053    29.329     8.881
    45   6 C        2.927    -0.038    28.936     8.822
    46   6 C        2.971    -0.003    28.085     8.693
    47   6 C        3.902     0.025    20.099     6.373
    48   6 C        3.761    -0.104    22.541     6.768
    49   6 C        3.761    -0.106    22.573     6.773
    50   6 C        3.761    -0.104    22.536     6.767
    51   6 C        2.925    -0.041    29.018     8.834
    52   6 C        2.922    -0.053    29.313     8.879
    53   6 C        2.982    -0.008    28.220     8.714
    54   6 C        2.915    -0.038    28.952     8.823
    55   6 C        2.922    -0.036    28.892     8.815
    56   6 C        2.969     0.007    27.860     8.658
    57   6 C        3.903     0.025    20.099     6.373
    58   6 C        3.762    -0.104    22.523     6.765
    59   6 C        3.761    -0.104    22.537     6.767
    60   6 C        3.761    -0.105    22.560     6.771
    61   6 C        2.925    -0.047    29.179     8.858
    62   6 C        2.981    -0.007    28.193     8.710
    63   6 C        2.921    -0.054    29.353     8.885
    64   6 C        2.925    -0.042    29.042     8.838
    65   1 H        0.925     0.038     2.482     2.464
    66   1 H        0.925     0.035     2.513     2.479
    67   1 H        0.925     0.032     2.565     2.504
    68   1 H        0.925     0.036     2.506     2.476
    69   1 H        0.925     0.035     2.515     2.480
    70   1 H        0.925     0.037     2.493     2.469
    71   1 H        0.925     0.038     2.481     2.463
    72   1 H        0.925     0.033     2.549     2.497
    73   1 H        0.925     0.034     2.524     2.485
    74   1 H        0.926     0.027     2.628     2.535
    75   1 H        0.926     0.020     2.738     2.588
    76   1 H        0.926     0.021     2.724     2.581
    77   1 H        0.926     0.035     2.514     2.479
    78   1 H        0.925     0.032     2.559     2.501
    79   1 H        0.925     0.038     2.478     2.462
    80   1 H        0.925     0.036     2.502     2.474
    81   1 H        0.925     0.036     2.506     2.475
    82   1 H        0.925     0.032     2.557     2.500
    83   1 H        0.925     0.038     2.476     2.461
    84   1 H        0.925     0.037     2.490     2.468
    85   1 H        0.925     0.035     2.518     2.482
    86   1 H        0.925     0.035     2.516     2.480
    87   1 H        0.926     0.029     2.594     2.518
    88   1 H        0.926     0.026     2.638     2.540
    89   1 H        0.926     0.029     2.602     2.522
    90   1 H        0.926     0.030     2.585     2.514
    91   1 H        0.925     0.037     2.492     2.469
    92   1 H        0.925     0.039     2.460     2.453
    93   1 H        0.925     0.032     2.554     2.499
    94   1 H        0.925     0.037     2.493     2.469
    95   1 H        0.925     0.031     2.566     2.505
    96   1 H        0.925     0.040     2.453     2.449
    97   1 H        0.925     0.034     2.527     2.486
    98   1 H        0.925     0.039     2.467     2.456
    99   1 H        0.925     0.035     2.511     2.478
   100   1 H        0.926     0.040     2.454     2.450
   101   1 H        0.926     0.026     2.640     2.541
   102   1 H        0.926     0.036     2.496     2.471
   103   1 H        0.925     0.035     2.513     2.479
   104   1 H        0.925     0.035     2.512     2.479
   105   1 H        0.925     0.037     2.491     2.468
   106   1 H        0.925     0.035     2.510     2.477
   107   1 H        0.925     0.038     2.478     2.462
   108   1 H        0.925     0.032     2.558     2.501
   109   1 H        0.925     0.032     2.557     2.501
   110   1 H        0.925     0.038     2.477     2.461
   111   1 H        0.925     0.035     2.510     2.478
   112   1 H        0.926     0.028     2.613     2.528
   113   1 H        0.926     0.021     2.724     2.581
   114   1 H        0.926     0.027     2.630     2.536
   115   1 H        0.926     0.030     2.591     2.517
   116   1 H        0.925     0.036     2.500     2.473
   117   1 H        0.925     0.038     2.480     2.463
   118   1 H        0.925     0.031     2.567     2.505
   119   1 H        0.925     0.034     2.524     2.484
   120   1 H        0.925     0.037     2.492     2.469
   121   1 H        0.925     0.034     2.523     2.484
   122   1 H        0.925     0.033     2.551     2.498
   123   1 H        0.925     0.036     2.499     2.472
   124   1 H        0.925     0.038     2.482     2.464
   125   1 H        0.926     0.034     2.525     2.485
   126   1 H        0.926     0.020     2.737     2.587
   127   1 H        0.926     0.029     2.603     2.523
   128   1 H        0.926     0.030     2.584     2.514
   129   1 H        0.925     0.037     2.492     2.469
   130   1 H        0.925     0.039     2.457     2.451
   131   1 H        0.925     0.033     2.550     2.497
   132   1 H        0.925     0.032     2.552     2.498
   133   1 H        0.925     0.037     2.489     2.467
   134   1 H        0.925     0.039     2.460     2.453
   135   1 H        0.925     0.038     2.473     2.459
   136   1 H        0.925     0.034     2.526     2.485
   137   1 H        0.925     0.035     2.522     2.483
   138   1 H        0.926     0.039     2.457     2.451
   139   1 H        0.926     0.027     2.631     2.537
   140   1 H        0.926     0.037     2.494     2.470

molecular dipole:
                 x           y           z       tot (Debye)
 q only:       -0.013       0.001      -0.076
   full:       -0.013       0.007      -0.043       0.116

 projected vibrational frequencies (cm⁻¹)
eigval :       -0.00    -0.00    -0.00    -0.00     0.00     0.00
eigval :        7.71     8.61    14.67    17.97    21.70    24.28
eigval :       26.50    27.95    28.10    29.38    34.12    34.79
eigval :       35.53    39.74    46.00    61.46    64.62    68.49
eigval :       71.57    76.38    82.66    86.65    93.94    95.18
eigval :      108.71   113.12   134.87   141.36   146.78   150.61
eigval :      161.95   162.07   172.24   172.79   174.20   176.76
eigval :      181.80   182.08   183.32   186.26   190.97   195.40
eigval :      215.00   215.98   219.69   221.97   224.60   227.01
eigval :      227.56   230.11   230.82   235.52   242.95   247.12
eigval :      259.77   262.89   267.54   280.42   291.72   306.31
eigval :      309.98   312.32   313.45   314.73   317.80   318.11
eigval :      321.43   323.90   329.03   333.72   335.50   340.38
eigval :      344.04   344.11   357.32   358.12   361.41   362.85
eigval :      364.51   381.47   382.58   385.29   385.66   389.83
eigval :      390.60   392.21   394.51   401.65   407.85   413.23
eigval :      415.27   426.12   428.35   431.25   439.98   448.05
eigval :      448.40   453.36   457.69   457.98   462.39   463.40
eigval :      477.70   485.72   491.59   511.79   532.27   533.74
eigval :      536.15   536.45   547.06   557.62   571.66   578.81
eigval :      587.52   588.15   608.01   608.33   608.54   609.26
eigval :      631.51   636.00   642.15   642.63   682.99   683.90
eigval :      684.09   684.94   698.47   700.58   707.77   723.91
eigval :      724.68   732.03   732.82   781.39   809.71   810.87
eigval :      811.76   817.35   818.95   820.65   832.21   855.33
eigval :      866.33   867.02   867.90   869.61   871.39   873.78
eigval :      874.33   874.94   876.39   886.34   887.95   905.67
eigval :      911.09   913.03   917.30   917.64   922.38   922.99
eigval :      926.34   926.65   932.49   933.09   935.19   935.47
eigval :      958.59   958.79   959.01   959.49   959.86   960.59
eigval :      960.86   960.97   961.72   961.96   962.04   962.33
eigval :      963.08   963.17   963.34   963.84   963.86   966.24
eigval :      969.37   989.65  1000.88  1002.71  1024.34  1024.94
eigval :     1033.69  1034.35  1034.63  1034.66  1035.20  1035.28
eigval :     1035.36  1035.44  1036.03  1036.08  1036.81  1037.26
eigval :     1075.58  1135.41  1142.95  1143.87  1144.09  1144.28
eigval :     1144.94  1145.64  1152.35  1152.99  1156.44  1158.05
eigval :     1166.08  1198.50  1209.92  1210.53  1213.32  1214.93
eigval :     1224.90  1225.12  1225.23  1225.48  1225.97  1226.09
eigval :     1228.83  1230.92  1231.84  1231.92  1232.12  1232.41
eigval :     1248.71  1252.25  1262.94  1263.80  1270.30  1278.62
eigval :     1279.49  1279.64  1284.73  1285.21  1286.13  1288.09
eigval :     1288.29  1296.97  1300.90  1316.67  1319.42  1320.42
eigval :     1324.41  1324.68  1335.56  1336.69  1340.01  1346.30
eigval :     1394.41  1398.06  1398.93  1399.93  1400.86  1401.15
eigval :     1402.00  1402.31  1402.59  1403.00  1403.27  1404.03
eigval :     1404.14  1409.42  1410.02  1415.43  1416.74  1418.73
eigval :     1426.18  1426.33  1426.58  1427.22  1427.38  1427.95
eigval :     1429.00  1457.52  1466.25  1486.76  1487.22  1487.37
eigval :     1487.62  1488.18  1488.34  1488.60  1489.02  1489.94
eigval :     1490.02  1491.75  1491.84  1492.30  1492.49  1492.75
eigval :     1493.36  1498.45  1499.33  1500.69  1500.77  1500.89
eigval :     1500.97  1502.02  1502.59  1503.92  1504.14  1504.54
eigval :     1505.10  1510.80  1510.95  1511.10  1511.41  1511.51
eigval :     1512.57  1517.15  1517.45  1517.56  1517.67  1518.07
eigval :     1518.87  1521.50  1525.27  1534.74  1560.20  1560.45
eigval :     1566.41  1566.62  1602.24  1602.49  1605.75  1606.96
eigval :     1610.58  1623.30  3017.87  3018.28  3018.56  3018.84
eigval :     3018.96  3019.22  3019.25  3019.37  3019.83  3020.25
eigval :     3021.09  3021.25  3022.78  3022.82  3022.87  3023.07
eigval :     3024.06  3024.21  3024.28  3024.32  3024.74  3024.90
eigval :     3025.65  3025.97  3026.45  3026.63  3027.44  3027.59
eigval :     3027.66  3028.53  3030.07  3030.19  3030.54  3030.64
eigval :     3030.83  3030.91  3035.09  3035.14  3035.48  3035.66
eigval :     3036.79  3036.91  3041.97  3043.11  3043.16  3043.50
eigval :     3044.01  3044.07  3046.28  3046.38  3046.56  3047.47
eigval :     3047.89  3047.99  3068.99  3069.15  3069.33  3069.88
eigval :     3071.91  3073.14  3073.34  3073.81  3081.41  3081.68
eigval :     3082.82  3083.44  3083.59  3084.93  3099.56  3100.20
eigval :     3106.99  3108.49  3108.79  3109.36  3140.04  3141.54

   temp. (K)  partition function   enthalpy   heat capacity  entropy
                                   cal/mol     cal/K/mol   cal/K/mol   J/K/mol
 298.15  VIB  0.234E+32            40190.496    242.954    249.592
         ROT  0.189E+09              888.752      2.981     40.848
         INT  0.442E+40            41079.249    245.935    290.440
         TR   0.239E+29             1481.254      4.968     46.074
         TOT                       42560.5026   250.9029   336.5136  1407.9728

       T/K    H(0)-H(T)+PV         H(T)/Eh          T*S/Eh         G(T)/Eh
   ------------------------------------------------------------------------
    298.15    0.678245E-01    0.126744E+01    0.159888E+00    0.110755E+01
   ------------------------------------------------------------------------

         :::::::::::::::::::::::::::::::::::::::::::::::::::::
         ::                  THERMODYNAMIC                  ::
         :::::::::::::::::::::::::::::::::::::::::::::::::::::
         :: total free energy        -176.459842234739 Eh   ::
         ::.................................................::
         :: total energy             -177.567396724629 Eh   ::
         :: zero point energy           1.199618474730 Eh   ::
         :: G(RRHO) w/o ZPVE           -0.092063984840 Eh   ::
         :: G(RRHO) contrib.            1.107554489890 Eh   ::
         :::::::::::::::::::::::::::::::::::::::::::::::::::::

           -------------------------------------------------
          | TOTAL ENERGY             -177.567396724629 Eh   |
          | TOTAL ENTHALPY           -176.299953771735 Eh   |
          | TOTAL FREE ENERGY        -176.459842234739 Eh   |
          | GRADIENT NORM               0.000065465767 Eh/α |
          | HOMO-LUMO GAP               1.645445816699 eV   |
           -------------------------------------------------

 * finished run on 2025/09/11 at 02:09:18.385
