   * xtb version 6.7.1 (edcfbbe) compiled by 'albert@albert-system' on 2024-07-22

   ID    Z sym.   atoms
    1    6 C      1-8, 10-31, 33-64
    2    7 N      9, 32
    3    1 H      65-140

          program call               : xtb data2507/toluene/6tBPA/6tBPA_toluene_S0_finalOpt.xtbopt.xyz --gfn 2 --uhf 2 --gbsa toluene --ohess vtight --parallel 40 --molden --ceasefiles --namespace data2507/toluene/6tBPA/6tBPA_toluene_T1_preOpt
      * Solvation model:               GBSA
        Solvent                        toluene
        Solvent mass                       9.2140E+01 g/mol
          :  Hamiltonian                  GFN2-xTB          :
 * total energy  :  -177.5014173 Eh     change       -0.1889705E-07 Eh
 * total energy  :  -177.5055761 Eh     change       -0.4158797E-02 Eh
 * total energy  :  -177.5067052 Eh     change       -0.1129104E-02 Eh
 * total energy  :  -177.5068083 Eh     change       -0.1030795E-03 Eh
 * total energy  :  -177.5068662 Eh     change       -0.5787913E-04 Eh
 * total energy  :  -177.5068805 Eh     change       -0.1431303E-04 Eh
 * total energy  :  -177.5068941 Eh     change       -0.1360117E-04 Eh
 * total energy  :  -177.5069008 Eh     change       -0.6728152E-05 Eh
 * total energy  :  -177.5069069 Eh     change       -0.6033822E-05 Eh
 * total energy  :  -177.5069094 Eh     change       -0.2544256E-05 Eh
 * total energy  :  -177.5069369 Eh     change       -0.2010747E-05 Eh
 * total energy  :  -177.5069381 Eh     change       -0.1210224E-05 Eh
 * total energy  :  -177.5069385 Eh     change       -0.4369427E-06 Eh
 * total energy  :  -177.5069393 Eh     change       -0.8419951E-06 Eh
 * total energy  :  -177.5069395 Eh     change       -0.1182181E-06 Eh
 * total energy  :  -177.5069396 Eh     change       -0.1804631E-06 Eh
 * total energy  :  -177.5069398 Eh     change       -0.1197428E-06 Eh
 * total energy  :  -177.5069399 Eh     change       -0.1105278E-06 Eh
 * total energy  :  -177.5069400 Eh     change       -0.9912267E-07 Eh
   *** GEOMETRY OPTIMIZATION CONVERGED AFTER 28 ITERATIONS ***

 final structure:
================
140
 xtb: 6.7.1 (edcfbbe)
C            5.91114748421578       -0.74446162714052        5.45238333269015
C            5.89358251275576       -1.77051860539126        4.30868931179600
C            7.34436378579827       -2.08645227505140        3.93150116475927
C            5.23011275640755       -3.06957539266207        4.78963901416452
C            5.09608010692523       -1.20032871911284        3.14613876340968
C            3.76399302796408       -0.83191177865144        3.33463261285810
C            3.00720540550693       -0.29005686996083        2.31882704404841
C            3.55722556059005       -0.09704794653862        1.04999192209254
N            2.77901939013682        0.44578028311018        0.03012290644250
C            3.34514918773380        1.21073865237708       -0.98798571769465
C            2.78261743197693        1.19518302592773       -2.26350437352462
C            3.31847043166174        1.95806620138473       -3.28219565364013
C            4.43462774048650        2.76306176712835       -3.07970585131667
C            5.05890985941784        3.61395789559300       -4.17429160026132
C            6.52334038630011        3.19130850670571       -4.36614261723916
C            4.99557454429667        5.09118244338943       -3.75712953690802
C            4.33978265251586        3.46616965404794       -5.51859416583676
C            4.98523148089894        2.77628569811291       -1.79802395884749
C            4.45850422985786        2.02530619319837       -0.76981782562158
C            1.39382085149914        0.21906193972791        0.02328224464147
C            0.50465065798552        1.33481679660011        0.01005625029322
C            0.94783163353589        2.65925770460361        0.07119876899680
C            0.06529821706230        3.72814233255378        0.01961752702679
C           -1.30130382539192        3.52813362015519       -0.11989806620690
C           -2.24064602707512        4.71987285512347       -0.21105571971777
C           -1.81761354351185        5.61339419623655       -1.38681482500453
C           -2.15409305281153        5.51355124740502        1.10155247993418
C           -3.70091476397720        4.31084148662545       -0.42753697879616
C           -1.75793448603722        2.21086165206291       -0.13487034240421
C           -0.90133631337295        1.11132953900782       -0.02668027531340
C           -1.39493061316169       -0.22949789183028        0.01299473242850
N           -2.78066546190107       -0.45260912463769        0.01817253689202
C           -3.34352428748286       -1.25837324143802       -0.96919717889087
C           -4.46376013385683       -2.05345920481051       -0.72709391250797
C           -4.98663529206057       -2.85613159975696       -1.72212333150955
C           -4.41771809116870       -2.91155333081337       -2.99063682019668
C           -4.95735961318940       -3.79153773249257       -4.10699151551957
C           -6.19278520990011       -4.59202589002706       -3.68346892061213
C           -5.34728121297523       -2.90704231232582       -5.30105392125104
C           -3.86522729894521       -4.78508757533532       -4.53134015618871
C           -3.29471068263386       -2.11670998672848       -3.21898665806267
C           -2.76626635631451       -1.30494449410483       -2.23956306452100
C           -3.56278577682740        0.13173127755066        1.01264041404241
C           -4.88195346562978        0.52654066757465        0.77799655229492
C           -5.62745901114305        1.10283532599418        1.78346672016492
C           -5.10386759539402        1.32426013456196        3.05748989450993
C           -5.97957254677119        1.94863064070744        4.13259079710728
C           -7.20429208885777        1.04930841285314        4.36090367670886
C           -5.24874905367360        2.10731058470869        5.46933372643503
C           -6.43861695504409        3.33990922422045        3.67095292985119
C           -3.78289772487987        0.94530352012281        3.27391097059037
C           -3.02515570000541        0.36006364003743        2.27861985784354
C           -0.50563998465877       -1.34512084843964        0.04740132619029
C           -0.94946804675115       -2.66735789930275        0.14219961396744
C           -0.06645328144523       -3.73692998171195        0.13488852885195
C            1.30232373830113       -3.54086629388327        0.01211608958433
C            2.24073438766195       -4.73573171763104       -0.03695585693837
C            2.10966244938469       -5.52206071335118        1.27628533085459
C            1.85219743360507       -5.63422071475962       -1.22095240846419
C            3.70866582685235       -4.33257282010060       -0.20746872633006
C            1.75935247858679       -2.22451896442606       -0.03537143233706
C            0.90097855750826       -1.12252912771255        0.02333795148316
C            4.88175298077200       -0.48312869041280        0.84353742426520
C            5.63048360931380       -1.01561131408275        1.87483332077360
H            6.50696622484192       -1.11951818058786        6.28195585146025
H            4.90864081685585       -0.54116821292891        5.81861270826765
H            6.34623073592936        0.19277347978786        5.11044971522725
H            7.39138012399135       -2.83532763767928        3.14403858588025
H            7.86756667334819       -1.19062786064275        3.60442949182433
H            7.86581897271604       -2.48184584207352        4.80102381794313
H            5.77279312278407       -3.47301549360892        5.64210897133609
H            5.23699177848029       -3.81296152123950        3.99505854626583
H            4.19942126183937       -2.90080397772489        5.08988210764316
H            3.29979191623173       -0.95899473531765        4.30118167556459
H            1.98186131006782        0.00030005847440        2.49749391938182
H            1.92023719862338        0.57118248065850       -2.44973253491749
H            2.84760747076435        1.90559371406382       -4.25025259540396
H            6.57840698117006        2.13925244013424       -4.63970398768072
H            6.98126538563452        3.77882321072650       -5.15925904803607
H            7.10108218159414        3.33806129204845       -3.45772149015797
H            5.54824528134580        5.26744706998052       -2.83834826747420
H            3.96202578392856        5.39236140932338       -3.59664422180888
H            5.42151249868644        5.71901393294084       -4.53707487332286
H            4.82996224285913        4.09154703965373       -6.26224438884707
H            4.37397034611427        2.43717955166225       -5.86964265931243
H            3.30214998500193        3.78374980858511       -5.44423633442160
H            5.84319370106732        3.39620703384819       -1.58510877765640
H            4.89457348067220        2.08135590282747        0.21746401610178
H            2.00259696817118        2.86934215617138        0.15763352464467
H            0.47316403180512        4.72638675148115        0.07677247527097
H           -0.80893859576212        5.99447849937012       -1.25259959995667
H           -2.49327610819605        6.46192594305546       -1.47562056199517
H           -1.84739183902220        5.04846959771844       -2.31676929512359
H           -1.14691203692633        5.88599938132512        1.26964196162018
H           -2.42627586689978        4.87628426348075        1.94104723478833
H           -2.83416362696247        6.36279404134463        1.07471777989213
H           -3.81540096931118        3.74656894507583       -1.35078617364257
H           -4.32043298809424        5.20309203932773       -0.49802443589937
H           -4.06776286134066        3.71121514437716        0.40230769206187
H           -2.81285970435844        2.02216237301719       -0.22279901055677
H           -4.91276287037846       -2.05846647276309        0.25597010527346
H           -5.85005298027342       -3.45477278905972       -1.48156295465190
H           -5.96205870314030       -5.25988498477741       -2.85653196644531
H           -7.00686825003375       -3.93161351560986       -3.39314804188144
H           -6.53459272581098       -5.19921482265177       -4.51944360649436
H           -4.49008070878006       -2.36309530022426       -5.68818751701106
H           -5.75286410856606       -3.51953049447361       -6.10369491362960
H           -6.10378797474601       -2.18380326988204       -5.00237430504198
H           -3.56976360625501       -5.40316778536377       -3.68553080832628
H           -4.23604484808306       -5.43458966763682       -5.32166838115218
H           -2.98211911793702       -4.27008992367841       -4.89950155863035
H           -2.81736407897404       -2.12079363053589       -4.18730348739789
H           -1.90015288873747       -0.69294477584714       -2.44661933935249
H           -5.31271102074012        0.39488972343083       -0.20433387714644
H           -6.64203839068842        1.39549889908889        1.55830293880800
H           -7.80397626631592        0.95969988233421        3.45923922262135
H           -7.83151121563037        1.46392630725310        5.14739673234335
H           -6.88793218542043        0.05214563839297        4.66134160912737
H           -4.92687833665445        1.14301699934450        5.85633697526672
H           -5.92119082621750        2.55485344788435        6.19866901342199
H           -4.38294686180447        2.75803211474110        5.36790066890607
H           -5.57839239460437        3.98704185101104        3.51215854819119
H           -7.00101514453268        3.28544706233040        2.74286586392999
H           -7.07465951502089        3.79333027006460        4.42845711574784
H           -3.32005344682929        1.09310253726402        4.23602014961768
H           -2.00539629552632        0.06333623572831        2.47771911479913
H           -2.00536415583962       -2.87536797368267        0.21867729524297
H           -0.47548370757436       -4.73329185826964        0.21246107536844
H            1.09771282996117       -5.89406043320806        1.41312092163326
H            2.78964194848041       -6.37182321530475        1.27654350762085
H            2.35433716476202       -4.88088762848519        2.12107390270576
H            1.91821812630661       -5.07592647775678       -2.15306539212648
H            0.83614970576856       -6.00574742327822       -1.11880970832433
H            2.52370192082116       -6.48859122479254       -1.28071569847955
H            4.32819958848690       -5.22696017696891       -0.24226719502380
H            3.85801514955448       -3.78320883002774       -1.13465235138171
H            4.04636452556523       -3.72020659745793        0.62560825496408
H            2.81569000492702       -2.03782171433729       -0.11104648947183
H            5.32124974708025       -0.38016901105346       -0.13834761272112
H            6.64844301995433       -1.29820094601511        1.66143787558558

          :  Hamiltonian                  GFN2-xTB          :
         :: gradient norm              0.000037940482 Eh/a0 ::
         :: HOMO-LUMO gap              1.216087963197 eV    ::
         :: SCC energy              -180.558412514819 Eh    ::
         :: -> dispersion             -0.183264865323 Eh    ::
         :: -> Gsolv                  -0.064132546144 Eh    ::
         :: repulsion energy           3.051472540362 Eh    ::

    * Orbital Energies and Occupations

         #    Occupation            Energy/Eh            Energy/eV
      -------------------------------------------------------------
         1        2.0000           -0.6606760             -17.9779
       ...           ...                  ...                  ...
       156        2.0000           -0.4025233             -10.9532
       157        2.0000           -0.4023916             -10.9496
       158        2.0000           -0.4004213             -10.8960
       159        2.0000           -0.3997702             -10.8783
       160        2.0000           -0.3974577             -10.8154
       161        2.0000           -0.3930591             -10.6957
       162        2.0000           -0.3901811             -10.6174
       163        2.0000           -0.3824240             -10.4063
       164        2.0000           -0.3821384             -10.3985
       165        2.0000           -0.3573531              -9.7241
       166        2.0000           -0.3508604              -9.5474
       167        1.0000           -0.3281699              -8.9300
       168        1.0000           -0.2705265              -7.3614 (HOMO)
       169                         -0.2258362              -6.1453 (LUMO)
       170                         -0.2253817              -6.1329
       171                         -0.2207826              -6.0078
       172                         -0.2204362              -5.9984
       173                         -0.2172738              -5.9123
       174                         -0.2171222              -5.9082
       175                         -0.2138728              -5.8198
       176                         -0.2063856              -5.6160
       177                         -0.2019872              -5.4964
       178                         -0.1995420              -5.4298
       179                         -0.1619445              -4.4067
       ...                                ...                  ...
       332                          0.7086401              19.2831
      -------------------------------------------------------------
                  HL-Gap            0.0446904 Eh            1.2161 eV

     #   Z          covCN         q      C6AA      α(0)
     1   6 C        3.761    -0.105    22.553     6.770
     2   6 C        3.902     0.026    20.088     6.371
     3   6 C        3.761    -0.107    22.601     6.777
     4   6 C        3.761    -0.104    22.536     6.767
     5   6 C        2.972     0.002    27.976     8.676
     6   6 C        2.926    -0.035    28.873     8.812
     7   6 C        2.921    -0.047    29.168     8.857
     8   6 C        2.923     0.066    26.525     8.446
     9   7 N        2.750    -0.055    22.294     7.013
    10   6 C        2.924     0.066    26.533     8.447
    11   6 C        2.922    -0.047    29.176     8.858
    12   6 C        2.924    -0.039    28.975     8.827
    13   6 C        2.972     0.003    27.960     8.674
    14   6 C        3.902     0.026    20.089     6.371
    15   6 C        3.761    -0.105    22.560     6.771
    16   6 C        3.761    -0.105    22.549     6.769
    17   6 C        3.761    -0.107    22.599     6.777
    18   6 C        2.926    -0.036    28.900     8.816
    19   6 C        2.919    -0.050    29.242     8.868
    20   6 C        2.922     0.022    27.524     8.603
    21   6 C        2.976    -0.007    28.201     8.711
    22   6 C        2.918    -0.052    29.293     8.875
    23   6 C        2.922    -0.045    29.112     8.848
    24   6 C        2.969    -0.001    28.055     8.688
    25   6 C        3.902     0.024    20.118     6.376
    26   6 C        3.761    -0.103    22.506     6.763
    27   6 C        3.762    -0.101    22.483     6.759
    28   6 C        3.761    -0.103    22.512     6.764
    29   6 C        2.927    -0.059    29.478     8.904
    30   6 C        2.976    -0.006    28.163     8.705
    31   6 C        2.922     0.022    27.525     8.604
    32   7 N        2.750    -0.054    22.292     7.012
    33   6 C        2.924     0.066    26.532     8.447
    34   6 C        2.920    -0.051    29.259     8.870
    35   6 C        2.924    -0.040    29.006     8.832
    36   6 C        2.972     0.003    27.962     8.674
    37   6 C        3.902     0.026    20.089     6.371
    38   6 C        3.761    -0.107    22.601     6.777
    39   6 C        3.761    -0.105    22.557     6.770
    40   6 C        3.761    -0.105    22.547     6.769
    41   6 C        2.926    -0.035    28.869     8.811
    42   6 C        2.921    -0.047    29.167     8.856
    43   6 C        2.923     0.066    26.527     8.446
    44   6 C        2.919    -0.050    29.238     8.867
    45   6 C        2.926    -0.036    28.903     8.817
    46   6 C        2.972     0.002    27.973     8.675
    47   6 C        3.902     0.026    20.088     6.371
    48   6 C        3.761    -0.105    22.556     6.770
    49   6 C        3.761    -0.107    22.591     6.776
    50   6 C        3.761    -0.105    22.544     6.769
    51   6 C        2.924    -0.039    28.978     8.828
    52   6 C        2.922    -0.047    29.175     8.858
    53   6 C        2.976    -0.007    28.201     8.711
    54   6 C        2.918    -0.052    29.292     8.875
    55   6 C        2.922    -0.045    29.108     8.847
    56   6 C        2.969    -0.001    28.051     8.687
    57   6 C        3.902     0.024    20.117     6.376
    58   6 C        3.762    -0.102    22.495     6.761
    59   6 C        3.761    -0.103    22.506     6.763
    60   6 C        3.761    -0.102    22.503     6.762
    61   6 C        2.927    -0.059    29.475     8.903
    62   6 C        2.976    -0.006    28.162     8.705
    63   6 C        2.920    -0.051    29.256     8.870
    64   6 C        2.924    -0.041    29.008     8.832
    65   1 H        0.925     0.039     2.461     2.453
    66   1 H        0.925     0.036     2.498     2.472
    67   1 H        0.925     0.033     2.550     2.497
    68   1 H        0.925     0.037     2.495     2.470
    69   1 H        0.925     0.036     2.500     2.472
    70   1 H        0.925     0.038     2.476     2.461
    71   1 H        0.925     0.039     2.463     2.454
    72   1 H        0.925     0.033     2.540     2.492
    73   1 H        0.925     0.035     2.513     2.479
    74   1 H        0.926     0.032     2.560     2.502
    75   1 H        0.926     0.026     2.637     2.539
    76   1 H        0.926     0.027     2.627     2.534
    77   1 H        0.926     0.040     2.452     2.449
    78   1 H        0.925     0.033     2.544     2.494
    79   1 H        0.925     0.039     2.458     2.452
    80   1 H        0.925     0.037     2.487     2.466
    81   1 H        0.925     0.037     2.494     2.470
    82   1 H        0.925     0.033     2.550     2.497
    83   1 H        0.925     0.039     2.457     2.451
    84   1 H        0.925     0.038     2.474     2.460
    85   1 H        0.925     0.036     2.504     2.475
    86   1 H        0.925     0.036     2.506     2.475
    87   1 H        0.926     0.034     2.532     2.489
    88   1 H        0.926     0.030     2.581     2.512
    89   1 H        0.926     0.015     2.804     2.619
    90   1 H        0.926     0.016     2.789     2.612
    91   1 H        0.925     0.034     2.525     2.485
    92   1 H        0.925     0.036     2.500     2.473
    93   1 H        0.925     0.031     2.577     2.510
    94   1 H        0.925     0.034     2.528     2.486
    95   1 H        0.925     0.030     2.590     2.517
    96   1 H        0.925     0.037     2.494     2.470
    97   1 H        0.925     0.033     2.551     2.498
    98   1 H        0.925     0.035     2.510     2.478
    99   1 H        0.925     0.034     2.536     2.490
   100   1 H        0.926     0.028     2.609     2.526
   101   1 H        0.926     0.030     2.580     2.512
   102   1 H        0.926     0.041     2.439     2.442
   103   1 H        0.925     0.036     2.503     2.474
   104   1 H        0.925     0.036     2.497     2.471
   105   1 H        0.925     0.038     2.474     2.460
   106   1 H        0.925     0.037     2.496     2.470
   107   1 H        0.925     0.039     2.458     2.452
   108   1 H        0.925     0.033     2.543     2.494
   109   1 H        0.925     0.033     2.551     2.498
   110   1 H        0.925     0.039     2.458     2.452
   111   1 H        0.925     0.036     2.499     2.472
   112   1 H        0.926     0.033     2.548     2.496
   113   1 H        0.926     0.027     2.627     2.534
   114   1 H        0.926     0.031     2.572     2.508
   115   1 H        0.926     0.034     2.528     2.486
   116   1 H        0.925     0.037     2.485     2.465
   117   1 H        0.925     0.039     2.460     2.453
   118   1 H        0.925     0.032     2.552     2.498
   119   1 H        0.925     0.035     2.510     2.477
   120   1 H        0.925     0.038     2.476     2.460
   121   1 H        0.925     0.035     2.513     2.479
   122   1 H        0.925     0.033     2.542     2.493
   123   1 H        0.925     0.037     2.487     2.466
   124   1 H        0.925     0.039     2.464     2.455
   125   1 H        0.926     0.039     2.463     2.454
   126   1 H        0.926     0.026     2.637     2.539
   127   1 H        0.926     0.015     2.804     2.618
   128   1 H        0.926     0.016     2.788     2.611
   129   1 H        0.925     0.034     2.526     2.485
   130   1 H        0.925     0.036     2.499     2.472
   131   1 H        0.925     0.031     2.573     2.509
   132   1 H        0.925     0.031     2.576     2.510
   133   1 H        0.925     0.035     2.522     2.483
   134   1 H        0.925     0.036     2.500     2.473
   135   1 H        0.925     0.035     2.517     2.481
   136   1 H        0.925     0.033     2.550     2.497
   137   1 H        0.925     0.033     2.547     2.496
   138   1 H        0.926     0.028     2.611     2.527
   139   1 H        0.926     0.031     2.572     2.508
   140   1 H        0.926     0.041     2.434     2.440

molecular dipole:
                 x           y           z       tot (Debye)
 q only:       -0.006       0.001      -0.052
   full:       -0.007       0.007      -0.025       0.069

 projected vibrational frequencies (cm⁻¹)
eigval :       -0.00    -0.00    -0.00     0.00     0.00     0.00
eigval :        5.88     7.73    12.21    16.21    20.64    21.50
eigval :       23.25    25.07    26.03    26.64    27.67    29.19
eigval :       33.95    36.25    40.92    61.70    63.47    68.89
eigval :       73.41    76.11    81.92    86.76    92.64    94.59
eigval :      109.14   113.87   135.21   137.49   138.98   142.61
eigval :      160.62   161.32   168.47   171.25   173.83   175.09
eigval :      180.08   181.64   182.42   184.22   190.00   193.09
eigval :      214.59   215.95   217.57   219.35   223.89   226.60
eigval :      228.65   229.69   230.48   235.66   243.29   250.27
eigval :      260.45   264.17   266.74   279.57   290.97   306.23
eigval :      308.54   310.72   313.85   314.45   316.00   318.93
eigval :      321.57   324.82   328.13   331.89   333.08   338.21
eigval :      341.51   343.60   356.72   357.38   360.57   361.33
eigval :      363.74   375.18   381.77   383.39   384.83   390.90
eigval :      391.49   392.08   396.45   399.99   407.41   409.45
eigval :      414.56   422.18   425.12   425.78   431.63   437.27
eigval :      451.58   453.02   457.05   457.80   466.00   466.92
eigval :      474.91   484.30   487.25   507.22   530.83   534.33
eigval :      535.89   536.80   544.57   555.30   568.82   570.51
eigval :      585.43   587.20   606.72   607.13   607.54   607.74
eigval :      608.69   621.17   632.91   634.93   676.21   683.99
eigval :      684.87   685.73   686.51   694.80   698.78   713.64
eigval :      722.61   723.61   730.35   782.42   794.15   795.30
eigval :      810.83   811.55   812.91   819.51   821.71   823.53
eigval :      831.30   851.59   864.31   865.37   866.60   871.81
eigval :      872.80   873.73   875.28   884.72   885.74   886.73
eigval :      887.28   905.63   911.27   914.52   917.23   919.46
eigval :      926.03   926.77   929.55   929.82   933.45   934.46
eigval :      957.20   958.41   958.51   958.92   958.98   959.08
eigval :      959.69   959.80   960.74   960.83   961.32   961.62
eigval :      961.85   961.93   963.01   963.42   963.50   964.08
eigval :      969.12   995.84  1001.26  1002.56  1021.25  1023.00
eigval :     1032.62  1033.45  1033.48  1033.76  1034.44  1034.53
eigval :     1034.60  1035.20  1035.24  1035.44  1035.78  1036.53
eigval :     1074.33  1138.17  1141.81  1142.17  1142.63  1143.38
eigval :     1149.09  1149.53  1150.74  1153.33  1156.00  1161.30
eigval :     1162.54  1189.24  1204.04  1204.73  1207.19  1209.87
eigval :     1223.56  1223.96  1224.26  1224.35  1224.63  1224.78
eigval :     1229.37  1229.55  1231.25  1231.28  1231.45  1231.73
eigval :     1244.29  1250.17  1257.32  1271.13  1275.19  1275.92
eigval :     1277.57  1281.26  1282.73  1283.15  1286.62  1289.00
eigval :     1292.91  1293.81  1297.36  1307.48  1316.53  1318.23
eigval :     1320.51  1321.67  1324.68  1328.53  1328.96  1338.79
eigval :     1360.23  1362.16  1375.35  1392.03  1397.88  1398.36
eigval :     1398.55  1398.87  1399.91  1400.86  1401.96  1402.15
eigval :     1402.33  1402.61  1402.66  1403.99  1409.14  1409.68
eigval :     1416.71  1417.07  1424.55  1425.20  1425.91  1426.43
eigval :     1426.59  1426.83  1439.78  1475.36  1477.52  1477.58
eigval :     1481.69  1482.73  1487.07  1487.26  1487.66  1488.05
eigval :     1489.25  1489.56  1491.20  1491.42  1491.56  1491.66
eigval :     1493.17  1493.43  1496.09  1498.59  1499.04  1499.28
eigval :     1499.45  1499.59  1500.06  1500.29  1501.82  1502.24
eigval :     1503.00  1503.69  1506.01  1510.74  1510.81  1511.05
eigval :     1511.68  1511.86  1512.69  1516.59  1516.94  1517.07
eigval :     1517.37  1519.11  1522.06  1523.73  1543.04  1546.24
eigval :     1551.92  1552.05  1558.00  1558.12  1590.52  1590.76
eigval :     1597.09  1598.03  3015.70  3015.97  3017.20  3017.22
eigval :     3019.18  3019.52  3020.01  3020.03  3020.20  3020.47
eigval :     3020.73  3020.81  3020.93  3021.23  3021.75  3021.97
eigval :     3023.59  3023.75  3023.89  3024.03  3024.67  3025.17
eigval :     3025.29  3025.32  3026.05  3026.28  3027.34  3027.53
eigval :     3028.03  3028.05  3028.42  3028.55  3030.78  3030.98
eigval :     3031.32  3031.56  3033.67  3033.95  3035.90  3035.98
eigval :     3036.39  3036.54  3041.47  3042.18  3043.00  3043.78
eigval :     3043.96  3044.35  3045.82  3046.33  3047.20  3047.23
eigval :     3047.58  3047.75  3071.64  3071.70  3072.25  3072.27
eigval :     3072.60  3073.10  3074.86  3075.26  3075.54  3076.52
eigval :     3085.43  3086.18  3086.56  3086.90  3096.89  3097.45
eigval :     3109.93  3111.49  3111.81  3112.35  3144.46  3145.72

   temp. (K)  partition function   enthalpy   heat capacity  entropy
                                   cal/mol     cal/K/mol   cal/K/mol   J/K/mol
 298.15  VIB  0.184E+33            40422.186    243.479    251.850
         ROT  0.189E+09              888.752      2.981     40.851
         INT  0.348E+41            41310.938    246.460    292.701
         TR   0.239E+29             1481.254      4.968     46.074
         TOT                       42792.1922   251.4285   338.7747  1417.4332

       T/K    H(0)-H(T)+PV         H(T)/Eh          T*S/Eh         G(T)/Eh
   ------------------------------------------------------------------------
    298.15    0.681937E-01    0.126497E+01    0.160963E+00    0.110401E+01
   ------------------------------------------------------------------------

         :::::::::::::::::::::::::::::::::::::::::::::::::::::
         ::                  THERMODYNAMIC                  ::
         :::::::::::::::::::::::::::::::::::::::::::::::::::::
         :: total free energy        -176.402931117747 Eh   ::
         ::.................................................::
         :: total energy             -177.506939967966 Eh   ::
         :: zero point energy           1.196777923622 Eh   ::
         :: G(RRHO) w/o ZPVE           -0.092769073403 Eh   ::
         :: G(RRHO) contrib.            1.104008850219 Eh   ::
         :::::::::::::::::::::::::::::::::::::::::::::::::::::

           -------------------------------------------------
          | TOTAL ENERGY             -177.506939967966 Eh   |
          | TOTAL ENTHALPY           -176.241968345283 Eh   |
          | TOTAL FREE ENERGY        -176.402931117747 Eh   |
          | GRADIENT NORM               0.000037972290 Eh/α |
          | HOMO-LUMO GAP               1.216086672890 eV   |
           -------------------------------------------------

 * finished run on 2025/09/11 at 02:09:38.374
