   * xtb version 6.7.1 (edcfbbe) compiled by 'albert@albert-system' on 2024-07-22

   ID    Z sym.   atoms
    1    6 C      1-8, 10-31, 33-64
    2    7 N      9, 32
    3    1 H      65-140

          program call               : xtb data2507/toluene/6tBPA/6tBPA.xyz --gfn 2 --gbsa toluene --ohess vtight --parallel 40 --molden --ceasefiles --namespace data2507/toluene/6tBPA/6tBPA_toluene_S0_preOpt
      * Solvation model:               GBSA
        Solvent                        toluene
        Solvent mass                       9.2140E+01 g/mol
          :  Hamiltonian                  GFN2-xTB          :
 * total energy  :  -177.5260535 Eh     change       -0.4040317E-08 Eh
 * total energy  :  -177.5469841 Eh     change       -0.2093051E-01 Eh
 * total energy  :  -177.5559095 Eh     change       -0.8925453E-02 Eh
 * total energy  :  -177.5600799 Eh     change       -0.4170376E-02 Eh
 * total energy  :  -177.5630728 Eh     change       -0.2992927E-02 Eh
 * total energy  :  -177.5643683 Eh     change       -0.1295496E-02 Eh
 * total energy  :  -177.5647520 Eh     change       -0.3836672E-03 Eh
 * total energy  :  -177.5648832 Eh     change       -0.1312378E-03 Eh
 * total energy  :  -177.5649970 Eh     change       -0.1137811E-03 Eh
 * total energy  :  -177.5650530 Eh     change       -0.5603180E-04 Eh
 * total energy  :  -177.5674045 Eh     change       -0.1161391E-05 Eh
 * total energy  :  -177.5674056 Eh     change       -0.1167265E-05 Eh
 * total energy  :  -177.5674068 Eh     change       -0.1159489E-05 Eh
 * total energy  :  -177.5674080 Eh     change       -0.1177311E-05 Eh
 * total energy  :  -177.5674092 Eh     change       -0.1183376E-05 Eh
 * total energy  :  -177.5674104 Eh     change       -0.1214426E-05 Eh
 * total energy  :  -177.5674116 Eh     change       -0.1234105E-05 Eh
 * total energy  :  -177.5674129 Eh     change       -0.1276320E-05 Eh
 * total energy  :  -177.5674129 Eh     change       -0.6467531E-08 Eh
   *** GEOMETRY OPTIMIZATION CONVERGED AFTER 420 ITERATIONS ***

 final structure:
================
140
 xtb: 6.7.1 (edcfbbe)
C            7.00729909791824       -4.67253159840082       -0.61891574653707
C            5.77284748644675       -4.48017335397185       -1.51273079933105
C            6.21677861884208       -4.17753644281477       -2.95182844117748
C            4.98404648333213       -5.79322925281970       -1.52307167393056
C            4.95530859163252       -3.30998152444350       -0.98711148767738
C            3.63130290891915       -3.42532536829002       -0.58050281662111
C            2.92342658876829       -2.33999918293270       -0.09982871287939
C            3.51511407395492       -1.08190435953392       -0.01243333829738
N            2.77856992147235        0.00706523322112        0.45171124785618
C            3.36507107992135        1.08916684112607        1.10607621158538
C            2.80771646139993        2.36078951354549        0.99389091543684
C            3.37016130238043        3.44164072217840        1.64618821388010
C            4.50925426058414        3.30704716589848        2.43100191039597
C            5.16622724527105        4.47181580327940        3.15590371820909
C            4.46218509034649        5.80542756567083        2.88726653702701
C            6.62374153631530        4.60057042404902        2.68818603576819
C            5.12803171781303        4.20501081311938        4.66820698770310
C            5.05001156721632        2.02748673375511        2.54830131556742
C            4.49566638354630        0.93847872092836        1.91004309137417
C            1.38090525022426        0.02164006416993        0.23036797715209
C            0.50338684980902        0.00948505497915        1.32615851302419
C            0.95746894227433       -0.04757472948164        2.66753848417400
C            0.08825360217875       -0.03604198528571        3.71279118742775
C           -1.31195052461549        0.05501328783964        3.51467832379149
C           -2.22796205959353        0.09990901132769        4.72618286263738
C           -3.70611381113534        0.21423840000618        4.34140891532718
C           -1.86063922870791        1.31481796194120        5.59108417286668
C           -2.04230631090288       -1.19269992987056        5.53492568930681
C           -1.77177476313679        0.08433426705316        2.22908065029740
C           -0.90606259804465        0.03219024915212        1.10748805841478
C           -1.40258074537022        0.01072029680772       -0.20750624250511
N           -2.79984323144305       -0.01245226127640       -0.42932849697891
C           -3.39071502005578        1.06115065965858       -1.09416630911193
C           -2.84174182876452        2.33702047047366       -0.98959438614497
C           -3.40801145369622        3.40924750586397       -1.65285605291149
C           -4.54294319011411        3.26148183594310       -2.44129676457423
C           -5.20423359792597        4.41613544326393       -3.17831215906988
C           -5.16394589665979        4.13463747859965       -4.68791547898552
C           -6.66261163194499        4.54292379872820       -2.71275232565044
C           -4.50605934797830        5.75534845280734       -2.92267926047625
C           -5.07570361123845        1.97783985083992       -2.55023562800603
C           -4.51727398236851        0.89737909496108       -1.90123152399703
C           -3.53213332262526       -1.10358224394177        0.03660800737846
C           -2.93195797223804       -2.35931906687853        0.12991838764910
C           -3.64067749978339       -3.44241246351099        0.60490388421233
C           -4.97246284672407       -3.33586098712067        1.00086134942963
C           -5.71338404714372       -4.56859958554501        1.49633021298243
C           -7.16659274269031       -4.27039726008426        1.87805173378428
C           -5.71982902625324       -5.62733107736278        0.38307115404938
C           -4.99782806058861       -5.12492161315020        2.73636014273652
C           -5.55801994111349       -2.07769652170934        0.91460006430440
C           -4.85683591027827       -0.98049209421823        0.45162845545274
C           -0.52474510102627        0.00349053492436       -1.30336682062348
C           -0.97728501777954       -0.06162958190556       -2.64494408852903
C           -0.10765270393750       -0.04360927056097       -3.68984795600229
C            1.29138021862301        0.06384823969941       -3.49142117682184
C            2.20807930927180        0.11698179225168       -4.70210387949701
C            3.68281708097836        0.26757917762188       -4.31665314130694
C            2.05112299195140       -1.18803438199050       -5.49684692023617
C            1.81674217434729        1.31447899809285       -5.58059519908939
C            1.75011631611242        0.09844111330539       -2.20562407124440
C            0.88436307396059        0.03842153659624       -1.08451270411333
C            4.83857022452907       -0.95103520512489       -0.43538042809608
C            5.53536265834489       -2.04514094572928       -0.90256586819231
H            7.59464985578479       -5.51972838410746       -0.96741947976703
H            6.70155381999804       -4.86336713963597        0.40815845259061
H            7.64341154910282       -3.79162925310087       -0.62672459982038
H            6.79833120474883       -5.00785622654030       -3.34739454632034
H            5.34764329059489       -4.02996959555204       -3.59009116583956
H            6.82899544774024       -3.28092093343769       -2.99714149783122
H            5.61724268027356       -6.59316278625811       -1.90214020587721
H            4.11139409056638       -5.72132808480432       -2.16857776495825
H            4.66357820751680       -6.06512211651422       -0.51968077850207
H            3.12347678687283       -4.37525556245197       -0.62438582961568
H            1.89697823364867       -2.46598069812662        0.21392194897318
H            1.92501569694268        2.50078930284086        0.38607469274544
H            2.89916760734177        4.40316170667362        1.52092355531012
H            3.43260966328569        5.78248624655829        3.23737422321363
H            4.97985723081467        6.60210187672792        3.41817715133142
H            4.47287112989499        6.04603965924548        1.82641435637151
H            6.66020350941608        4.76603715841175        1.61298662497088
H            7.19406292347605        3.70378097933312        2.91431286615373
H            7.10345483105389        5.44239685158666        3.18352455364394
H            5.57551113857312        5.03724530778827        5.20793510328312
H            4.09879580486580        4.08858612616357        5.00266934635303
H            5.67326423623985        3.30030606303795        4.92368074977843
H            5.92355341898943        1.86412254368890        3.16193454827912
H            4.93127216594351       -0.04166292038082        2.04272837339051
H            2.01850805074517       -0.10907192558663        2.85566474528268
H            0.48218507400849       -0.09079966812955        4.71621650786542
H           -3.89510855136322        1.12694441238451        3.78042318645308
H           -4.31429537676720        0.24162489756796        5.24345024782628
H           -4.02257772911522       -0.63967024274532        3.74645999546665
H           -1.96538464489049        2.23197171479400        5.01433998500444
H           -0.83677551017624        1.25331489063389        5.94985268227211
H           -2.52077724066403        1.37211433661017        6.45411508110329
H           -2.27770468357935       -2.05743364817687        4.91709461351737
H           -2.70567210561611       -1.19255668276847        6.39741094540616
H           -1.02099873671046       -1.29582350122168        5.89159384352496
H           -2.82713922156383        0.15199433514044        2.03022339431531
H           -1.96235394068775        2.48718313674361       -0.37937872096527
H           -2.94340353560145        4.37460683552843       -1.53333947769140
H           -5.70541917417436        3.22537542626466       -4.93500251802494
H           -5.61441082351832        4.95974900704004       -5.23603407023039
H           -4.13403679660495        4.01908508387363       -5.02059173947239
H           -6.70053786800836        4.71945118084202       -1.63937050832999
H           -7.14603962639978        5.37718655238494       -3.21718730510955
H           -7.22837983482002        3.64099304884679       -2.92973468018705
H           -3.47550797228662        5.73235821203896       -3.26992762470893
H           -5.02540715840533        6.54403745889847       -3.46379043053085
H           -4.52035801516867        6.00781318891993       -1.86462176575467
H           -5.94606130561764        1.80434511092120       -3.16559617883336
H           -4.94640679394664       -0.08636331083579       -2.02798240436169
H           -1.90279051639237       -2.48007745218772       -0.17669491604121
H           -3.13540942896467       -4.39553001159526        0.65621766025560
H           -7.64649993524788       -5.18562454537304        2.21954302738431
H           -7.72650148935929       -3.89614717337691        1.02384735475643
H           -7.21839844695770       -3.54313377627766        2.68530264115035
H           -6.20099753512985       -5.23142483689389       -0.50944082412981
H           -6.26641460078459       -6.51051291859775        0.70763261164338
H           -4.71016228803702       -5.92992194008671        0.11901598203578
H           -3.96898967323648       -5.39384909229208        2.51260905222629
H           -4.99061001365542       -4.38218080718021        3.53192434730678
H           -5.51145575064257       -6.01322902568850        3.09867946309537
H           -6.58004474734641       -1.92531361718998        1.22179920667788
H           -5.33880436286878       -0.01357593393942        0.42245172025847
H           -2.03740404480289       -0.13513806518754       -2.83384428566437
H           -0.50048324091672       -0.10615285297764       -4.69327424691589
H            3.84987873951586        1.18827526754257       -3.76170379215323
H            4.01854588604861       -0.57460780779891       -3.71582819008322
H            4.29119696888361        0.30244553361616       -5.21826429141840
H            1.03158626688327       -1.31839413928214       -5.84981480048488
H            2.30763355374479       -2.04016568824095       -4.86993572861194
H            2.71295099063783       -1.18203819068034       -6.36046177709889
H            2.48038432661437        1.37924491192275       -6.44038916358865
H            0.79689632992638        1.22555901352456       -5.94487393529282
H            1.89651183764443        2.23923654808262       -5.01205859614636
H            2.80460608127496        0.17710381995726       -2.00619279327061
H            5.31587915345152        0.01824341781102       -0.40970522390718
H            6.55660985426475       -1.89633843409574       -1.22074449617421

          :  Hamiltonian                  GFN2-xTB          :
         :: gradient norm              0.000066127882 Eh/a0 ::
         :: HOMO-LUMO gap              1.641139253492 eV    ::
         :: SCC energy              -180.633729810187 Eh    ::
         :: -> dispersion             -0.181695398383 Eh    ::
         :: -> Gsolv                  -0.064331068566 Eh    ::
         :: repulsion energy           3.066316909792 Eh    ::

    * Orbital Energies and Occupations

         #    Occupation            Energy/Eh            Energy/eV
      -------------------------------------------------------------
         1        2.0000           -0.6600727             -17.9615
       ...           ...                  ...                  ...
       155        2.0000           -0.4066672             -11.0660
       156        2.0000           -0.4038046             -10.9881
       157        2.0000           -0.4005518             -10.8996
       158        2.0000           -0.3984142             -10.8414
       159        2.0000           -0.3974898             -10.8162
       160        2.0000           -0.3963062             -10.7840
       161        2.0000           -0.3961568             -10.7800
       162        2.0000           -0.3919026             -10.6642
       163        2.0000           -0.3891099             -10.5882
       164        2.0000           -0.3860202             -10.5041
       165        2.0000           -0.3631961              -9.8831
       166        2.0000           -0.3459475              -9.4137
       167        2.0000           -0.3354425              -9.1279 (HOMO)
       168                         -0.2751318              -7.4867 (LUMO)
       169                         -0.2285850              -6.2201
       170                         -0.2217554              -6.0343
       171                         -0.2208987              -6.0110
       172                         -0.2167130              -5.8971
       173                         -0.2162770              -5.8852
       174                         -0.2145450              -5.8381
       175                         -0.2137524              -5.8165
       176                         -0.2136135              -5.8127
       177                         -0.1987491              -5.4082
       178                         -0.1952455              -5.3129
       ...                                ...                  ...
       332                          0.7148980              19.4534
      -------------------------------------------------------------
                  HL-Gap            0.0603108 Eh            1.6411 eV

     #   Z          covCN         q      C6AA      α(0)
     1   6 C        3.761    -0.104    22.541     6.768
     2   6 C        3.902     0.025    20.100     6.373
     3   6 C        3.761    -0.104    22.533     6.767
     4   6 C        3.761    -0.106    22.573     6.773
     5   6 C        2.972    -0.003    28.097     8.695
     6   6 C        2.925    -0.041    29.022     8.835
     7   6 C        2.923    -0.054    29.335     8.882
     8   6 C        2.921     0.065    26.535     8.447
     9   7 N        2.751    -0.085    22.886     7.105
    10   6 C        2.920     0.065    26.545     8.449
    11   6 C        2.923    -0.054    29.339     8.883
    12   6 C        2.925    -0.041    29.020     8.834
    13   6 C        2.972    -0.003    28.087     8.693
    14   6 C        3.902     0.025    20.101     6.373
    15   6 C        3.761    -0.106    22.579     6.774
    16   6 C        3.761    -0.104    22.543     6.768
    17   6 C        3.761    -0.104    22.539     6.768
    18   6 C        2.927    -0.038    28.934     8.821
    19   6 C        2.920    -0.054    29.347     8.884
    20   6 C        2.925     0.046    26.960     8.515
    21   6 C        2.982    -0.007    28.196     8.710
    22   6 C        2.915    -0.038    28.937     8.821
    23   6 C        2.922    -0.035    28.878     8.812
    24   6 C        2.969     0.008    27.844     8.655
    25   6 C        3.903     0.025    20.097     6.372
    26   6 C        3.761    -0.106    22.564     6.772
    27   6 C        3.761    -0.104    22.538     6.768
    28   6 C        3.762    -0.104    22.530     6.766
    29   6 C        2.924    -0.047    29.166     8.857
    30   6 C        2.981    -0.006    28.175     8.707
    31   6 C        2.925     0.046    26.958     8.515
    32   7 N        2.751    -0.084    22.882     7.105
    33   6 C        2.921     0.065    26.546     8.449
    34   6 C        2.923    -0.054    29.337     8.882
    35   6 C        2.925    -0.041    29.020     8.834
    36   6 C        2.972    -0.003    28.085     8.693
    37   6 C        3.902     0.025    20.101     6.373
    38   6 C        3.761    -0.104    22.540     6.768
    39   6 C        3.761    -0.105    22.543     6.768
    40   6 C        3.761    -0.106    22.580     6.774
    41   6 C        2.927    -0.038    28.934     8.821
    42   6 C        2.920    -0.054    29.345     8.883
    43   6 C        2.921     0.065    26.535     8.447
    44   6 C        2.922    -0.053    29.319     8.880
    45   6 C        2.927    -0.037    28.916     8.819
    46   6 C        2.972    -0.003    28.096     8.695
    47   6 C        3.902     0.025    20.099     6.373
    48   6 C        3.761    -0.106    22.582     6.774
    49   6 C        3.761    -0.104    22.537     6.767
    50   6 C        3.761    -0.104    22.528     6.766
    51   6 C        2.925    -0.042    29.043     8.838
    52   6 C        2.921    -0.055    29.359     8.886
    53   6 C        2.982    -0.007    28.197     8.710
    54   6 C        2.915    -0.038    28.937     8.821
    55   6 C        2.922    -0.035    28.879     8.813
    56   6 C        2.969     0.008    27.846     8.656
    57   6 C        3.903     0.025    20.098     6.372
    58   6 C        3.761    -0.106    22.570     6.772
    59   6 C        3.762    -0.103    22.523     6.765
    60   6 C        3.761    -0.104    22.539     6.768
    61   6 C        2.925    -0.047    29.167     8.857
    62   6 C        2.981    -0.006    28.175     8.707
    63   6 C        2.920    -0.054    29.345     8.883
    64   6 C        2.927    -0.038    28.939     8.822
    65   1 H        0.925     0.038     2.482     2.464
    66   1 H        0.925     0.031     2.566     2.505
    67   1 H        0.925     0.036     2.502     2.474
    68   1 H        0.925     0.038     2.482     2.464
    69   1 H        0.925     0.032     2.559     2.502
    70   1 H        0.925     0.036     2.499     2.472
    71   1 H        0.925     0.037     2.494     2.469
    72   1 H        0.925     0.034     2.524     2.484
    73   1 H        0.925     0.034     2.524     2.484
    74   1 H        0.926     0.034     2.531     2.488
    75   1 H        0.926     0.019     2.744     2.591
    76   1 H        0.926     0.020     2.730     2.584
    77   1 H        0.926     0.035     2.519     2.482
    78   1 H        0.925     0.035     2.517     2.481
    79   1 H        0.925     0.037     2.492     2.469
    80   1 H        0.925     0.035     2.518     2.482
    81   1 H        0.925     0.032     2.560     2.502
    82   1 H        0.925     0.036     2.504     2.474
    83   1 H        0.925     0.038     2.481     2.463
    84   1 H        0.925     0.038     2.478     2.461
    85   1 H        0.925     0.032     2.558     2.501
    86   1 H        0.925     0.036     2.507     2.476
    87   1 H        0.926     0.029     2.601     2.522
    88   1 H        0.926     0.026     2.639     2.540
    89   1 H        0.926     0.030     2.592     2.518
    90   1 H        0.926     0.031     2.567     2.505
    91   1 H        0.925     0.035     2.522     2.484
    92   1 H        0.925     0.039     2.469     2.457
    93   1 H        0.925     0.035     2.520     2.482
    94   1 H        0.925     0.032     2.552     2.498
    95   1 H        0.925     0.037     2.487     2.466
    96   1 H        0.925     0.040     2.455     2.450
    97   1 H        0.925     0.033     2.551     2.498
    98   1 H        0.925     0.040     2.455     2.450
    99   1 H        0.925     0.037     2.487     2.466
   100   1 H        0.926     0.040     2.447     2.446
   101   1 H        0.926     0.020     2.729     2.583
   102   1 H        0.926     0.035     2.519     2.482
   103   1 H        0.925     0.036     2.507     2.476
   104   1 H        0.925     0.038     2.478     2.462
   105   1 H        0.925     0.032     2.558     2.501
   106   1 H        0.925     0.032     2.560     2.502
   107   1 H        0.925     0.038     2.481     2.463
   108   1 H        0.925     0.036     2.503     2.474
   109   1 H        0.925     0.035     2.517     2.481
   110   1 H        0.925     0.037     2.492     2.469
   111   1 H        0.925     0.035     2.518     2.482
   112   1 H        0.926     0.029     2.600     2.522
   113   1 H        0.926     0.026     2.638     2.540
   114   1 H        0.926     0.019     2.743     2.590
   115   1 H        0.926     0.027     2.630     2.536
   116   1 H        0.925     0.037     2.494     2.470
   117   1 H        0.925     0.035     2.514     2.480
   118   1 H        0.925     0.036     2.507     2.476
   119   1 H        0.925     0.032     2.564     2.504
   120   1 H        0.925     0.038     2.482     2.464
   121   1 H        0.925     0.035     2.514     2.479
   122   1 H        0.925     0.035     2.521     2.483
   123   1 H        0.925     0.032     2.555     2.500
   124   1 H        0.925     0.038     2.482     2.464
   125   1 H        0.926     0.036     2.496     2.471
   126   1 H        0.926     0.027     2.629     2.535
   127   1 H        0.926     0.030     2.592     2.518
   128   1 H        0.926     0.031     2.568     2.506
   129   1 H        0.925     0.034     2.524     2.484
   130   1 H        0.925     0.035     2.512     2.478
   131   1 H        0.925     0.039     2.465     2.455
   132   1 H        0.925     0.037     2.489     2.467
   133   1 H        0.925     0.032     2.561     2.503
   134   1 H        0.925     0.040     2.451     2.448
   135   1 H        0.925     0.040     2.455     2.450
   136   1 H        0.925     0.037     2.488     2.466
   137   1 H        0.925     0.032     2.552     2.498
   138   1 H        0.926     0.040     2.448     2.447
   139   1 H        0.926     0.027     2.629     2.536
   140   1 H        0.926     0.029     2.596     2.520

molecular dipole:
                 x           y           z       tot (Debye)
 q only:       -0.009       0.052      -0.004
   full:        0.007       0.019      -0.008       0.056

 projected vibrational frequencies (cm⁻¹)
eigval :       -0.00    -0.00    -0.00    -0.00    -0.00     0.00
eigval :        7.74    10.35    14.97    19.87    21.83    23.51
eigval :       23.66    25.38    27.75    29.20    29.70    32.65
eigval :       33.68    40.07    49.40    62.97    65.37    66.80
eigval :       68.72    76.67    77.69    83.07    88.88    89.73
eigval :      105.52   113.83   135.24   141.26   145.64   153.32
eigval :      159.33   161.91   170.67   171.38   175.33   176.64
eigval :      181.08   182.87   184.91   186.30   190.04   197.36
eigval :      211.96   214.51   221.46   222.87   223.87   224.75
eigval :      225.99   228.17   231.91   234.84   240.36   244.14
eigval :      260.12   264.75   268.89   278.14   294.13   302.39
eigval :      309.28   310.89   311.12   312.38   315.44   319.84
eigval :      321.32   324.63   327.94   334.86   337.39   339.35
eigval :      343.29   344.19   355.72   357.13   359.82   360.30
eigval :      364.68   380.94   381.70   383.03   385.57   389.77
eigval :      390.54   391.80   394.75   401.38   406.51   412.03
eigval :      415.42   425.17   426.29   429.69   437.30   447.29
eigval :      447.51   448.59   457.39   458.17   461.10   462.64
eigval :      476.27   484.58   490.08   510.97   532.33   532.61
eigval :      535.54   536.08   547.45   557.85   571.40   579.02
eigval :      587.23   587.81   608.09   608.42   608.64   609.48
eigval :      630.75   638.19   642.30   644.56   683.01   683.33
eigval :      684.21   684.80   698.23   701.29   707.68   722.71
eigval :      724.77   732.94   733.43   781.40   809.08   810.16
eigval :      812.77   817.05   818.21   818.73   832.04   854.91
eigval :      866.09   866.66   867.36   868.06   869.48   873.85
eigval :      875.48   876.56   877.73   885.84   887.61   905.23
eigval :      911.70   911.89   916.38   919.66   920.37   921.04
eigval :      926.92   928.18   932.23   932.69   938.32   938.50
eigval :      957.59   958.27   958.39   958.66   958.97   959.84
eigval :      960.11   960.15   960.86   960.91   961.06   961.52
eigval :      961.56   962.21   962.34   963.01   963.71   963.96
eigval :      968.38   988.47  1000.77  1002.89  1024.16  1024.33
eigval :     1032.63  1032.90  1033.75  1033.91  1033.99  1034.22
eigval :     1034.67  1034.73  1034.81  1034.92  1035.95  1036.26
eigval :     1075.48  1134.86  1141.74  1143.91  1144.09  1144.37
eigval :     1144.46  1144.90  1154.06  1154.61  1157.91  1159.83
eigval :     1165.81  1198.42  1211.59  1212.44  1214.31  1216.38
eigval :     1224.59  1224.82  1225.05  1225.11  1225.62  1225.84
eigval :     1228.55  1230.52  1231.73  1231.77  1231.85  1232.12
eigval :     1248.04  1252.95  1263.66  1264.38  1270.49  1278.68
eigval :     1279.58  1280.08  1284.78  1285.58  1286.29  1287.57
eigval :     1288.56  1297.16  1301.09  1316.99  1318.95  1320.78
eigval :     1325.30  1327.48  1338.34  1339.17  1340.49  1346.82
eigval :     1394.81  1398.08  1398.32  1400.12  1400.18  1401.22
eigval :     1401.43  1401.63  1401.88  1402.00  1402.06  1403.04
eigval :     1403.90  1409.60  1410.04  1416.13  1417.14  1419.74
eigval :     1425.40  1425.64  1425.65  1426.06  1426.53  1427.02
eigval :     1429.12  1457.64  1466.07  1487.35  1487.74  1487.97
eigval :     1488.45  1488.62  1489.00  1489.13  1489.29  1489.69
eigval :     1489.77  1491.13  1491.57  1492.49  1492.74  1492.77
eigval :     1493.63  1498.66  1499.08  1500.05  1500.46  1500.58
eigval :     1500.70  1502.70  1503.50  1503.74  1504.15  1504.44
eigval :     1505.11  1510.16  1510.67  1510.78  1511.21  1511.40
eigval :     1512.03  1517.25  1517.32  1517.63  1517.99  1518.29
eigval :     1518.99  1520.54  1526.98  1535.45  1560.10  1560.38
eigval :     1566.58  1566.83  1602.71  1603.00  1606.32  1607.48
eigval :     1610.16  1623.21  3017.84  3018.14  3018.43  3018.46
eigval :     3018.94  3019.09  3019.32  3019.33  3019.68  3020.19
eigval :     3020.50  3020.80  3022.25  3022.49  3022.58  3022.61
eigval :     3023.54  3023.94  3024.11  3024.28  3024.45  3024.75
eigval :     3025.16  3025.47  3026.34  3026.41  3026.61  3027.03
eigval :     3027.65  3027.99  3029.26  3029.56  3029.64  3030.31
eigval :     3030.54  3031.23  3034.63  3034.66  3034.79  3035.95
eigval :     3036.31  3037.48  3042.01  3042.71  3042.75  3043.21
eigval :     3043.29  3043.76  3045.79  3046.13  3046.26  3046.50
eigval :     3047.11  3047.21  3069.29  3069.79  3071.46  3072.21
eigval :     3072.44  3072.74  3075.67  3076.58  3080.78  3081.11
eigval :     3083.15  3083.47  3084.25  3084.69  3096.46  3097.13
eigval :     3108.13  3108.47  3108.95  3109.57  3138.34  3138.55

   temp. (K)  partition function   enthalpy   heat capacity  entropy
                                   cal/mol     cal/K/mol   cal/K/mol   J/K/mol
 298.15  VIB  0.346E+32            40269.041    242.897    250.206
         ROT  0.188E+09              888.752      2.981     40.845
         INT  0.651E+40            41157.793    245.878    291.052
         TR   0.239E+29             1481.254      4.968     46.074
         TOT                       42639.0474   250.8464   337.1252  1410.5318

       T/K    H(0)-H(T)+PV         H(T)/Eh          T*S/Eh         G(T)/Eh
   ------------------------------------------------------------------------
    298.15    0.679496E-01    0.126730E+01    0.160179E+00    0.110712E+01
   ------------------------------------------------------------------------

         :::::::::::::::::::::::::::::::::::::::::::::::::::::
         ::                  THERMODYNAMIC                  ::
         :::::::::::::::::::::::::::::::::::::::::::::::::::::
         :: total free energy        -176.460292074655 Eh   ::
         ::.................................................::
         :: total energy             -177.567412894328 Eh   ::
         :: zero point energy           1.199350226638 Eh   ::
         :: G(RRHO) w/o ZPVE           -0.092229406964 Eh   ::
         :: G(RRHO) contrib.            1.107120819674 Eh   ::
         :::::::::::::::::::::::::::::::::::::::::::::::::::::

           -------------------------------------------------
          | TOTAL ENERGY             -177.567412894328 Eh   |
          | TOTAL ENTHALPY           -176.300113020492 Eh   |
          | TOTAL FREE ENERGY        -176.460292074655 Eh   |
          | GRADIENT NORM               0.000066130813 Eh/α |
          | HOMO-LUMO GAP               1.641139266380 eV   |
           -------------------------------------------------

 * finished run on 2025/09/11 at 00:56:30.017
