   * xtb version 6.7.1 (edcfbbe) compiled by 'albert@albert-system' on 2024-07-22

   ID    Z sym.   atoms
    1    7 N      1, 9, 25, 32
    2    6 C      2-8, 10-24, 26-31, 33-46
    3    1 H      47-72

          program call               : xtb data2507/gas/2CzP-INN/2CzP-INN.xyz --gfn 2 --ohess vtight --parallel 40 --molden --ceasefiles --namespace data2507/gas/2CzP-INN/2CzP-INN_gas_S0_preOpt
          :  Hamiltonian                  GFN2-xTB          :
 * total energy  :  -114.8913603 Eh     change       -0.1610346E-08 Eh
 * total energy  :  -114.9063612 Eh     change       -0.1500083E-01 Eh
 * total energy  :  -114.9091735 Eh     change       -0.2812301E-02 Eh
 * total energy  :  -114.9096602 Eh     change       -0.4867085E-03 Eh
 * total energy  :  -114.9101138 Eh     change       -0.4536040E-03 Eh
 * total energy  :  -114.9103059 Eh     change       -0.1921109E-03 Eh
 * total energy  :  -114.9104545 Eh     change       -0.1485644E-03 Eh
 * total energy  :  -114.9105782 Eh     change       -0.1236976E-03 Eh
 * total energy  :  -114.9107240 Eh     change       -0.1458115E-03 Eh
 * total energy  :  -114.9109054 Eh     change       -0.1814012E-03 Eh
 * total energy  :  -114.9154696 Eh     change       -0.1681848E-06 Eh
 * total energy  :  -114.9154698 Eh     change       -0.1729721E-06 Eh
 * total energy  :  -114.9154699 Eh     change       -0.1490024E-06 Eh
 * total energy  :  -114.9154701 Eh     change       -0.1398505E-06 Eh
 * total energy  :  -114.9154702 Eh     change       -0.1727899E-06 Eh
 * total energy  :  -114.9154705 Eh     change       -0.2317171E-06 Eh
 * total energy  :  -114.9154707 Eh     change       -0.2717402E-06 Eh
 * total energy  :  -114.9154710 Eh     change       -0.2396117E-06 Eh
 * total energy  :  -114.9154710 Eh     change       -0.1377245E-08 Eh
   *** GEOMETRY OPTIMIZATION CONVERGED AFTER 122 ITERATIONS ***

 final structure:
================
72
 xtb: 6.7.1 (edcfbbe)
N           -0.01933400741854       -0.93553606945245        0.03226987300299
C           -0.02118501551082        0.18086553754407       -0.23034544527104
C           -0.02555983632327        1.54364243965994       -0.61466787641648
C           -1.24381089742658        2.20953793162713       -0.82955179260325
C           -2.53296082680151        1.57591500801105       -0.54144753899927
C           -3.58316738899839        1.67296997192834       -1.45294825833249
C           -4.79582214048945        1.06826992955994       -1.19660999894479
C           -4.99240265711598        0.36770766326389       -0.00792470537516
N           -6.21721738937664       -0.24951369353290        0.25493268034135
C           -7.46439310599789        0.33397032585778        0.13055392489472
C           -7.80263957333100        1.63427748753203       -0.21484973239008
C           -9.14330299415512        1.96947701194865       -0.23323453582697
C          -10.12969292251023        1.04184139468185        0.09274870570090
C           -9.79760455486062       -0.24592356393635        0.46362086120342
C           -8.45702855296477       -0.60622600059898        0.48910814426689
C           -7.76709935562789       -1.81688104125533        0.83875235454803
C           -8.19372604182641       -3.07419476692792        1.24539072932775
C           -7.24549676018675       -4.04923156031092        1.48204802286631
C           -5.88927823207669       -3.78795283366155        1.30140468739476
C           -5.44044981595100       -2.54479820258611        0.89751160029359
C           -6.38735291784016       -1.55345022702502        0.68491159874003
C           -3.95318631974602        0.28789453635179        0.91698255457011
C           -2.73695778258588        0.87935908687348        0.64839556189303
C           -1.17333485976752        3.50655412500106       -1.33808320738406
N           -0.04290898391665        4.12728294023060       -1.61355507852300
C            1.09605600807223        3.50057263936095       -1.39181252902527
C            1.18428217849975        2.20258601659682       -0.88820918632928
C            2.48506762414583        1.56479553695096       -0.66465184555896
C            2.75172729857666        0.87509504768651        0.51640943864234
C            3.98032016423441        0.28282743333934        0.72294246126312
C            4.97350328928530        0.37008506558051       -0.24994287602278
N            6.21844630457398       -0.23109868953659       -0.04591862601403
C            6.87438263167010       -1.05541071309060       -0.94164742746643
C            6.46009884389073       -1.52226984471880       -2.18056886569601
C            7.30798327977066       -2.37105688670645       -2.86642520913059
C            8.53602128337513       -2.75848184632083       -2.33539474801548
C            8.94134746918180       -2.31877400229709       -1.09114889631801
C            8.10610164879741       -1.46510409939117       -0.38286642753349
C            8.19337453862583       -0.84885827285695        0.91174623221371
C            9.15945471971630       -0.85805112200927        1.90897645224126
C            8.93641594159641       -0.11790793937363        3.05278358796619
C            7.77568771008424        0.63751596082403        3.20125318534751
C            6.80014357061471        0.66236281033573        2.22269304490110
C            7.00655996003506       -0.10048904703219        1.08250043762008
C            4.71509381958154        1.06604885327104       -1.42932393743085
C            3.48540037750813        1.65707348040452       -1.63089443028595
H           -3.43252807077300        2.19609538436480       -2.38589915209665
H           -5.59128196599825        1.11535084273055       -1.92476320992363
H           -7.04610041794519        2.36793829919354       -0.44935703699881
H           -9.43173484086616        2.97483511077686       -0.50264122511781
H          -11.16654774857383        1.34188648297918        0.06361304665469
H          -10.56039952822245       -0.96025555440319        0.73415893754319
H           -9.24623720842890       -3.28106785483377        1.36708923507049
H           -7.55542752250189       -5.03304970772683        1.80147422000525
H           -5.17128756005372       -4.57531579670479        1.47653287433397
H           -4.38834738446559       -2.36102589221145        0.74079406770401
H           -4.11090850329649       -0.22697858362676        1.85221250086783
H           -1.94651037786983        0.82399507892311        1.38214690944067
H           -2.07748970375211        4.07235646449816       -1.51859881080630
H            1.99354226679299        4.06204973078060       -1.61431913660442
H            1.99535990120328        0.80928884066607        1.28444750732782
H            4.17069093132042       -0.26706742290654        1.63178119718188
H            5.50122574702391       -1.24624314976667       -2.59269408765823
H            7.00899011115510       -2.74577800194843       -3.83420738467639
H            9.17138141645695       -3.42093297222883       -2.90409418812447
H            9.88447486310219       -2.63340184232051       -0.67060566916695
H           10.06662694053308       -1.42993956307867        1.78526315357349
H            9.67351516340605       -0.11334484823593        3.84183561336426
H            7.63603329791682        1.22034868838075        4.09975730871854
H            5.91365986899891        1.26716290714397        2.34081977949993
H            5.48872523126581        1.15218791446486       -2.17726318449159
H            3.28902336457273        2.18358463330146       -2.55339322991191

          :  Hamiltonian                  GFN2-xTB          :
         :: gradient norm              0.000056865614 Eh/a0 ::
         :: HOMO-LUMO gap              1.859914992886 eV    ::
         :: SCC energy              -117.112531057358 Eh    ::
         :: -> dispersion             -0.100464113326 Eh    ::
         :: repulsion energy           2.197060082328 Eh    ::

    * Orbital Energies and Occupations

         #    Occupation            Energy/Eh            Energy/eV
      -------------------------------------------------------------
         1        2.0000           -0.6880132             -18.7218
       ...           ...                  ...                  ...
        95        2.0000           -0.4204626             -11.4414
        96        2.0000           -0.4197576             -11.4222
        97        2.0000           -0.4186992             -11.3934
        98        2.0000           -0.4180573             -11.3759
        99        2.0000           -0.4160827             -11.3222
       100        2.0000           -0.4089342             -11.1277
       101        2.0000           -0.4065020             -11.0615
       102        2.0000           -0.4061781             -11.0527
       103        2.0000           -0.3844463             -10.4613
       104        2.0000           -0.3799130             -10.3380
       105        2.0000           -0.3796010             -10.3295
       106        2.0000           -0.3650114              -9.9325
       107        2.0000           -0.3648707              -9.9286 (HOMO)
       108                         -0.2965201              -8.0687 (LUMO)
       109                         -0.2750829              -7.4854
       110                         -0.2484507              -6.7607
       111                         -0.2459130              -6.6916
       112                         -0.2429458              -6.6109
       113                         -0.2420517              -6.5866
       114                         -0.2404860              -6.5440
       115                         -0.2232416              -6.0747
       116                         -0.2231090              -6.0711
       117                         -0.2227247              -6.0606
       118                         -0.2149432              -5.8489
       ...                                ...                  ...
       210                          1.1544090              31.4131
      -------------------------------------------------------------
                  HL-Gap            0.0683506 Eh            1.8599 eV

     #   Z          covCN         q      C6AA      α(0)
     1   7 N        0.911    -0.236    26.164     7.398
     2   6 C        1.909     0.116    28.245     8.583
     3   6 C        2.987     0.020    27.562     8.612
     4   6 C        2.976     0.008    27.837     8.655
     5   6 C        2.976     0.003    27.960     8.674
     6   6 C        2.924    -0.032    28.801     8.801
     7   6 C        2.921    -0.042    29.039     8.837
     8   6 C        2.913     0.068    26.472     8.437
     9   7 N        2.802    -0.042    22.060     6.976
    10   6 C        3.072     0.046    26.891     8.502
    11   6 C        2.910    -0.051    29.266     8.871
    12   6 C        2.924    -0.033    28.828     8.805
    13   6 C        2.920    -0.040    28.999     8.831
    14   6 C        2.913    -0.032    28.808     8.801
    15   6 C        3.067    -0.016    28.336     8.729
    16   6 C        3.067    -0.016    28.343     8.730
    17   6 C        2.913    -0.033    28.812     8.802
    18   6 C        2.920    -0.040    28.990     8.829
    19   6 C        2.924    -0.032    28.806     8.802
    20   6 C        2.910    -0.050    29.249     8.868
    21   6 C        3.073     0.046    26.887     8.502
    22   6 C        2.921    -0.041    29.009     8.832
    23   6 C        2.923    -0.027    28.679     8.782
    24   6 C        2.915     0.053    26.809     8.491
    25   7 N        1.834    -0.211    26.432     7.619
    26   6 C        2.915     0.053    26.811     8.491
    27   6 C        2.976     0.008    27.837     8.654
    28   6 C        2.976     0.003    27.954     8.673
    29   6 C        2.923    -0.027    28.680     8.782
    30   6 C        2.921    -0.040    29.002     8.831
    31   6 C        2.913     0.068    26.472     8.437
    32   7 N        2.802    -0.042    22.058     6.975
    33   6 C        3.074     0.047    26.878     8.500
    34   6 C        2.910    -0.050    29.248     8.868
    35   6 C        2.924    -0.033    28.816     8.803
    36   6 C        2.920    -0.040    28.993     8.830
    37   6 C        2.913    -0.032    28.806     8.801
    38   6 C        3.068    -0.016    28.338     8.729
    39   6 C        3.068    -0.016    28.335     8.728
    40   6 C        2.913    -0.032    28.805     8.801
    41   6 C        2.920    -0.040    28.996     8.830
    42   6 C        2.924    -0.033    28.822     8.804
    43   6 C        2.910    -0.051    29.259     8.870
    44   6 C        3.073     0.046    26.882     8.501
    45   6 C        2.921    -0.042    29.036     8.836
    46   6 C        2.924    -0.032    28.801     8.801
    47   1 H        0.926     0.039     2.462     2.454
    48   1 H        0.926     0.046     2.365     2.405
    49   1 H        0.926     0.026     2.638     2.540
    50   1 H        0.926     0.030     2.590     2.517
    51   1 H        0.926     0.029     2.599     2.521
    52   1 H        0.926     0.032     2.556     2.500
    53   1 H        0.926     0.032     2.561     2.502
    54   1 H        0.926     0.030     2.593     2.518
    55   1 H        0.926     0.032     2.554     2.499
    56   1 H        0.926     0.032     2.562     2.503
    57   1 H        0.926     0.048     2.340     2.392
    58   1 H        0.926     0.039     2.468     2.457
    59   1 H        0.925     0.045     2.379     2.412
    60   1 H        0.925     0.045     2.378     2.411
    61   1 H        0.926     0.039     2.467     2.456
    62   1 H        0.926     0.049     2.335     2.390
    63   1 H        0.926     0.028     2.619     2.531
    64   1 H        0.926     0.030     2.580     2.512
    65   1 H        0.926     0.029     2.594     2.519
    66   1 H        0.926     0.032     2.556     2.500
    67   1 H        0.926     0.032     2.555     2.499
    68   1 H        0.926     0.029     2.596     2.520
    69   1 H        0.926     0.030     2.587     2.515
    70   1 H        0.926     0.027     2.636     2.539
    71   1 H        0.926     0.046     2.368     2.406
    72   1 H        0.926     0.039     2.462     2.454

molecular dipole:
                 x           y           z       tot (Debye)
 q only:       -0.002       0.597      -0.099
   full:       -0.007       0.763      -0.122       1.965

 projected vibrational frequencies (cm⁻¹)
eigval :       -0.00    -0.00    -0.00    -0.00     0.00     0.00
eigval :        9.14    12.14    12.75    23.45    35.80    36.42
eigval :       49.50    53.17    75.46    84.61    97.40    98.41
eigval :      103.48   112.81   116.62   129.88   143.19   144.63
eigval :      153.87   169.86   187.20   207.41   225.55   235.72
eigval :      249.09   255.99   271.93   272.03   284.67   305.71
eigval :      343.64   375.67   378.39   383.14   385.12   388.79
eigval :      394.41   399.76   406.78   422.49   424.09   426.68
eigval :      435.47   439.03   440.65   490.88   496.48   518.15
eigval :      518.42   530.89   533.74   538.33   541.10   541.19
eigval :      571.49   576.44   580.99   583.13   588.63   599.58
eigval :      602.76   614.46   618.69   630.31   649.80   673.89
eigval :      674.03   688.35   696.49   703.33   708.32   711.16
eigval :      723.07   733.42   756.62   757.82   769.80   770.34
eigval :      781.06   781.56   797.49   819.50   820.58   835.98
eigval :      858.34   866.19   866.80   874.06   874.97   879.06
eigval :      880.20   897.89   898.01   902.41   902.83   903.17
eigval :      904.17   905.87   919.50   919.78   921.30   921.59
eigval :      926.55   927.01   927.89   933.75   934.40   940.12
eigval :     1000.40  1012.12  1012.19  1017.88  1062.96  1070.94
eigval :     1071.14  1074.61  1074.86  1117.75  1117.96  1137.10
eigval :     1138.79  1153.15  1153.33  1161.76  1162.76  1176.74
eigval :     1176.89  1181.15  1181.26  1183.60  1184.47  1204.04
eigval :     1205.93  1212.42  1236.31  1236.35  1244.01  1245.52
eigval :     1255.45  1260.51  1268.48  1270.70  1299.31  1300.20
eigval :     1301.34  1301.72  1315.18  1317.59  1325.70  1356.90
eigval :     1357.72  1361.11  1361.48  1364.61  1373.13  1400.04
eigval :     1400.85  1411.87  1425.61  1427.89  1428.32  1432.11
eigval :     1437.00  1475.59  1475.87  1487.74  1487.91  1497.87
eigval :     1500.61  1526.02  1540.55  1557.90  1559.44  1575.81
eigval :     1575.84  1589.21  1589.46  1594.27  1595.59  1599.16
eigval :     1599.31  1614.41  1614.81  2364.02  3064.87  3065.36
eigval :     3076.93  3077.00  3077.62  3078.70  3081.94  3082.05
eigval :     3082.65  3083.03  3083.34  3083.98  3085.68  3086.25
eigval :     3089.02  3089.24  3090.73  3091.57  3096.18  3096.49
eigval :     3097.59  3097.98  3098.21  3098.46  3101.70  3101.94

   temp. (K)  partition function   enthalpy   heat capacity  entropy
                                   cal/mol     cal/K/mol   cal/K/mol   J/K/mol
 298.15  VIB  0.658E+16            20495.588    131.797    126.885
         ROT  0.103E+09              888.752      2.981     39.650
         INT  0.679E+24            21384.341    134.778    166.536
         TR   0.137E+29             1481.254      4.968     44.972
         TOT                       22865.5946   139.7458   211.5072   884.9461

       T/K    H(0)-H(T)+PV         H(T)/Eh          T*S/Eh         G(T)/Eh
   ------------------------------------------------------------------------
    298.15    0.364386E-01    0.581056E+00    0.100494E+00    0.480562E+00
   ------------------------------------------------------------------------

         :::::::::::::::::::::::::::::::::::::::::::::::::::::
         ::                  THERMODYNAMIC                  ::
         :::::::::::::::::::::::::::::::::::::::::::::::::::::
         :: total free energy        -114.434909275114 Eh   ::
         ::.................................................::
         :: total energy             -114.915470975030 Eh   ::
         :: zero point energy           0.544616945018 Eh   ::
         :: G(RRHO) w/o ZPVE           -0.064055245101 Eh   ::
         :: G(RRHO) contrib.            0.480561699917 Eh   ::
         :::::::::::::::::::::::::::::::::::::::::::::::::::::

           -------------------------------------------------
          | TOTAL ENERGY             -114.915470975030 Eh   |
          | TOTAL ENTHALPY           -114.334415385617 Eh   |
          | TOTAL FREE ENERGY        -114.434909275114 Eh   |
          | GRADIENT NORM               0.000056895936 Eh/α |
          | HOMO-LUMO GAP               1.859914474012 eV   |
           -------------------------------------------------

 * finished run on 2025/07/19 at 14:06:31.145
