   * xtb version 6.7.1 (edcfbbe) compiled by 'albert@albert-system' on 2024-07-22

   ID    Z sym.   atoms
    1    7 N      1, 9, 25, 32
    2    6 C      2-8, 10-24, 26-31, 33-46
    3    1 H      47-72

          program call               : xtb data2507/gas/2CzP-INN/2CzP-INN_gas_T1_crest.xyz --gfn 2 --spinpol --tblite --uhf 2 --ohess vtight --parallel 40 --molden --ceasefiles --namespace data2507/gas/2CzP-INN/2CzP-INN_gas_T1_finalOpt
 * total energy  :  -114.8344373 Eh     change       -0.1569350E-07 Eh
 * total energy  :  -114.8345008 Eh     change       -0.6354794E-04 Eh
 * total energy  :  -114.8345272 Eh     change       -0.2632897E-04 Eh
 * total energy  :  -114.8345338 Eh     change       -0.6686702E-05 Eh
 * total energy  :  -114.8345425 Eh     change       -0.8641048E-05 Eh
 * total energy  :  -114.8345468 Eh     change       -0.4352384E-05 Eh
 * total energy  :  -114.8345500 Eh     change       -0.3115559E-05 Eh
 * total energy  :  -114.8345518 Eh     change       -0.1815122E-05 Eh
 * total energy  :  -114.8345539 Eh     change       -0.2170185E-05 Eh
 * total energy  :  -114.8345557 Eh     change       -0.1714617E-05 Eh
 * total energy  :  -114.8345929 Eh     change       -0.3520255E-06 Eh
 * total energy  :  -114.8345932 Eh     change       -0.3034683E-06 Eh
 * total energy  :  -114.8345936 Eh     change       -0.3789322E-06 Eh
 * total energy  :  -114.8345941 Eh     change       -0.4973837E-06 Eh
 * total energy  :  -114.8345948 Eh     change       -0.7008481E-06 Eh
 * total energy  :  -114.8345958 Eh     change       -0.9308419E-06 Eh
 * total energy  :  -114.8345967 Eh     change       -0.9494851E-06 Eh
 * total energy  :  -114.8345967 Eh     change        0.2665692E-07 Eh
 * total energy  :  -114.8345968 Eh     change       -0.9678384E-07 Eh
   *** GEOMETRY OPTIMIZATION CONVERGED AFTER 45 ITERATIONS ***

 final structure:
================
72
 xtb: 6.7.1 (edcfbbe)
N           -0.01554236407291       -0.87770521698286        0.90938632079353
C           -0.00815447633898        0.26768710942807        0.71838528581713
C           -0.00291313326192        1.61509017251689        0.42996728056243
C           -1.24136569280426        2.35563031694910        0.38698681222357
C           -2.52061621766126        1.68935463686745        0.23965638993613
C           -2.64564297191363        0.55465000020469       -0.57378656959343
C           -3.84604108511939       -0.10553357823779       -0.68953346705974
C           -4.97015861440302        0.35120970071195        0.00160979656491
N           -6.18383714201724       -0.33297326828137       -0.09984503785752
C           -7.41598465775416        0.23493406010324       -0.35356658501568
C           -7.74229159529901        1.55805506690929       -0.61883174570194
C           -9.06795168491881        1.85757605959480       -0.87127219614865
C          -10.04885105964514        0.86912169003923       -0.87314911242396
C           -9.72563632513971       -0.45465601477325       -0.63877166950296
C           -8.40213400943925       -0.77924380060671       -0.38176716547071
C           -7.71935624577425       -2.01874144503130       -0.12530020712398
C           -8.14289635917855       -3.33437535295010       -0.00915840109619
C           -7.20409389671025       -4.30792091666557        0.27791442852991
C           -5.86411561816929       -3.97856297472855        0.46656316591182
C           -5.41826248863246       -2.67470899048376        0.35670701629372
C           -6.35187459336627       -1.69729368483612        0.03944894110720
C           -4.86473430473402        1.49449174415826        0.79687370429114
C           -3.66217092927392        2.15255267458615        0.90861420741217
C           -1.15854935462279        3.72930986926550        0.46372908737666
N           -0.00160347926521        4.38172276303169        0.48037039082359
C            1.15336171839148        3.72872695051131        0.46184695392446
C            1.23786047638704        2.35401696498980        0.38794607643210
C            2.51679095869252        1.68946095833619        0.24132023537799
C            2.63906955124959        0.53658805562897       -0.54784588903904
C            3.84038588266489       -0.12232048873469       -0.65962193917275
C            4.97034817204510        0.35546480038613        0.00742938038597
N            6.18668433839380       -0.32435665035906       -0.09230322566865
C            7.41066645306871        0.24403309996646       -0.38113303902892
C            7.72265035460691        1.56091011456663       -0.69092370739150
C            9.04186779575042        1.86197735717394       -0.97336832901192
C           10.02997175116958        0.88075709373083       -0.96083498439689
C            9.72064135720916       -0.43754057333153       -0.68094205699107
C            8.40378920527663       -0.76366019422954       -0.39354469117042
C            7.73391886065978       -1.99943246026288       -0.08926917501291
C            8.16847334154531       -3.30790205364373        0.06160081350840
C            7.24079842060650       -4.27834823053607        0.39228320601282
C            5.90105653521155       -3.95265091217318        0.58899140735410
C            5.44422389910431       -2.65596224498738        0.44483666483296
C            6.36651846761317       -1.68248601683082        0.08526296831056
C            4.86854257093597        1.51677818974259        0.77699146282522
C            3.66441170476872        2.17128306159168        0.88807386207339
H           -1.79038973206819        0.20041416747218       -1.12808513762995
H           -3.93208861762258       -0.96682568446366       -1.33469230633657
H           -6.98619210814408        2.32778298185691       -0.64210724585355
H           -9.34785239639284        2.88010116149331       -1.07639463704957
H          -11.07403092720841        1.14315714165158       -1.07210398944841
H          -10.48372422346249       -1.22274037238682       -0.65944825316318
H           -9.18461329294965       -3.58754798931641       -0.13529076799557
H           -7.51250408787818       -5.33857337750076        0.36936888284104
H           -5.15712777867333       -4.75764571676460        0.70880404957228
H           -4.38168326258968       -2.42778822549324        0.52651084986792
H           -5.72490362086090        1.83435546522039        1.35440531148260
H           -3.58571466072898        3.01377390268067        1.55540076048244
H           -2.04437653463509        4.34614930816613        0.42261253387196
H            2.03893377049396        4.34574522944674        0.41652326115665
H            1.78041901986584        0.16652380339686       -1.08614258397799
H            3.92286482331155       -0.99901792918635       -1.28424415408959
H            6.96019462776136        2.32396865944817       -0.72492258296305
H            9.31086215135531        2.87969374103219       -1.21392405282979
H           11.04976729924192        1.15579014529678       -1.18455837790390
H           10.48424202004760       -1.20037003486079       -0.69021535830853
H            9.21012810025707       -3.55788082288112       -0.07126638554160
H            7.55804979649931       -5.30343586113972        0.51176777507710
H            5.20323837771872       -4.72877305470839        0.86498172606395
H            4.40815501941740       -2.41070430794799        0.62020893843630
H            5.73378804490132        1.87346506644215        1.31594198099483
H            3.59192827100370        3.04556816592984        1.51746193893656

 projected vibrational frequencies (cm⁻¹)
eigval :       -0.00    -0.00    -0.00     0.00     0.00     0.00
eigval :        9.01    11.49    12.01    21.66    36.17    37.64
eigval :       47.36    56.85    70.24    81.97    97.71    98.12
eigval :      103.61   115.02   117.14   126.76   141.72   147.11
eigval :      151.03   168.45   191.72   202.16   221.27   239.26
eigval :      252.02   263.46   270.97   271.09   290.59   297.87
eigval :      350.68   370.90   376.29   377.43   382.71   386.67
eigval :      386.80   395.76   403.66   409.14   421.35   425.28
eigval :      426.21   437.48   439.50   454.32   479.66   495.78
eigval :      507.80   515.99   516.94   522.55   538.09   538.15
eigval :      539.74   540.69   571.97   580.03   584.83   592.34
eigval :      600.66   604.95   607.18   616.69   628.89   650.74
eigval :      674.36   674.43   685.42   685.95   700.10   709.03
eigval :      710.87   728.66   755.57   755.90   760.02   769.83
eigval :      769.96   779.49   779.69   800.64   805.52   818.23
eigval :      822.33   830.63   855.58   858.47   872.42   872.61
eigval :      874.54   875.12   897.11   897.15   902.75   902.79
eigval :      904.32   904.47   917.69   917.86   919.64   919.82
eigval :      920.87   926.09   926.49   929.34   930.81   931.36
eigval :      989.80  1009.78  1011.50  1011.52  1036.79  1069.45
eigval :     1069.64  1071.19  1072.94  1086.85  1110.75  1116.96
eigval :     1118.30  1128.74  1139.58  1142.27  1147.88  1148.18
eigval :     1174.57  1175.58  1179.06  1179.10  1180.15  1185.85
eigval :     1203.82  1212.76  1232.50  1232.55  1236.66  1240.98
eigval :     1242.94  1250.68  1265.03  1266.51  1290.14  1290.22
eigval :     1294.39  1294.66  1311.87  1322.59  1324.30  1338.13
eigval :     1349.45  1349.64  1352.28  1357.35  1360.82  1365.09
eigval :     1370.81  1402.20  1413.49  1416.01  1418.21  1420.66
eigval :     1423.93  1424.64  1465.69  1465.87  1481.07  1483.25
eigval :     1484.21  1484.60  1489.27  1517.97  1520.59  1564.12
eigval :     1569.50  1569.64  1576.75  1583.50  1584.15  1585.17
eigval :     1585.39  1604.65  1605.40  2224.49  3068.90  3069.60
eigval :     3080.46  3080.47  3081.76  3081.79  3082.14  3082.28
eigval :     3086.00  3086.04  3088.03  3088.15  3089.49  3089.77
eigval :     3092.81  3092.96  3093.86  3094.12  3095.45  3095.63
eigval :     3098.64  3099.17  3101.05  3101.57  3102.61  3104.12

   temp. (K)  partition function   enthalpy   heat capacity  entropy
                                   cal/mol     cal/K/mol   cal/K/mol   J/K/mol
 298.15  VIB  0.101E+17            20748.400    133.557    128.392
         ROT  0.101E+09              888.752      2.981     39.613
         INT  0.102E+25            21637.153    136.538    168.005
         TR   0.137E+29             1481.254      4.968     44.972
         TOT                       23118.4065   141.5060   212.9768   891.0949

       T/K    H(0)-H(T)+PV         H(T)/Eh          T*S/Eh         G(T)/Eh
   ------------------------------------------------------------------------
    298.15    0.368415E-01    0.577467E+00    0.101192E+00    0.476275E+00
   ------------------------------------------------------------------------

         :::::::::::::::::::::::::::::::::::::::::::::::::::::
         ::                  THERMODYNAMIC                  ::
         :::::::::::::::::::::::::::::::::::::::::::::::::::::
         :: total free energy        -114.358321981706 Eh   ::
         ::.................................................::
         :: total energy             -114.834596790690 Eh   ::
         :: zero point energy           0.540625426526 Eh   ::
         :: G(RRHO) w/o ZPVE           -0.064350617542 Eh   ::
         :: G(RRHO) contrib.            0.476274808984 Eh   ::
         :::::::::::::::::::::::::::::::::::::::::::::::::::::

           -------------------------------------------------
          | TOTAL ENERGY             -114.834596790690 Eh   |
          | TOTAL ENTHALPY           -114.257129838367 Eh   |
          | TOTAL FREE ENERGY        -114.358321981706 Eh   |
          | GRADIENT NORM               0.000061792167 Eh/α |
           -------------------------------------------------

 * finished run on 2025/07/19 at 14:15:28.769
