   * xtb version 6.7.1 (edcfbbe) compiled by 'albert@albert-system' on 2024-07-22

   ID    Z sym.   atoms
    1    7 N      1, 9, 25, 32
    2    6 C      2-8, 10-24, 26-31, 33-46
    3    1 H      47-72

          program call               : xtb data2507/gas/2CzP-INN/2CzP-INN_gas_S0_crest.xyz --gfn 2 --ohess vtight --parallel 40 --molden --ceasefiles --namespace data2507/gas/2CzP-INN/2CzP-INN_gas_S0_finalOpt
          :  Hamiltonian                  GFN2-xTB          :
 * total energy  :  -114.9155627 Eh     change       -0.1180723E-08 Eh
 * total energy  :  -114.9155589 Eh     change        0.3778137E-05 Eh
 * total energy  :  -114.9155662 Eh     change       -0.7261679E-05 Eh
 * total energy  :  -114.9155680 Eh     change       -0.1848167E-05 Eh
 * total energy  :  -114.9155705 Eh     change       -0.2489780E-05 Eh
 * total energy  :  -114.9155747 Eh     change       -0.4220941E-05 Eh
 * total energy  :  -114.9155799 Eh     change       -0.5161666E-05 Eh
 * total energy  :  -114.9155850 Eh     change       -0.5080986E-05 Eh
 * total energy  :  -114.9155890 Eh     change       -0.4000845E-05 Eh
 * total energy  :  -114.9155912 Eh     change       -0.2241420E-05 Eh
 * total energy  :  -114.9156184 Eh     change       -0.4273402E-06 Eh
 * total energy  :  -114.9156190 Eh     change       -0.5734284E-06 Eh
 * total energy  :  -114.9156196 Eh     change       -0.6800091E-06 Eh
 * total energy  :  -114.9156202 Eh     change       -0.5636928E-06 Eh
 * total energy  :  -114.9156206 Eh     change       -0.4072091E-06 Eh
 * total energy  :  -114.9156210 Eh     change       -0.3546125E-06 Eh
 * total energy  :  -114.9156214 Eh     change       -0.4345164E-06 Eh
 * total energy  :  -114.9156220 Eh     change       -0.6249851E-06 Eh
 * total energy  :  -114.9156220 Eh     change       -0.5818748E-08 Eh
   *** GEOMETRY OPTIMIZATION CONVERGED AFTER 44 ITERATIONS ***

 final structure:
================
72
 xtb: 6.7.1 (edcfbbe)
N           -0.00576521193086       -1.00389443632050        0.01910187892869
C           -0.00336455063132        0.14300582209903        0.01840074804393
C           -0.00130764623797        1.55891738837128        0.01875822965306
C           -1.21428407670796        2.26725214220161        0.01510234289042
C           -2.51490958250386        1.59045554092374        0.02188552268834
C           -3.51368460249513        1.99449910052138       -0.86243645894447
C           -4.73963549242826        1.36300416924582       -0.87551273705232
C           -5.00208090438904        0.32443069392192        0.01601643124583
N           -6.24263103140715       -0.31731576682967        0.00648503787833
C           -7.47749822722136        0.30434466581930        0.00881201859657
C           -7.78851759682814        1.65441333661748        0.08087603253429
C           -9.12408455809835        2.00928823767211        0.09838453285752
C          -10.13249790846859        1.04956287708204        0.05574896902807
C           -9.82910058701956       -0.29659098817990        0.01184463861596
C           -8.49409865470995       -0.67751491730772       -0.00687883978497
C           -7.83179430247620       -1.95217494295390       -0.02658876022376
C           -8.28789235290738       -3.26308489660141       -0.06723839468025
C           -7.36016364945141       -4.28474483618497       -0.10357853526375
C           -5.99438613674216       -4.01145470540568       -0.11681609650691
C           -5.51635901602858       -2.71533648529975       -0.07716782911104
C           -6.44404825546071       -1.68581178294856       -0.01322062257878
C           -4.01455492636760       -0.06701097301442        0.91769496416333
C           -2.78333495749844        0.55460977085200        0.91417556074669
C           -1.13405528296827        3.65974471687082        0.01084652267230
N            0.00104657304955        4.33086460845002        0.02345871945536
C            1.13492200149476        3.65771432737635        0.03245726723364
C            1.21300821351075        2.26501213714951        0.02298911894422
C            2.51268495922489        1.58682300381523        0.00668150497532
C            2.77205045484678        0.55057308131834       -0.88797112074351
C            4.00342628064198       -0.07045856304867       -0.90480115625169
C            5.00095864877777        0.32289924435650       -0.01513605052235
N            6.24312071172045       -0.31582765038938       -0.02096106090568
C            7.47590853199383        0.30949523039514       -0.04180543433692
C            7.78148209115546        1.66030505143656       -0.12241897698396
C            9.11552758611809        2.01933025410262       -0.15946148202678
C           10.12744451162824        1.06286625524887       -0.12747916342887
C            9.82902194834248       -0.28410040931736       -0.07500334747858
C            8.49562553257525       -0.66921719666036       -0.03690411877689
C            7.83747858431343       -1.94578841802943       -0.00444813125116
C            8.29788629693412       -3.25525009120818        0.03412161873702
C            7.37369939087633       -4.27946860866375        0.08573907114217
C            6.00738896593360       -4.01016442633185        0.11574785312659
C            5.52506867479430       -2.71556826873097        0.07845114150659
C            6.44886050882070       -1.68358956498657       -0.00021448676789
C            4.74743693854692        1.36114517719573        0.87936723245198
C            3.52071822023578        1.99126964415787        0.88033929253513
H           -3.31161566601512        2.78737081773161       -1.56780983125731
H           -5.49443605474203        1.65594579024615       -1.58939446373974
H           -7.01595028697609        2.40658142224408        0.13553855715425
H           -9.39120893650723        3.05449523964461        0.15045843873316
H          -11.16435175308035        1.36748289996461        0.06808303252769
H          -10.60997509985114       -1.04180820161185       -0.00258840884068
H           -9.34678094599919       -3.47304373085329       -0.07530254142232
H           -7.69327047696973       -5.31147829413831       -0.13274641713430
H           -5.29190725285553       -4.83030695809338       -0.16317500456114
H           -4.45590849532500       -2.51610859060960       -0.10857320454229
H           -4.22392954282518       -0.84966024444532        1.63057476586841
H           -2.03342566260783        0.25250770112340        1.62989967338690
H           -2.03559677650623        4.25762250058048        0.01887619736914
H            2.03738327587573        4.25420746752187        0.02533974645351
H            2.01477728843019        0.24801029200425       -1.59568726215176
H            4.20529689338211       -0.85351525286961       -1.61941075599854
H            7.00566711826012        2.40969894256992       -0.16882548364439
H            9.37860815175047        3.06517575247631       -0.21875693967472
H           11.15801081522728        1.38398998090287       -0.15499027981126
H           10.61245028544620       -1.02674388501831       -0.06880682136702
H            9.35739424572466       -3.46214815776128        0.02888494283717
H            7.71019431436343       -5.30512745928401        0.11378451104292
H            5.30802892867995       -4.83095684859828        0.17353305577383
H            4.46453424818855       -2.51917867072688        0.12258872795339
H            5.51032236345594        1.65521901928406        1.58415590472382
H            3.32593050293242        2.78372240073323        1.58820407959585

          :  Hamiltonian                  GFN2-xTB          :
         :: gradient norm              0.000059396772 Eh/a0 ::
         :: HOMO-LUMO gap              1.851938360019 eV    ::
         :: SCC energy              -117.112647840043 Eh    ::
         :: -> dispersion             -0.100509999134 Eh    ::
         :: repulsion energy           2.197025817100 Eh    ::

    * Orbital Energies and Occupations

         #    Occupation            Energy/Eh            Energy/eV
      -------------------------------------------------------------
         1        2.0000           -0.6881478             -18.7255
       ...           ...                  ...                  ...
        95        2.0000           -0.4198045             -11.4235
        96        2.0000           -0.4196136             -11.4183
        97        2.0000           -0.4181046             -11.3772
        98        2.0000           -0.4179579             -11.3732
        99        2.0000           -0.4139343             -11.2637
       100        2.0000           -0.4110051             -11.1840
       101        2.0000           -0.4061493             -11.0519
       102        2.0000           -0.4061124             -11.0509
       103        2.0000           -0.3844559             -10.4616
       104        2.0000           -0.3795611             -10.3284
       105        2.0000           -0.3795355             -10.3277
       106        2.0000           -0.3649487              -9.9308
       107        2.0000           -0.3646064              -9.9214 (HOMO)
       108                         -0.2965489              -8.0695 (LUMO)
       109                         -0.2744938              -7.4694
       110                         -0.2480512              -6.7498
       111                         -0.2456784              -6.6852
       112                         -0.2426688              -6.6034
       113                         -0.2418183              -6.5802
       114                         -0.2397726              -6.5245
       115                         -0.2246163              -6.1121
       116                         -0.2227674              -6.0618
       117                         -0.2227238              -6.0606
       118                         -0.2160824              -5.8799
       ...                                ...                  ...
       210                          1.1544408              31.4139
      -------------------------------------------------------------
                  HL-Gap            0.0680575 Eh            1.8519 eV

     #   Z          covCN         q      C6AA      α(0)
     1   7 N        0.911    -0.236    26.173     7.399
     2   6 C        1.908     0.117    28.227     8.580
     3   6 C        2.986     0.020    27.564     8.612
     4   6 C        2.976     0.008    27.833     8.654
     5   6 C        2.977     0.002    27.967     8.675
     6   6 C        2.924    -0.032    28.808     8.802
     7   6 C        2.921    -0.042    29.045     8.838
     8   6 C        2.913     0.068    26.479     8.438
     9   7 N        2.802    -0.043    22.062     6.976
    10   6 C        3.073     0.046    26.890     8.502
    11   6 C        2.910    -0.051    29.266     8.871
    12   6 C        2.924    -0.033    28.829     8.805
    13   6 C        2.920    -0.040    28.999     8.831
    14   6 C        2.913    -0.032    28.808     8.801
    15   6 C        3.067    -0.016    28.337     8.729
    16   6 C        3.068    -0.016    28.344     8.730
    17   6 C        2.913    -0.033    28.812     8.802
    18   6 C        2.920    -0.040    28.991     8.830
    19   6 C        2.924    -0.032    28.807     8.802
    20   6 C        2.910    -0.050    29.251     8.868
    21   6 C        3.073     0.046    26.886     8.502
    22   6 C        2.921    -0.041    29.008     8.832
    23   6 C        2.923    -0.028    28.691     8.784
    24   6 C        2.916     0.053    26.808     8.490
    25   7 N        1.834    -0.211    26.429     7.618
    26   6 C        2.916     0.053    26.808     8.490
    27   6 C        2.976     0.008    27.834     8.654
    28   6 C        2.976     0.002    27.966     8.675
    29   6 C        2.923    -0.028    28.691     8.784
    30   6 C        2.921    -0.041    29.007     8.832
    31   6 C        2.913     0.068    26.478     8.438
    32   7 N        2.802    -0.043    22.063     6.976
    33   6 C        3.073     0.046    26.890     8.502
    34   6 C        2.910    -0.051    29.266     8.871
    35   6 C        2.924    -0.033    28.828     8.805
    36   6 C        2.920    -0.040    29.000     8.831
    37   6 C        2.913    -0.032    28.808     8.801
    38   6 C        3.067    -0.016    28.337     8.729
    39   6 C        3.068    -0.016    28.344     8.730
    40   6 C        2.913    -0.033    28.811     8.802
    41   6 C        2.920    -0.040    28.991     8.830
    42   6 C        2.924    -0.032    28.807     8.802
    43   6 C        2.910    -0.050    29.251     8.868
    44   6 C        3.073     0.046    26.886     8.502
    45   6 C        2.921    -0.042    29.043     8.838
    46   6 C        2.924    -0.032    28.808     8.802
    47   1 H        0.926     0.039     2.469     2.457
    48   1 H        0.926     0.046     2.368     2.406
    49   1 H        0.926     0.026     2.638     2.540
    50   1 H        0.926     0.030     2.591     2.517
    51   1 H        0.926     0.029     2.599     2.521
    52   1 H        0.926     0.032     2.557     2.500
    53   1 H        0.926     0.032     2.561     2.503
    54   1 H        0.926     0.029     2.594     2.519
    55   1 H        0.926     0.032     2.557     2.500
    56   1 H        0.926     0.031     2.566     2.505
    57   1 H        0.926     0.049     2.338     2.391
    58   1 H        0.926     0.040     2.447     2.446
    59   1 H        0.925     0.045     2.381     2.413
    60   1 H        0.925     0.045     2.380     2.413
    61   1 H        0.926     0.040     2.446     2.446
    62   1 H        0.926     0.049     2.338     2.391
    63   1 H        0.926     0.026     2.639     2.540
    64   1 H        0.926     0.030     2.590     2.517
    65   1 H        0.926     0.029     2.599     2.521
    66   1 H        0.926     0.032     2.557     2.500
    67   1 H        0.926     0.032     2.561     2.503
    68   1 H        0.926     0.029     2.594     2.519
    69   1 H        0.926     0.032     2.557     2.501
    70   1 H        0.926     0.031     2.568     2.506
    71   1 H        0.926     0.046     2.368     2.406
    72   1 H        0.926     0.039     2.467     2.456

molecular dipole:
                 x           y           z       tot (Debye)
 q only:        0.002       0.551      -0.000
   full:        0.002       0.727      -0.000       1.847

 projected vibrational frequencies (cm⁻¹)
eigval :       -0.00    -0.00    -0.00     0.00     0.00     0.00
eigval :        9.75    10.53    13.61    26.55    33.60    34.55
eigval :       47.78    54.01    74.02    80.87    95.88    97.38
eigval :      103.97   108.51   118.87   131.19   142.75   147.38
eigval :      161.00   168.98   187.12   208.79   222.98   233.61
eigval :      252.72   258.70   271.96   272.03   274.76   302.15
eigval :      358.45   376.19   377.12   383.30   386.17   388.28
eigval :      393.99   399.46   406.79   412.64   424.05   426.97
eigval :      438.61   440.17   443.34   481.31   506.43   517.97
eigval :      519.14   529.98   534.97   537.36   541.14   541.19
eigval :      574.70   576.03   576.89   587.02   587.04   595.93
eigval :      605.11   613.37   620.22   628.99   650.29   673.98
eigval :      674.12   691.79   695.62   702.68   708.37   711.06
eigval :      725.20   732.40   756.60   757.72   770.29   770.37
eigval :      781.51   781.54   796.17   819.13   822.54   835.83
eigval :      858.48   866.72   866.88   874.74   875.11   880.15
eigval :      880.47   897.92   898.15   902.40   902.88   904.12
eigval :      904.17   906.15   919.86   920.09   921.73   921.79
eigval :      926.40   927.97   928.20   934.70   934.99   940.10
eigval :     1000.33  1012.11  1012.13  1017.89  1063.29  1071.09
eigval :     1071.15  1074.74  1074.91  1117.85  1118.01  1137.52
eigval :     1138.28  1153.21  1153.36  1161.80  1163.16  1176.73
eigval :     1176.89  1181.16  1181.18  1183.80  1184.38  1204.08
eigval :     1205.89  1212.35  1236.31  1236.37  1243.79  1245.41
eigval :     1254.67  1260.56  1268.00  1270.74  1299.18  1300.08
eigval :     1301.37  1301.59  1314.34  1316.76  1325.66  1356.89
eigval :     1357.64  1361.14  1361.25  1364.69  1373.12  1400.17
eigval :     1401.20  1411.36  1425.99  1427.82  1428.24  1432.00
eigval :     1437.30  1475.63  1475.66  1487.76  1487.78  1497.76
eigval :     1500.79  1526.19  1541.24  1557.80  1559.25  1575.81
eigval :     1575.84  1589.17  1589.36  1594.31  1594.38  1599.17
eigval :     1599.22  1614.44  1614.58  2364.07  3064.74  3065.23
eigval :     3076.87  3076.88  3078.58  3078.59  3081.46  3081.54
eigval :     3082.42  3082.42  3083.93  3083.98  3088.41  3088.55
eigval :     3089.17  3089.21  3091.50  3091.57  3096.45  3096.48
eigval :     3098.05  3098.09  3098.17  3098.29  3102.31  3102.39

   temp. (K)  partition function   enthalpy   heat capacity  entropy
                                   cal/mol     cal/K/mol   cal/K/mol   J/K/mol
 298.15  VIB  0.701E+16            20497.555    131.673    126.886
         ROT  0.101E+09              888.752      2.981     39.601
         INT  0.705E+24            21386.307    134.654    166.487
         TR   0.137E+29             1481.254      4.968     44.972
         TOT                       22867.5612   139.6217   211.4584   884.7419

       T/K    H(0)-H(T)+PV         H(T)/Eh          T*S/Eh         G(T)/Eh
   ------------------------------------------------------------------------
    298.15    0.364418E-01    0.581093E+00    0.100471E+00    0.480622E+00
   ------------------------------------------------------------------------

         :::::::::::::::::::::::::::::::::::::::::::::::::::::
         ::                  THERMODYNAMIC                  ::
         :::::::::::::::::::::::::::::::::::::::::::::::::::::
         :: total free energy        -114.435000107135 Eh   ::
         ::.................................................::
         :: total energy             -114.915622022945 Eh   ::
         :: zero point energy           0.544650839856 Eh   ::
         :: G(RRHO) w/o ZPVE           -0.064028924045 Eh   ::
         :: G(RRHO) contrib.            0.480621915810 Eh   ::
         :::::::::::::::::::::::::::::::::::::::::::::::::::::

           -------------------------------------------------
          | TOTAL ENERGY             -114.915622022945 Eh   |
          | TOTAL ENTHALPY           -114.334529404719 Eh   |
          | TOTAL FREE ENERGY        -114.435000107135 Eh   |
          | GRADIENT NORM               0.000059432642 Eh/α |
          | HOMO-LUMO GAP               1.851938984316 eV   |
           -------------------------------------------------

 * finished run on 2025/07/19 at 14:10:24.086
