   * xtb version 6.7.1 (edcfbbe) compiled by 'albert@albert-system' on 2024-07-22

   ID    Z sym.   atoms
    1    7 N      1, 9, 25, 32
    2    6 C      2-8, 10-24, 26-31, 33-46
    3    1 H      47-72

          program call               : xtb data2507/gas/2CzP-INN/2CzP-INN_gas_S0_finalOpt.xtbopt.xyz --gfn 2 --spinpol --tblite --uhf 2 --ohess vtight --parallel 40 --molden --ceasefiles --namespace data2507/gas/2CzP-INN/2CzP-INN_gas_T1_preOpt
 * total energy  :  -114.8277900 Eh     change       -0.1183186E-07 Eh
 * total energy  :  -114.8319257 Eh     change       -0.4135717E-02 Eh
 * total energy  :  -114.8326523 Eh     change       -0.7265620E-03 Eh
 * total energy  :  -114.8327180 Eh     change       -0.6575334E-04 Eh
 * total energy  :  -114.8327756 Eh     change       -0.5762074E-04 Eh
 * total energy  :  -114.8328057 Eh     change       -0.3004742E-04 Eh
 * total energy  :  -114.8328402 Eh     change       -0.3453405E-04 Eh
 * total energy  :  -114.8328565 Eh     change       -0.1626071E-04 Eh
 * total energy  :  -114.8328642 Eh     change       -0.7730627E-05 Eh
 * total energy  :  -114.8328744 Eh     change       -0.1024176E-04 Eh
 * total energy  :  -114.8330154 Eh     change       -0.6855060E-06 Eh
 * total energy  :  -114.8330161 Eh     change       -0.6783252E-06 Eh
 * total energy  :  -114.8330167 Eh     change       -0.6631122E-06 Eh
 * total energy  :  -114.8330174 Eh     change       -0.6662052E-06 Eh
 * total energy  :  -114.8330180 Eh     change       -0.5965192E-06 Eh
 * total energy  :  -114.8330187 Eh     change       -0.7033041E-06 Eh
 * total energy  :  -114.8330193 Eh     change       -0.6434802E-06 Eh
 * total energy  :  -114.8330199 Eh     change       -0.5753090E-06 Eh
 * total energy  :  -114.8330200 Eh     change       -0.6071517E-07 Eh
   *** GEOMETRY OPTIMIZATION CONVERGED AFTER 94 ITERATIONS ***

 final structure:
================
72
 xtb: 6.7.1 (edcfbbe)
N           -0.00062343113864       -1.03700327070709       -0.00137236277317
C           -0.00045529777405        0.12378320496157        0.00165486070633
C           -0.00044029157108        1.50299991282317        0.00494315969588
C           -1.23387477547557        2.24432084739826       -0.04401790675474
C           -2.53564469857729        1.59714017479928       -0.01714101961627
C           -3.57553945676467        2.05593242865865       -0.83565487683483
C           -4.80329103571072        1.43468112463580       -0.83625322122067
C           -5.03521826046695        0.33814289752919       -0.00316762220495
N           -6.27388051035693       -0.30852825288352       -0.00974356212619
C           -7.50870715117941        0.30407992238880        0.06149616330877
C           -7.82259418167392        1.64864406763401        0.20771109357655
C           -9.15878204065735        1.99554951196431        0.27937652567364
C          -10.16378783350614        1.03346040090016        0.22000474354071
C           -9.85686427255624       -0.30990570257398        0.10551796380183
C           -8.52310372731474       -0.68192196148045        0.03065246881771
C           -7.85452811524804       -1.95141514990598       -0.06703901364006
C           -8.30324477564760       -3.26105455652780       -0.15122619358715
C           -7.36870795042390       -4.27391287100011       -0.26301058482968
C           -6.00608058053254       -3.99009767435301       -0.31072408001762
C           -5.53494943111536       -2.69302991068401       -0.22954838938851
C           -6.46756065164564       -1.67437094020182       -0.08635496177839
C           -4.01461395789279       -0.10838087306781        0.83870820667769
C           -2.78736633007720        0.51292098179847        0.83220679173150
C           -1.15643212251680        3.61995426885859       -0.02124343901943
N           -0.00091812112866        4.27626287579807        0.01416436995841
C            1.15457927138444        3.62037553866421        0.04516340773462
C            1.23304381639323        2.24450345575351        0.05825217816484
C            2.53493416286489        1.59853061260534        0.02498793116666
C            2.78516993398879        0.51814313177340       -0.82992460171596
C            4.01279999407680       -0.10212326541188       -0.84280475902614
C            5.03572837506342        0.34163660958036       -0.00217302796510
N            6.27502077339193       -0.30372490951507       -0.00254513391682
C            7.50894837450836        0.31052883018637       -0.07525741197078
C            7.82088932078546        1.65610279995188       -0.21628711005961
C            9.15644644121974        2.00476931789177       -0.29115744393401
C           10.16266641206917        1.04348567057714       -0.23994540696059
C            9.85757306746114       -0.30074032102994       -0.13065242879108
C            8.52449630393069       -0.67452514170797       -0.05270976972858
C            7.85760157036038       -1.94518874760287        0.04132120041422
C            8.30797486762387       -3.25472350873475        0.11771124192344
C            7.37488656446307       -4.26909534621733        0.22800346462327
C            6.01214375635958       -3.98695923365422        0.28189082079791
C            5.53937621409379       -2.69001879669517        0.20852457577435
C            6.47041381830221       -1.66970439608731        0.06684689092314
C            4.80532247759470        1.43431210565325        0.83652557258392
C            3.57710424739716        2.05443100345353        0.84250558124737
H           -3.39575598531852        2.88528358717146       -1.50396326227242
H           -5.58136267024265        1.76641752674014       -1.50763412447615
H           -7.05104321247720        2.39986459766593        0.27817161021392
H           -9.42855123148986        3.03537378500165        0.38866520144085
H          -11.19621097436978        1.34428320852941        0.27609605117912
H          -10.63587041617139       -1.05658943716371        0.07949898900667
H           -9.36009453537465       -3.48004183104480       -0.13447888237749
H           -7.69688387219765       -5.30059457839223       -0.32570627222355
H           -5.30063791447305       -4.80029193545892       -0.41750963744811
H           -4.47819560929129       -2.48338117854788       -0.28887928392098
H           -4.20313630471616       -0.92883135920786        1.51447503805352
H           -2.01449675845784        0.16928817308450        1.50156102074019
H           -2.04796728719629        4.22734503589604        0.03450653324996
H            2.04579944079644        4.22858029311661       -0.00702590250726
H            2.01068246156259        0.17690974687488       -1.49862781416851
H            4.19997326266839       -0.91938635138117       -1.52279970379715
H            7.04829820902267        2.40681352623913       -0.28045954603643
H            9.42472103981763        3.04538004777746       -0.39656114838272
H           11.19455402256425        1.35566379222970       -0.29834363583049
H           10.63745899833826       -1.04670133569221       -0.11098967277816
H            9.36498504959941       -3.47252013856785        0.09618998310267
H            7.70435902437410       -5.29571322035312        0.28467222682519
H            5.30793138446300       -4.79839628656877        0.38734558785964
H            4.48262496540759       -2.48176031926323        0.27258528832809
H            5.58515000320559        1.76367688586997        1.50704226489376
H            3.39869167697349        2.88047255458317        1.51525934383663

 projected vibrational frequencies (cm⁻¹)
eigval :       -0.00    -0.00    -0.00    -0.00     0.00     0.00
eigval :        7.18     9.86    14.13    24.46    29.31    34.68
eigval :       44.98    55.51    68.21    83.64    88.85   100.30
eigval :      102.71   111.75   118.19   131.94   142.26   147.94
eigval :      162.34   169.21   193.89   205.21   223.55   237.06
eigval :      252.42   263.60   271.20   271.25   290.71   294.08
eigval :      351.65   361.03   371.80   381.33   381.49   384.39
eigval :      386.85   392.33   398.73   406.82   408.93   422.07
eigval :      425.84   437.15   438.67   448.32   464.70   493.46
eigval :      515.42   516.41   521.28   532.25   537.98   538.03
eigval :      540.16   542.96   570.06   581.04   584.08   592.52
eigval :      597.30   603.09   606.23   617.34   638.15   648.05
eigval :      674.45   674.49   685.88   686.23   700.19   709.10
eigval :      710.84   728.33   752.12   755.54   757.52   770.10
eigval :      770.16   779.68   779.70   795.38   811.31   820.71
eigval :      822.69   827.04   856.22   860.18   872.92   873.02
eigval :      875.31   875.79   897.06   897.10   903.09   903.10
eigval :      904.78   904.80   918.33   918.55   920.32   920.36
eigval :      921.21   927.17   927.24   928.94   932.43   932.71
eigval :      990.71  1009.47  1011.38  1011.40  1040.91  1058.31
eigval :     1069.70  1069.71  1072.98  1074.49  1103.59  1116.01
eigval :     1116.89  1133.43  1138.42  1142.25  1147.97  1148.19
eigval :     1174.74  1175.86  1179.33  1179.34  1179.92  1184.49
eigval :     1202.93  1210.66  1232.44  1232.49  1237.40  1238.39
eigval :     1242.38  1245.24  1264.46  1264.54  1289.31  1289.80
eigval :     1294.42  1294.76  1305.25  1321.48  1323.71  1345.89
eigval :     1348.75  1348.81  1351.88  1358.74  1361.81  1369.10
eigval :     1378.68  1395.88  1412.26  1414.64  1417.93  1419.01
eigval :     1422.63  1424.66  1465.48  1465.56  1481.35  1482.79
eigval :     1484.10  1484.19  1492.57  1519.86  1521.28  1560.55
eigval :     1569.15  1569.17  1576.43  1582.99  1583.54  1584.55
eigval :     1584.61  1604.08  1604.76  2243.00  3069.26  3069.62
eigval :     3079.98  3080.01  3081.22  3081.23  3082.35  3082.36
eigval :     3086.56  3086.59  3088.78  3088.83  3091.35  3091.39
eigval :     3091.82  3092.06  3094.26  3094.28  3096.26  3096.40
eigval :     3099.43  3099.85  3101.75  3102.35  3108.05  3108.27

   temp. (K)  partition function   enthalpy   heat capacity  entropy
                                   cal/mol     cal/K/mol   cal/K/mol   J/K/mol
 298.15  VIB  0.160E+17            20781.561    133.409    128.684
         ROT  0.505E+08              888.752      2.981     38.229
         INT  0.810E+24            21670.313    136.390    166.913
         TR   0.137E+29             1481.254      4.968     44.972
         TOT                       23151.5669   141.3581   211.8844   886.5243

       T/K    H(0)-H(T)+PV         H(T)/Eh          T*S/Eh         G(T)/Eh
   ------------------------------------------------------------------------
    298.15    0.368944E-01    0.577423E+00    0.100673E+00    0.476750E+00
   ------------------------------------------------------------------------

         :::::::::::::::::::::::::::::::::::::::::::::::::::::
         ::                  THERMODYNAMIC                  ::
         :::::::::::::::::::::::::::::::::::::::::::::::::::::
         :: total free energy        -114.356270387211 Eh   ::
         ::.................................................::
         :: total energy             -114.833019961942 Eh   ::
         :: zero point energy           0.540528317927 Eh   ::
         :: G(RRHO) w/o ZPVE           -0.063778743196 Eh   ::
         :: G(RRHO) contrib.            0.476749574731 Eh   ::
         :::::::::::::::::::::::::::::::::::::::::::::::::::::

           -------------------------------------------------
          | TOTAL ENERGY             -114.833019961942 Eh   |
          | TOTAL ENTHALPY           -114.255597273767 Eh   |
          | TOTAL FREE ENERGY        -114.356270387211 Eh   |
          | GRADIENT NORM               0.000119451345 Eh/α |
           -------------------------------------------------

 * finished run on 2025/07/19 at 14:10:37.415
