   * xtb version 6.7.1 (edcfbbe) compiled by 'albert@albert-system' on 2024-07-22

   ID    Z sym.   atoms
    1    6 C      1, 3-6, 8-11, 13-21, 23-26, 28-34, 36-44
    2    8 O      2, 12, 27, 35
    3    7 N      7, 22
    4    1 H      45-78

          program call               : xtb data2507/gas/NAP-1,5-DPA/NAP-1,5-DPA_gas_S0_crest.xyz --gfn 2 --ohess vtight --parallel 40 --molden --ceasefiles --namespace data2507/gas/NAP-1,5-DPA/NAP-1,5-DPA_gas_S0_finalOpt
          :  Hamiltonian                  GFN2-xTB          :
 * total energy  :  -120.8441496 Eh     change       -0.9779654E-08 Eh
 * total energy  :  -120.8441513 Eh     change       -0.1753956E-05 Eh
 * total energy  :  -120.8441531 Eh     change       -0.1792337E-05 Eh
 * total energy  :  -120.8441559 Eh     change       -0.2778340E-05 Eh
 * total energy  :  -120.8441567 Eh     change       -0.8580607E-06 Eh
 * total energy  :  -120.8441575 Eh     change       -0.7204489E-06 Eh
 * total energy  :  -120.8441583 Eh     change       -0.8605136E-06 Eh
 * total energy  :  -120.8441590 Eh     change       -0.7199601E-06 Eh
 * total energy  :  -120.8441597 Eh     change       -0.6769380E-06 Eh
 * total energy  :  -120.8441605 Eh     change       -0.8303228E-06 Eh
 * total energy  :  -120.8441624 Eh     change       -0.3457938E-06 Eh
 * total energy  :  -120.8441627 Eh     change       -0.3051094E-06 Eh
 * total energy  :  -120.8441631 Eh     change       -0.3156400E-06 Eh
 * total energy  :  -120.8441634 Eh     change       -0.2901956E-06 Eh
 * total energy  :  -120.8441636 Eh     change       -0.2489370E-06 Eh
 * total energy  :  -120.8441638 Eh     change       -0.2290904E-06 Eh
 * total energy  :  -120.8441641 Eh     change       -0.2329921E-06 Eh
 * total energy  :  -120.8441643 Eh     change       -0.2577682E-06 Eh
 * total energy  :  -120.8441643 Eh     change       -0.4588799E-08 Eh
   *** GEOMETRY OPTIMIZATION CONVERGED AFTER 22 ITERATIONS ***

 final structure:
================
78
 xtb: 6.7.1 (edcfbbe)
C            6.90122439749168        4.77644232587195       -2.28698238520634
O            7.11718724034928        3.41198561739375       -2.02874894133807
C            6.07448109819544        2.66836466247383       -1.55351173776265
C            6.34567696120253        1.32013073302934       -1.31564591745802
C            5.36731629197836        0.47736361743246       -0.83888283062398
C            4.08513211490867        0.96041592113148       -0.57150752335027
N            3.07456602873575        0.12736087033611       -0.07800538883367
C            3.37589644003361       -0.94633815583063        0.76406393323487
C            2.65557118672969       -2.14004435311421        0.67947425180472
C            2.93790790631999       -3.18875377740695        1.52458169119752
C            3.95623044074605       -3.08810832473976        2.47303273355395
O            4.15843698215256       -4.19235719959755        3.25252343637190
C            5.17437611340401       -4.14761422576152        4.22218078459278
C            4.67904390452051       -1.90421693093668        2.55928182020993
C            4.38457140332032       -0.84619224333027        1.71848924313776
C            1.77645994829479        0.26453320913773       -0.59553684824720
C            1.59599968745123        0.40923534271037       -1.95305810302891
C            0.31401058359187        0.53202033520744       -2.49210065329354
C           -0.78914478697543        0.45764286058054       -1.68651017115731
C           -0.65128197216766        0.30872609800963       -0.29154355445134
C           -1.77802964014048        0.25492089466450        0.58047293125510
N           -3.07743105537858        0.18863901049320        0.05395224917232
C           -4.07660384262444        0.98492926204706        0.62494231056642
C           -3.78780252165452        2.30031316629348        0.99577316320381
C           -4.75774679276922        3.09821133968311        1.55721325392480
C           -6.05135130365136        2.61375830681777        1.75888219801660
O           -6.93769021997254        3.49219637836726        2.31466358473018
C           -8.25454936550633        3.05774388905390        2.54271406134900
C           -6.34397763993980        1.30583165505986        1.39204226587766
C           -5.36338700007556        0.50173770360032        0.83835374118722
C           -3.39675862425350       -0.79985885539415       -0.88177462416781
C           -2.71001443601434       -2.01014181188701       -0.89922887894002
C           -3.00044634930750       -2.98198539601022       -1.83993046424607
C           -4.00058810722639       -2.76796752812735       -2.78011259891256
O           -4.37625608208484       -3.65737728234922       -3.74713132159177
C           -3.70537451715527       -4.89021200689349       -3.81625800361332
C           -4.69558307573292       -1.55749360207028       -2.76255939334985
C           -4.39592566160062       -0.58658834313769       -1.83483024199520
C           -1.59488468107621        0.28185385242807        1.94518001483515
C           -0.31089501656088        0.32918212111392        2.49121808990049
C            0.79094259857033        0.29646693937257        1.68123217865550
C            0.65058592122578        0.26963950273272        0.27884132000276
C            3.81797909875237        2.30509621145827       -0.81156646658041
C            4.79586943034651        3.15152131136007       -1.30131001033115
H            7.85172660426280        5.16163277370793       -2.65312197339748
H            6.61794889238276        5.31905825254168       -1.37879760651970
H            6.13261962060410        4.92546874651358       -3.05280049274955
H            7.33790550592451        0.95282068303015       -1.52471696223066
H            5.58895089403621       -0.56652052253262       -0.67494939840101
H            1.87157880016825       -2.23750921446513       -0.05639952061471
H            2.38425008342820       -4.11219274263700        1.46375511828711
H            5.15968034416788       -5.12089862197357        4.71051792530068
H            6.15831931877334       -3.98667705970908        3.76874610784765
H            4.98690658972760       -3.36750729370887        4.96773993324767
H            5.47007882449620       -1.78473570722947        3.28278065009365
H            4.94402731488014        0.07348503108799        1.80714152344674
H            2.45927263387779        0.42762897525519       -2.60244339054700
H            0.19975909536631        0.66521855722419       -3.55758372104267
H           -1.77417406128986        0.53872515614602       -2.11715793376915
H           -2.79226024634696        2.68791637890488        0.83878770085001
H           -4.54075804129063        4.11474069273962        1.84453805130002
H           -8.75228765435866        2.77160746867911        1.61003113773883
H           -8.77458053821824        3.90865233365976        2.98023801214739
H           -8.28641067446336        2.21663380039695        3.24346504567585
H           -7.32931265303348        0.89242883996212        1.53923233519029
H           -5.60178878629008       -0.51711716954720        0.57120198668122
H           -1.93658880200272       -2.19388587650663       -0.16824115212833
H           -2.44201488906473       -3.90447720719116       -1.81953318893642
H           -4.15704289528806       -5.42579866518127       -4.64997062412263
H           -3.83770947687658       -5.47369920006157       -2.89886938816604
H           -2.63570364489509       -4.75694863188959       -4.00978179196409
H           -5.46578727557105       -1.39803066078394       -3.50045776925206
H           -4.93054882978398        0.35161872529877       -1.84432313487559
H           -2.45754391918146        0.26595538128116        2.59530635681637
H           -0.19506600509425        0.36966533121582        3.56402443045588
H            1.77753717172313        0.31661599162832        2.11547443966025
H            2.82881955655686        2.69126717503446       -0.61384791781615
H            4.54638375062148        4.18655218923704       -1.47390766750612

          :  Hamiltonian                  GFN2-xTB          :
         :: gradient norm              0.000042764916 Eh/a0 ::
         :: HOMO-LUMO gap              2.126655593059 eV    ::
         :: SCC energy              -122.781262548736 Eh    ::
         :: -> dispersion             -0.102130837136 Eh    ::
         :: repulsion energy           1.937098224960 Eh    ::

    * Orbital Energies and Occupations

         #    Occupation            Energy/Eh            Energy/eV
      -------------------------------------------------------------
         1        2.0000           -0.7114565             -19.3597
       ...           ...                  ...                  ...
        98        2.0000           -0.4144257             -11.2771
        99        2.0000           -0.4055536             -11.0357
       100        2.0000           -0.4044226             -11.0049
       101        2.0000           -0.4031763             -10.9710
       102        2.0000           -0.4019805             -10.9384
       103        2.0000           -0.4015202             -10.9259
       104        2.0000           -0.3996172             -10.8741
       105        2.0000           -0.3973325             -10.8120
       106        2.0000           -0.3791828             -10.3181
       107        2.0000           -0.3780828             -10.2882
       108        2.0000           -0.3742195             -10.1830
       109        2.0000           -0.3400666              -9.2537
       110        2.0000           -0.3331778              -9.0662 (HOMO)
       111                         -0.2550247              -6.9396 (LUMO)
       112                         -0.2267147              -6.1692
       113                         -0.2220640              -6.0427
       114                         -0.2204196              -5.9979
       115                         -0.2189797              -5.9587
       116                         -0.2184826              -5.9452
       117                         -0.2164995              -5.8913
       118                         -0.2160877              -5.8800
       119                         -0.2038678              -5.5475
       120                         -0.1886188              -5.1326
       121                         -0.1730279              -4.7083
       ...                                ...                  ...
       210                          0.6929670              18.8566
      -------------------------------------------------------------
                  HL-Gap            0.0781532 Eh            2.1267 eV

     #   Z          covCN         q      C6AA      α(0)
     1   6 C        3.644     0.040    20.244     6.467
     2   8 O        1.705    -0.274    18.544     5.814
     3   6 C        2.865     0.135    25.052     8.204
     4   6 C        2.920    -0.055    29.363     8.886
     5   6 C        2.921    -0.049    29.211     8.863
     6   6 C        2.923     0.054    26.787     8.488
     7   7 N        2.752    -0.074    22.683     7.074
     8   6 C        2.921     0.057    26.729     8.478
     9   6 C        2.922    -0.049    29.208     8.863
    10   6 C        2.920    -0.054    29.344     8.883
    11   6 C        2.865     0.134    25.067     8.207
    12   8 O        1.705    -0.275    18.560     5.817
    13   6 C        3.644     0.040    20.237     6.466
    14   6 C        2.917    -0.067    29.660     8.931
    15   6 C        2.923    -0.052    29.301     8.877
    16   6 C        2.924     0.057    26.718     8.477
    17   6 C        2.920    -0.050    29.245     8.868
    18   6 C        2.915    -0.033    28.821     8.803
    19   6 C        2.917    -0.043    29.070     8.841
    20   6 C        2.985    -0.001    28.053     8.688
    21   6 C        2.924     0.057    26.714     8.476
    22   7 N        2.752    -0.074    22.680     7.073
    23   6 C        2.923     0.054    26.787     8.487
    24   6 C        2.923    -0.048    29.184     8.859
    25   6 C        2.920    -0.054    29.349     8.884
    26   6 C        2.865     0.135    25.051     8.204
    27   8 O        1.705    -0.274    18.543     5.814
    28   6 C        3.644     0.040    20.243     6.467
    29   6 C        2.917    -0.067    29.661     8.931
    30   6 C        2.923    -0.051    29.274     8.873
    31   6 C        2.921     0.056    26.735     8.479
    32   6 C        2.924    -0.051    29.267     8.872
    33   6 C        2.917    -0.066    29.642     8.928
    34   6 C        2.865     0.134    25.064     8.206
    35   8 O        1.705    -0.275    18.555     5.816
    36   6 C        3.644     0.040    20.241     6.467
    37   6 C        2.920    -0.055    29.365     8.886
    38   6 C        2.922    -0.050    29.232     8.866
    39   6 C        2.920    -0.050    29.242     8.868
    40   6 C        2.915    -0.032    28.810     8.802
    41   6 C        2.917    -0.043    29.070     8.841
    42   6 C        2.985    -0.001    28.052     8.688
    43   6 C        2.925    -0.050    29.246     8.869
    44   6 C        2.917    -0.066    29.650     8.929
    45   1 H        0.925     0.060     2.202     2.320
    46   1 H        0.924     0.038     2.476     2.461
    47   1 H        0.924     0.038     2.473     2.459
    48   1 H        0.926     0.048     2.344     2.394
    49   1 H        0.926     0.039     2.464     2.454
    50   1 H        0.926     0.035     2.517     2.481
    51   1 H        0.926     0.047     2.358     2.401
    52   1 H        0.925     0.059     2.208     2.324
    53   1 H        0.924     0.038     2.479     2.462
    54   1 H        0.924     0.038     2.480     2.463
    55   1 H        0.926     0.035     2.523     2.484
    56   1 H        0.926     0.035     2.515     2.480
    57   1 H        0.926     0.031     2.578     2.511
    58   1 H        0.926     0.030     2.580     2.512
    59   1 H        0.926     0.035     2.514     2.480
    60   1 H        0.926     0.037     2.483     2.464
    61   1 H        0.926     0.048     2.341     2.392
    62   1 H        0.924     0.038     2.473     2.459
    63   1 H        0.925     0.060     2.203     2.321
    64   1 H        0.924     0.038     2.477     2.461
    65   1 H        0.926     0.035     2.517     2.481
    66   1 H        0.926     0.036     2.503     2.474
    67   1 H        0.926     0.033     2.549     2.497
    68   1 H        0.926     0.035     2.523     2.484
    69   1 H        0.925     0.059     2.206     2.323
    70   1 H        0.924     0.038     2.480     2.463
    71   1 H        0.924     0.038     2.474     2.460
    72   1 H        0.926     0.048     2.349     2.397
    73   1 H        0.926     0.038     2.475     2.460
    74   1 H        0.926     0.031     2.574     2.509
    75   1 H        0.926     0.031     2.579     2.511
    76   1 H        0.926     0.034     2.526     2.485
    77   1 H        0.926     0.034     2.524     2.484
    78   1 H        0.926     0.035     2.515     2.480

molecular dipole:
                 x           y           z       tot (Debye)
 q only:        0.028       0.016       0.265
   full:        0.051      -0.020       0.385       0.988

 projected vibrational frequencies (cm⁻¹)
eigval :       -0.00    -0.00    -0.00    -0.00     0.00     0.00
eigval :        9.20    13.31    19.27    27.71    28.78    35.14
eigval :       36.34    41.15    45.30    58.32    67.82    74.04
eigval :       85.51    88.56    95.86    99.28   108.18   135.42
eigval :      140.80   157.12   158.41   170.31   179.48   187.09
eigval :      198.37   200.36   210.28   211.47   234.83   236.86
eigval :      237.53   237.85   246.11   262.02   281.87   290.32
eigval :      321.97   330.85   333.53   340.42   358.89   366.97
eigval :      384.42   385.05   390.14   391.40   400.92   416.07
eigval :      424.22   435.37   436.11   460.55   466.99   484.42
eigval :      489.14   496.42   498.79   500.01   504.09   528.05
eigval :      528.27   544.96   554.50   560.57   570.86   602.30
eigval :      609.08   610.26   613.80   622.24   647.82   663.39
eigval :      663.88   666.05   666.95   689.58   714.27   771.23
eigval :      773.03   774.87   783.70   790.23   801.58   802.54
eigval :      805.92   807.88   813.40   821.62   840.77   857.88
eigval :      859.37   861.88   861.97   881.45   885.08   886.52
eigval :      895.55   897.86   901.05   901.36   914.46   916.48
eigval :      918.73   921.19   921.96   922.02   929.79   930.71
eigval :      985.43  1003.23  1019.03  1019.82  1027.87  1066.87
eigval :     1066.94  1067.22  1067.55  1115.10  1119.48  1123.40
eigval :     1123.42  1123.47  1123.65  1129.89  1129.96  1131.69
eigval :     1132.36  1159.20  1159.49  1159.64  1159.92  1165.71
eigval :     1186.27  1189.89  1190.34  1190.95  1194.26  1196.08
eigval :     1205.91  1207.12  1228.54  1229.89  1239.49  1251.19
eigval :     1252.17  1269.82  1269.91  1273.04  1273.14  1303.91
eigval :     1314.50  1323.54  1324.84  1328.35  1330.46  1335.93
eigval :     1350.50  1354.21  1382.68  1387.01  1397.04  1402.86
eigval :     1403.09  1403.42  1403.53  1417.14  1418.83  1425.02
eigval :     1426.97  1452.32  1472.97  1473.07  1473.13  1473.35
eigval :     1477.47  1477.85  1478.23  1482.44  1487.72  1488.13
eigval :     1488.21  1488.52  1507.31  1557.81  1565.44  1565.75
eigval :     1570.68  1571.03  1587.57  1587.87  1610.64  1610.96
eigval :     1612.19  1612.71  2924.26  2924.95  2925.01  2925.39
eigval :     2939.80  2940.27  2940.37  2940.71  3024.85  3025.21
eigval :     3025.45  3025.59  3078.07  3078.75  3084.13  3084.47
eigval :     3085.03  3085.81  3087.78  3088.46  3088.82  3088.89
eigval :     3089.80  3089.84  3103.15  3103.35  3103.78  3104.08
eigval :     3107.90  3108.03  3108.48  3108.83  3111.55  3112.16

   temp. (K)  partition function   enthalpy   heat capacity  entropy
                                   cal/mol     cal/K/mol   cal/K/mol   J/K/mol
 298.15  VIB  0.302E+19            23365.585    141.825    146.512
         ROT  0.812E+08              888.752      2.981     39.174
         INT  0.246E+27            24254.337    144.806    185.686
         TR   0.136E+29             1481.254      4.968     44.951
         TOT                       25735.5914   149.7740   230.6369   964.9849

       T/K    H(0)-H(T)+PV         H(T)/Eh          T*S/Eh         G(T)/Eh
   ------------------------------------------------------------------------
    298.15    0.410123E-01    0.653234E+00    0.109583E+00    0.543651E+00
   ------------------------------------------------------------------------

         :::::::::::::::::::::::::::::::::::::::::::::::::::::
         ::                  THERMODYNAMIC                  ::
         :::::::::::::::::::::::::::::::::::::::::::::::::::::
         :: total free energy        -120.300512953064 Eh   ::
         ::.................................................::
         :: total energy             -120.844164323778 Eh   ::
         :: zero point energy           0.612222146523 Eh   ::
         :: G(RRHO) w/o ZPVE           -0.068570775809 Eh   ::
         :: G(RRHO) contrib.            0.543651370714 Eh   ::
         :::::::::::::::::::::::::::::::::::::::::::::::::::::

           -------------------------------------------------
          | TOTAL ENERGY             -120.844164323778 Eh   |
          | TOTAL ENTHALPY           -120.190929901857 Eh   |
          | TOTAL FREE ENERGY        -120.300512953064 Eh   |
          | GRADIENT NORM               0.000042753966 Eh/α |
          | HOMO-LUMO GAP               2.126655659618 eV   |
           -------------------------------------------------

 * finished run on 2025/08/30 at 13:52:26.600
