   * xtb version 6.7.1 (edcfbbe) compiled by 'albert@albert-system' on 2024-07-22

   ID    Z sym.   atoms
    1    6 C      1, 3-6, 8-11, 13-21, 23-26, 28-34, 36-44
    2    8 O      2, 12, 27, 35
    3    7 N      7, 22
    4    1 H      45-78

          program call               : xtb data2507/gas/NAP-1,5-DPA/NAP-1,5-DPA_gas_S0_finalOpt.xtbopt.xyz --gfn 2 --spinpol --tblite --uhf 2 --ohess vtight --parallel 40 --molden --ceasefiles --namespace data2507/gas/NAP-1,5-DPA/NAP-1,5-DPA_gas_T1_preOpt
 * total energy  :  -120.7601248 Eh     change       -0.9124406E-08 Eh
 * total energy  :  -120.7660220 Eh     change       -0.5897134E-02 Eh
 * total energy  :  -120.7673872 Eh     change       -0.1365183E-02 Eh
 * total energy  :  -120.7675199 Eh     change       -0.1327065E-03 Eh
 * total energy  :  -120.7675633 Eh     change       -0.4339062E-04 Eh
 * total energy  :  -120.7675771 Eh     change       -0.1379639E-04 Eh
 * total energy  :  -120.7675866 Eh     change       -0.9582310E-05 Eh
 * total energy  :  -120.7675993 Eh     change       -0.1269167E-04 Eh
 * total energy  :  -120.7676095 Eh     change       -0.1021240E-04 Eh
 * total energy  :  -120.7676170 Eh     change       -0.7475571E-05 Eh
 * total energy  :  -120.7676371 Eh     change       -0.3328654E-05 Eh
 * total energy  :  -120.7676402 Eh     change       -0.3092921E-05 Eh
 * total energy  :  -120.7676425 Eh     change       -0.2301148E-05 Eh
 * total energy  :  -120.7676441 Eh     change       -0.1546156E-05 Eh
 * total energy  :  -120.7676451 Eh     change       -0.1060686E-05 Eh
 * total energy  :  -120.7676454 Eh     change       -0.2613223E-06 Eh
 * total energy  :  -120.7676464 Eh     change       -0.9747779E-06 Eh
 * total energy  :  -120.7676468 Eh     change       -0.4628589E-06 Eh
 * total energy  :  -120.7676469 Eh     change       -0.9059775E-07 Eh
   *** GEOMETRY OPTIMIZATION CONVERGED AFTER 25 ITERATIONS ***

 final structure:
================
78
 xtb: 6.7.1 (edcfbbe)
C            6.83270656831263        4.76249859306522       -2.37217011976480
O            7.07481501145004        3.41237640820568       -2.06372456604470
C            6.04362197225637        2.66096612063420       -1.58177988738890
C            6.34042987174063        1.32297708073261       -1.30692937024008
C            5.37734686176923        0.47365225774011       -0.81630316348952
C            4.07908223590775        0.93681963440567       -0.57367064270929
N            3.07922008537889        0.09536873660003       -0.09359651191569
C            3.37704223742140       -0.96059829352867        0.76501467243327
C            2.63720864082284       -2.14678980824427        0.70478935203779
C            2.91049906899829       -3.18437692910620        1.56318557405188
C            3.93225070185499       -3.07945730111831        2.51024423534819
O            4.12178344501978       -4.17118857707949        3.30624662684250
C            5.13329266066931       -4.12215340480495        4.28097336215406
C            4.66944832405546       -1.90161658852893        2.57724226675650
C            4.38914815224095       -0.85603279757957        1.71799210032027
C            1.77786057994135        0.26245687454182       -0.57795195517818
C            1.60362274509726        0.43097030606508       -1.97873664052326
C            0.35270393324720        0.53290042896093       -2.50585087684849
C           -0.78206992086811        0.46349762783978       -1.67185535169427
C           -0.65427715650171        0.30039956084667       -0.28996380219001
C           -1.77912402518189        0.25138311811144        0.58039312356042
N           -3.08235696726941        0.15401046422035        0.08379177260453
C           -4.06996915586972        0.96041868132785        0.64213926459929
C           -3.75510202603858        2.26057580901769        1.05590688122034
C           -4.71321523237338        3.06457370324080        1.62461664347779
C           -6.02062012952358        2.60317510401162        1.80170879001410
O           -6.89203335569328        3.48522876338851        2.36967145252075
C           -8.22374602397139        3.08040882083208        2.56647431348960
C           -6.33840685499801        1.30952940851111        1.39902604831216
C           -5.37300485813008        0.49992061015172        0.83194045494292
C           -3.39654476626989       -0.81115945186420       -0.87121773901092
C           -2.68338924975550       -2.00849503007874       -0.92097131563982
C           -2.96229066402011       -2.96459798867239       -1.87787460066114
C           -3.97080489592320       -2.74766308863107       -2.81105590550279
O           -4.33416697752874       -3.62168400738717       -3.79346053985056
C           -3.63538079799508       -4.83692517733323       -3.89985459743935
C           -4.68706393079802       -1.54869687279990       -2.76607662456951
C           -4.40331633344761       -0.59433118756313       -1.81779190161306
C           -1.60211981660175        0.28851402359001        1.99054813818372
C           -0.34983787404320        0.31179341129151        2.52334407871876
C            0.78390039234497        0.29083697372496        1.68510213536007
C            0.65363631494375        0.25805320910661        0.29420566461817
C            3.78594841377983        2.27166360683029       -0.85636000432316
C            4.75149466677834        3.12443130108999       -1.35416780435007
H            7.77935797686577        5.15548203018873       -2.73988581851287
H            6.52620873546609        5.32943926918651       -1.48683937065533
H            6.07090697414204        4.86721294369883       -3.15171796221120
H            7.34164247704210        0.97179222324494       -1.50025407482866
H            5.61648002194579       -0.56271807149597       -0.63077526958981
H            1.85217890104695       -2.24095549577912       -0.02984728122233
H            2.34735729627730       -4.10295904088989        1.51903767700591
H            5.10292693883429       -5.08610193811204        4.78667437922740
H            6.12149340580924       -3.98241378348536        3.83002618475305
H            4.95161249689767       -3.32620799241615        5.01077689828681
H            5.45953164549987       -1.77910037001452        3.30123772682145
H            4.95417802866166        0.06121959743907        1.79632699501544
H            2.48162071529854        0.43531119373902       -2.60784313236152
H            0.21284824209457        0.64223645809205       -3.57086919813691
H           -1.75911199131479        0.55680624237022       -2.11797206245086
H           -2.75014328877505        2.62796075229586        0.91381361274510
H           -4.47865906384745        4.06901143690463        1.93914247745610
H           -8.71393678507937        2.83291877692854        1.61898412442399
H           -8.72750762544499        3.93310700030151        3.01918694377622
H           -8.28857198404635        2.22226341680331        3.24364714462995
H           -7.33334479250961        0.91435949204105        1.53097711489085
H           -5.62851154213717       -0.50907026662468        0.54408535817464
H           -1.90600057909727       -2.18915769474794       -0.19403297723041
H           -2.38898451441586       -3.87806170020342       -1.87992414155400
H           -4.08076358699560       -5.36047761632653       -4.74446765588376
H           -3.74807050766604       -5.44691794659762       -2.99733945463349
H           -2.57076000041473       -4.67332072372303       -4.09657287560249
H           -5.45977639530649       -1.38636443953976       -3.50068824362588
H           -4.94854628646324        0.33783029066063       -1.81150202492270
H           -2.48007655324768        0.25682218596052        2.61878381847483
H           -0.20889433194885        0.32038367344305        3.59371360957653
H            1.76272839674110        0.31877799849364        2.13618454669065
H            2.78773270017185        2.63985994845794       -0.67291014804686
H            4.48456213192181        4.15010685759086       -1.55389822288628

 projected vibrational frequencies (cm⁻¹)
eigval :       -0.00    -0.00     0.00     0.00     0.00     0.00
eigval :        9.61    12.02    20.00    28.80    33.03    35.33
eigval :       37.30    41.07    45.53    57.75    69.88    76.08
eigval :       86.36    90.18    98.69   102.35   107.80   135.74
eigval :      141.57   158.10   160.25   171.24   180.41   185.65
eigval :      194.56   198.73   209.06   210.29   231.60   235.27
eigval :      236.06   236.58   242.78   261.36   272.45   286.86
eigval :      321.72   327.94   330.72   338.42   355.09   363.19
eigval :      379.38   384.93   387.18   392.05   392.94   405.65
eigval :      429.35   432.92   442.10   460.03   464.65   476.63
eigval :      477.17   487.77   490.91   493.56   497.74   508.16
eigval :      522.43   525.07   542.56   555.14   567.49   590.27
eigval :      600.31   608.65   609.02   612.97   620.86   661.51
eigval :      663.87   663.98   666.85   680.38   684.33   729.61
eigval :      740.06   769.24   771.20   778.24   781.76   801.43
eigval :      801.98   806.89   807.64   808.67   815.75   818.76
eigval :      833.03   855.12   855.86   859.04   859.59   871.25
eigval :      880.25   885.01   895.86   896.37   900.66   901.48
eigval :      913.76   914.70   921.64   922.05   925.45   925.61
eigval :      971.34  1000.58  1010.75  1015.10  1016.59  1065.45
eigval :     1065.58  1065.82  1066.17  1083.04  1091.54  1119.81
eigval :     1122.29  1122.35  1122.43  1122.57  1128.66  1128.73
eigval :     1130.83  1132.33  1157.72  1158.11  1158.61  1158.87
eigval :     1173.72  1177.95  1182.33  1186.52  1187.36  1187.93
eigval :     1194.07  1197.23  1229.60  1229.92  1234.98  1249.83
eigval :     1252.53  1258.75  1267.10  1268.72  1270.99  1271.17
eigval :     1297.67  1304.07  1322.83  1323.87  1330.29  1331.93
eigval :     1344.46  1345.64  1366.12  1371.09  1384.81  1401.79
eigval :     1401.87  1402.25  1402.36  1406.16  1406.45  1418.49
eigval :     1418.93  1427.59  1427.67  1449.08  1465.85  1466.31
eigval :     1471.71  1471.85  1472.08  1472.39  1473.52  1475.38
eigval :     1485.14  1485.29  1485.77  1485.92  1508.78  1546.68
eigval :     1547.11  1553.86  1554.58  1571.58  1591.99  1592.68
eigval :     1596.34  1604.79  2926.38  2926.93  2927.54  2927.84
eigval :     2941.38  2941.67  2942.49  2942.57  3025.62  3025.71
eigval :     3025.97  3026.04  3072.28  3073.29  3083.65  3084.95
eigval :     3085.24  3086.11  3087.50  3089.02  3090.15  3090.52
eigval :     3092.97  3093.26  3103.39  3103.63  3104.49  3105.28
eigval :     3105.49  3105.90  3108.10  3108.30  3109.36  3110.06

   temp. (K)  partition function   enthalpy   heat capacity  entropy
                                   cal/mol     cal/K/mol   cal/K/mol   J/K/mol
 298.15  VIB  0.281E+19            23564.113    143.592    147.412
         ROT  0.809E+08              888.752      2.981     39.168
         INT  0.227E+27            24452.866    146.572    186.580
         TR   0.136E+29             1481.254      4.968     44.951
         TOT                       25934.1196   151.5406   231.5308   968.7248

       T/K    H(0)-H(T)+PV         H(T)/Eh          T*S/Eh         G(T)/Eh
   ------------------------------------------------------------------------
    298.15    0.413287E-01    0.649915E+00    0.110008E+00    0.539907E+00
   ------------------------------------------------------------------------

         :::::::::::::::::::::::::::::::::::::::::::::::::::::
         ::                  THERMODYNAMIC                  ::
         :::::::::::::::::::::::::::::::::::::::::::::::::::::
         :: total free energy        -120.227740132840 Eh   ::
         ::.................................................::
         :: total energy             -120.767646941391 Eh   ::
         :: zero point energy           0.608585900244 Eh   ::
         :: G(RRHO) w/o ZPVE           -0.068679091693 Eh   ::
         :: G(RRHO) contrib.            0.539906808551 Eh   ::
         :::::::::::::::::::::::::::::::::::::::::::::::::::::

           -------------------------------------------------
          | TOTAL ENERGY             -120.767646941391 Eh   |
          | TOTAL ENTHALPY           -120.117732390926 Eh   |
          | TOTAL FREE ENERGY        -120.227740132840 Eh   |
          | GRADIENT NORM               0.000162728181 Eh/α |
           -------------------------------------------------

 * finished run on 2025/08/30 at 13:52:33.053
