   * xtb version 6.7.1 (edcfbbe) compiled by 'albert@albert-system' on 2024-07-22

   ID    Z sym.   atoms
    1    6 C      1, 3-6, 8-11, 13-21, 23-26, 28-34, 36-44
    2    8 O      2, 12, 27, 35
    3    7 N      7, 22
    4    1 H      45-78

          program call               : xtb data2507/gas/NAP-1,5-DPA/NAP-1,5-DPA_gas_T1_crest.xyz --gfn 2 --spinpol --tblite --uhf 2 --ohess vtight --parallel 40 --molden --ceasefiles --namespace data2507/gas/NAP-1,5-DPA/NAP-1,5-DPA_gas_T1_finalOpt
 * total energy  :  -120.7677967 Eh     change        0.5948763E-07 Eh
 * total energy  :  -120.7678171 Eh     change       -0.2047772E-04 Eh
 * total energy  :  -120.7678241 Eh     change       -0.6985883E-05 Eh
 * total energy  :  -120.7678257 Eh     change       -0.1614292E-05 Eh
 * total energy  :  -120.7678273 Eh     change       -0.1524082E-05 Eh
 * total energy  :  -120.7678288 Eh     change       -0.1562499E-05 Eh
 * total energy  :  -120.7678311 Eh     change       -0.2228674E-05 Eh
 * total energy  :  -120.7678337 Eh     change       -0.2673798E-05 Eh
 * total energy  :  -120.7678357 Eh     change       -0.1982708E-05 Eh
 * total energy  :  -120.7678370 Eh     change       -0.1276073E-05 Eh
 * total energy  :  -120.7678422 Eh     change       -0.8771999E-06 Eh
 * total energy  :  -120.7678428 Eh     change       -0.5894130E-06 Eh
 * total energy  :  -120.7678434 Eh     change       -0.6556769E-06 Eh
 * total energy  :  -120.7678440 Eh     change       -0.5952606E-06 Eh
 * total energy  :  -120.7678447 Eh     change       -0.6387495E-06 Eh
 * total energy  :  -120.7678452 Eh     change       -0.5492345E-06 Eh
 * total energy  :  -120.7678459 Eh     change       -0.6985936E-06 Eh
 * total energy  :  -120.7678465 Eh     change       -0.5892393E-06 Eh
 * total energy  :  -120.7678465 Eh     change       -0.4305889E-10 Eh
   *** GEOMETRY OPTIMIZATION CONVERGED AFTER 22 ITERATIONS ***

 final structure:
================
78
 xtb: 6.7.1 (edcfbbe)
C            6.95323010966200        4.62260935450989       -2.45646329122998
O            7.16811075800314        3.29032397953588       -2.06240184461138
C            6.11535484985020        2.58195928962437       -1.56290535058695
C            6.38782787228175        1.26001837586770       -1.19934167004494
C            5.40130905224058        0.45266866936178       -0.68532552247278
C            4.10273336511007        0.94382159806049       -0.50754202951043
N            3.08099432473829        0.14212390483821       -0.00602712886856
C            3.34967837702439       -0.86673508068953        0.91747968601732
C            2.61041320824060       -2.04896600411186        0.90292252442735
C            2.84303564398704       -3.04618156767927        1.82986636668389
C            3.83044175545616       -2.88679195871058        2.79652445865721
O            4.14736791488480       -3.80407214975344        3.75520111234286
C            3.41840689842455       -5.00515210988516        3.79944796834605
C            4.57421686025713       -1.70399728158173        2.81459128452344
C            4.33633119321025       -0.70871091646155        1.89633877834583
C            1.79405189623681        0.28877129382646       -0.53185883404839
C            1.65562030866248        0.39695429479631       -1.94264531379459
C            0.41849697706742        0.46849501336718       -2.50620339377312
C           -0.73799796650441        0.42041404596875       -1.70095834216562
C           -0.64614931241381        0.31221135394414       -0.31094460137594
C           -1.79403589964955        0.27451605475978        0.52988313369571
N           -3.08017902666363        0.12432099783580        0.00305400697714
C           -4.10641485281614        0.91618041744536        0.51109955775372
C           -3.84573926620857        2.23389243221555        0.88958596989525
C           -4.83940244129448        3.03429451313401        1.41823962561992
C           -6.12776005960136        2.53422885947723        1.58075059005607
O           -7.18416210896739        3.23239029422824        2.08686569789699
C           -6.97678782869687        4.56284060875664        2.49103557136509
C           -6.39260589265644        1.21337315056300        1.20772124327070
C           -5.40178669293064        0.41585387051355        0.68666937924499
C           -3.34350753548664       -0.87972390526362       -0.92721130014248
C           -2.59710955713487       -2.05755757791568       -0.92152022817309
C           -2.82499899133942       -3.04998111035223       -1.85476134418040
C           -3.81469635868797       -2.89017138772584       -2.81900592763620
O           -4.12769788511834       -3.80317041090762       -3.78304992329375
C           -3.39292916989882       -5.00039977456631       -3.83493862106874
C           -4.56535296443813       -1.71162921288375       -2.82844617675455
C           -4.33216360304031       -0.72102013754103       -1.90394803357645
C           -1.65616717374233        0.37321333639358        1.94142935049745
C           -0.41947293407736        0.44791206706624        2.50550646049714
C            0.73724474953235        0.41247767978951        1.69994884128785
C            0.64598531575197        0.31373237904164        0.30919684473034
C            3.83440108350640        2.26261502341501       -0.87677752206303
C            4.82376078911202        3.07291770226445       -1.39836976096862
H            7.91441106589446        4.98072502107825       -2.82208527446867
H            6.63281748988605        5.24515639225792       -1.61449729577834
H            6.21293679558222        4.69055075319945       -3.26045111493733
H            7.38942977418763        0.88686084914767       -1.34273170612760
H            5.62294936522097       -0.57261675668291       -0.42995696531776
H            1.84908120301920       -2.18476330196020        0.14966370035972
H            2.25058400284797       -3.94619492827083        1.78267885287662
H            3.82844099416773       -5.56864981576759        4.63620883804572
H            2.35277326505087       -4.82323363029154        3.97377442855612
H            3.54172057706482       -5.58566034378696        2.87898799008772
H            5.33137757014376       -1.58713150480007        3.57353256938266
H            4.90303880233431        0.20953762842422        1.93838343405365
H            2.54938257926175        0.38037565468718       -2.54887811502182
H            0.30662851930156        0.53414139214893       -3.57811162291045
H           -1.70348480377354        0.48540881779060       -2.17636464656548
H           -2.85049175052481        2.63097609972526        0.75716488144550
H           -4.59717558049349        4.04864253133988        1.69328926855903
H           -6.23572471972471        4.62898065510648        3.29446563226288
H           -7.93957456213907        4.91224427817678        2.86084137896528
H           -6.66141152169982        5.19389267630361        1.65350982131347
H           -7.39174973454193        0.83306750038631        1.34947638671776
H           -5.61749245250324       -0.60885602365390        0.42400966478711
H           -1.83398391588948       -2.19380581346994       -0.17016326203644
H           -2.22706957215722       -3.94669554009127       -1.81432712738836
H           -2.32844700756558       -4.81233941037195       -4.00977041391189
H           -3.80140150958748       -5.56130409714669       -4.67420027832479
H           -3.51208863223072       -5.58653319577395       -2.91750044631157
H           -5.32419992405769       -1.59426506367724       -3.58562623803544
H           -4.90436753275227        0.19410035918620       -1.93922630776331
H           -2.54979107699332        0.34699628877559        2.54752442421324
H           -0.30795164476981        0.50647573257587        3.57785987581060
H            1.70232834917567        0.47972439528379        2.17585873309448
H            2.83661998172151        2.65267104607252       -0.74255222954987
H            4.57566262466876        4.08776655290755       -1.66624723006883

 projected vibrational frequencies (cm⁻¹)
eigval :       -0.00    -0.00     0.00     0.00     0.00     0.00
eigval :        9.62    11.94    20.77    28.68    33.72    34.33
eigval :       36.26    39.02    46.20    62.10    76.88    80.39
eigval :       83.82    88.92    93.16    95.88   109.36   134.81
eigval :      143.31   161.71   166.09   179.52   180.85   187.88
eigval :      193.69   193.88   199.12   206.48   232.03   234.72
eigval :      235.16   236.28   250.88   261.45   275.14   279.56
eigval :      318.27   325.41   338.39   340.21   355.01   364.38
eigval :      380.37   384.92   387.08   391.97   392.31   402.98
eigval :      425.41   442.16   449.99   451.63   455.17   480.25
eigval :      481.01   488.67   492.17   494.74   497.87   506.42
eigval :      520.07   523.57   544.36   552.48   568.71   589.35
eigval :      597.09   608.26   608.55   617.96   626.53   660.39
eigval :      663.87   664.06   666.99   680.42   682.37   730.98
eigval :      741.43   768.82   770.28   780.05   782.10   801.29
eigval :      801.75   805.94   807.74   808.74   816.14   820.19
eigval :      833.30   855.45   855.48   861.07   861.17   871.42
eigval :      880.72   885.28   894.60   895.93   897.15   897.25
eigval :      914.31   914.43   923.98   924.23   925.67   925.70
eigval :      971.17  1000.45  1010.23  1015.88  1017.21  1065.39
eigval :     1065.55  1065.91  1066.10  1082.89  1091.90  1119.27
eigval :     1122.19  1122.20  1122.53  1122.56  1128.49  1128.70
eigval :     1131.87  1133.74  1157.97  1158.00  1159.35  1159.56
eigval :     1174.25  1177.90  1184.55  1186.05  1186.57  1187.62
eigval :     1193.38  1196.33  1228.77  1229.20  1235.87  1247.87
eigval :     1253.33  1259.09  1266.39  1268.72  1270.70  1270.81
eigval :     1298.62  1304.14  1319.88  1320.12  1337.96  1339.11
eigval :     1339.58  1340.00  1365.86  1370.43  1384.80  1400.82
eigval :     1401.08  1401.64  1401.70  1405.59  1406.40  1418.11
eigval :     1418.72  1427.28  1427.40  1449.21  1465.81  1465.93
eigval :     1470.99  1471.04  1471.36  1471.43  1474.00  1475.76
eigval :     1484.34  1484.38  1485.35  1485.51  1508.74  1545.96
eigval :     1546.10  1554.44  1554.61  1571.11  1591.75  1592.47
eigval :     1595.46  1604.31  2926.77  2926.78  2927.65  2927.66
eigval :     2941.94  2942.12  2942.13  2942.28  3025.23  3025.28
eigval :     3026.27  3026.31  3072.56  3072.87  3084.83  3085.69
eigval :     3087.04  3087.14  3089.29  3089.32  3089.61  3089.66
eigval :     3091.18  3091.25  3104.18  3104.74  3104.82  3105.17
eigval :     3105.28  3105.81  3109.02  3109.06  3109.34  3109.58

   temp. (K)  partition function   enthalpy   heat capacity  entropy
                                   cal/mol     cal/K/mol   cal/K/mol   J/K/mol
 298.15  VIB  0.264E+19            23554.787    143.629    147.300
         ROT  0.401E+08              888.752      2.981     37.770
         INT  0.106E+27            24443.539    146.610    185.070
         TR   0.136E+29             1481.254      4.968     44.951
         TOT                       25924.7933   151.5780   230.0213   962.4089

       T/K    H(0)-H(T)+PV         H(T)/Eh          T*S/Eh         G(T)/Eh
   ------------------------------------------------------------------------
    298.15    0.413138E-01    0.649907E+00    0.109291E+00    0.540617E+00
   ------------------------------------------------------------------------

         :::::::::::::::::::::::::::::::::::::::::::::::::::::
         ::                  THERMODYNAMIC                  ::
         :::::::::::::::::::::::::::::::::::::::::::::::::::::
         :: total free energy        -120.227229786481 Eh   ::
         ::.................................................::
         :: total energy             -120.767846520871 Eh   ::
         :: zero point energy           0.608593468739 Eh   ::
         :: G(RRHO) w/o ZPVE           -0.067976734348 Eh   ::
         :: G(RRHO) contrib.            0.540616734391 Eh   ::
         :::::::::::::::::::::::::::::::::::::::::::::::::::::

           -------------------------------------------------
          | TOTAL ENERGY             -120.767846520871 Eh   |
          | TOTAL ENTHALPY           -120.117939264270 Eh   |
          | TOTAL FREE ENERGY        -120.227229786481 Eh   |
          | GRADIENT NORM               0.000050226887 Eh/α |
           -------------------------------------------------

 * finished run on 2025/08/30 at 14:06:44.898
