   * xtb version 6.7.1 (edcfbbe) compiled by 'albert@albert-system' on 2024-07-22

   ID    Z sym.   atoms
    1    6 C      1, 3-6, 8-11, 13-21, 23-26, 28-34, 36-44
    2    8 O      2, 12, 27, 35
    3    7 N      7, 22
    4    1 H      45-78

          program call               : xtb data2507/gas/NAP-1,5-DPA/NAP-1,5-DPA.xyz --gfn 2 --ohess vtight --parallel 40 --molden --ceasefiles --namespace data2507/gas/NAP-1,5-DPA/NAP-1,5-DPA_gas_S0_preOpt
          :  Hamiltonian                  GFN2-xTB          :
 * total energy  :  -120.8175761 Eh     change       -0.4606889E-08 Eh
 * total energy  :  -120.8329605 Eh     change       -0.1538435E-01 Eh
 * total energy  :  -120.8389995 Eh     change       -0.6039004E-02 Eh
 * total energy  :  -120.8409021 Eh     change       -0.1902559E-02 Eh
 * total energy  :  -120.8418438 Eh     change       -0.9417673E-03 Eh
 * total energy  :  -120.8420777 Eh     change       -0.2338370E-03 Eh
 * total energy  :  -120.8421906 Eh     change       -0.1129816E-03 Eh
 * total energy  :  -120.8422877 Eh     change       -0.9701340E-04 Eh
 * total energy  :  -120.8423820 Eh     change       -0.9434994E-04 Eh
 * total energy  :  -120.8424632 Eh     change       -0.8115288E-04 Eh
 * total energy  :  -120.8440338 Eh     change       -0.8531156E-06 Eh
 * total energy  :  -120.8440346 Eh     change       -0.8335851E-06 Eh
 * total energy  :  -120.8440354 Eh     change       -0.7480722E-06 Eh
 * total energy  :  -120.8440361 Eh     change       -0.7463677E-06 Eh
 * total energy  :  -120.8440368 Eh     change       -0.6784127E-06 Eh
 * total energy  :  -120.8440375 Eh     change       -0.6900809E-06 Eh
 * total energy  :  -120.8440381 Eh     change       -0.6449820E-06 Eh
 * total energy  :  -120.8440388 Eh     change       -0.6716978E-06 Eh
 * total energy  :  -120.8440388 Eh     change       -0.6295863E-08 Eh
   *** GEOMETRY OPTIMIZATION CONVERGED AFTER 221 ITERATIONS ***

 final structure:
================
78
 xtb: 6.7.1 (edcfbbe)
C            6.58310647621065        4.91209369881861        2.61029536171532
O            6.87442721003897        3.56263482805355        2.34759157487766
C            5.88743416039547        2.77528083430567        1.82622152490073
C            4.59460159505745        3.19739300580494        1.53954206711379
C            3.67832945606675        2.31165610367072        1.00258273990570
C            4.02231010261506        0.98721292192502        0.74809057872883
N            3.07291624956348        0.11548808905537        0.20355316221533
C            3.45256816349723       -0.92693851126572       -0.64526041953483
C            4.49899573955635       -0.76515451646449       -1.55705521595306
C            4.86059992200035       -1.79429918280729       -2.39556207259994
C            4.18313676602623       -3.01431976463604       -2.36363517014886
O            4.62424762865903       -3.96487515102215       -3.24089075377240
C            3.98412570962759       -5.21559699961731       -3.24657845340718
C            3.13371967586794       -3.17634044839593       -1.46793396912019
C            2.78014731637412       -2.14515454987989       -0.61617857293689
C            1.74896290492265        0.19115404863533        0.66708213902972
C            1.50572617593033        0.27466004177489        2.01983685011149
C            0.19859747173637        0.34182434044074        2.50616145053970
C           -0.86605402207705        0.28459571701576        1.64899558168697
C           -0.66320204274413        0.20557324556384        0.25616833362435
C           -1.74895856847266        0.19116709283936       -0.66707929868529
N           -3.07291266249667        0.11551642910471       -0.20354994925727
C           -3.45257592279025       -0.92690300070320        0.64526765007853
C           -2.78016820052852       -2.14512643537427        0.61619112833609
C           -3.13375512409982       -3.17630673919727        1.46794722987443
C           -4.18317408146315       -3.01427286142979        2.36364380919686
O           -4.62429722802256       -3.96482068530909        3.24090127471917
C           -3.98419177170568       -5.21555090640784        3.24659118361127
C           -4.86062131059233       -1.79424346885830        2.39556857353291
C           -4.49900302933323       -0.76510466090151        1.55706053924726
C           -4.02229735573199        0.98724837450752       -0.74809189268694
C           -5.31767297933120        0.56453218873343       -1.05163219994140
C           -6.23490263628338        1.44701708822973       -1.57575231714910
C           -5.88740114778359        2.77533043193662       -1.82623454586525
O           -6.87438567788215        3.56269269376745       -2.34760847604074
C           -6.58305101993776        4.91214773776943       -2.61031642706332
C           -4.59456476578988        3.19743069817943       -1.53955491100739
C           -3.67830280380648        2.31168693362716       -1.00258953039479
C           -1.50572110566016        0.27466297750978       -2.01983464638889
C           -0.19859169630622        0.34180748127184       -2.50615997993506
C            0.86605940974245        0.28457525538415       -1.64899391346701
C            0.66320675605477        0.20556489072968       -0.25616589975323
C            5.31768169278336        0.56448464452945        1.05163107712455
C            6.23492110157278        1.44696240022343        1.57574608750795
H            7.50146479556736        5.34017928894320        3.00931395032951
H            5.78465934308413        5.01558021868609        3.35281338886085
H            6.30154391853541        5.44892243647312        1.69812325885866
H            4.28663758531756        4.21506074085476        1.72086413898008
H            2.67797000725523        2.65113777123299        0.77722604506116
H            5.02280089393589        0.17784950750297       -1.60493520451304
H            5.66860445636728       -1.67511528431305       -3.09979222173998
H            2.92454106604244       -5.12556524446675       -3.50885634987480
H            4.49335327756275       -5.80459568463254       -4.00795869605979
H            4.07632267065269       -5.72035477352730       -2.27887890182928
H            2.58523733462513       -4.10347957590939       -1.41317867585362
H            1.96875621115320       -2.28832899440781        0.08209104958967
H            2.33970339280861        0.28884500015637        2.70656155829513
H            0.03463792431598        0.42177891543652        3.57048182585434
H           -1.87115307862450        0.32551983709429        2.03714819937690
H           -1.96877693706008       -2.28831174773756       -0.08207600130763
H           -2.58528035884979       -4.10345066318447        1.41319860498466
H           -4.07639215093305       -5.72030694183856        2.27889110559574
H           -4.49343040524270       -5.80454286682358        4.00796921717673
H           -2.92460676886697       -5.12553357221357        3.50887301786579
H           -5.66862789123408       -1.67504970514987        3.09979454296761
H           -5.02280157474281        0.17790330639373        1.60493301787200
H           -5.59864927470651       -0.46312280486178       -0.87686629341514
H           -7.23733920662922        1.12680850040140       -1.81160011532345
H           -6.30148413783599        5.44897666203196       -1.69814579658652
H           -7.50140449784364        5.34024151228581       -3.00933738413242
H           -5.78460199723259        5.01562392271254       -3.35283383864747
H           -4.28659092297468        4.21509530883553       -1.72087789541016
H           -2.67794065964518        2.65115971414448       -0.77723132557648
H           -2.33969835633872        0.28885355787139       -2.70655906490406
H           -0.03463173037704        0.42176725926734       -3.57047986343622
H            1.87115850325769        0.32549871260233       -2.03714618458253
H            5.59864829687334       -0.46317310850566        0.87686586800531
H            7.23735574031198        1.12674548346739        1.81159072095573

          :  Hamiltonian                  GFN2-xTB          :
         :: gradient norm              0.000063974070 Eh/a0 ::
         :: HOMO-LUMO gap              2.099459277230 eV    ::
         :: SCC energy              -122.781164664253 Eh    ::
         :: -> dispersion             -0.101917053054 Eh    ::
         :: repulsion energy           1.937125875750 Eh    ::

    * Orbital Energies and Occupations

         #    Occupation            Energy/Eh            Energy/eV
      -------------------------------------------------------------
         1        2.0000           -0.7114685             -19.3600
       ...           ...                  ...                  ...
        98        2.0000           -0.4151287             -11.2962
        99        2.0000           -0.4060373             -11.0488
       100        2.0000           -0.4046219             -11.0103
       101        2.0000           -0.4044625             -11.0060
       102        2.0000           -0.4022565             -10.9460
       103        2.0000           -0.4014213             -10.9232
       104        2.0000           -0.4007752             -10.9056
       105        2.0000           -0.3994433             -10.8694
       106        2.0000           -0.3799958             -10.3402
       107        2.0000           -0.3784827             -10.2990
       108        2.0000           -0.3752625             -10.2114
       109        2.0000           -0.3406293              -9.2690
       110        2.0000           -0.3341264              -9.0920 (HOMO)
       111                         -0.2569727              -6.9926 (LUMO)
       112                         -0.2281521              -6.2083
       113                         -0.2224641              -6.0536
       114                         -0.2213082              -6.0221
       115                         -0.2188720              -5.9558
       116                         -0.2187765              -5.9532
       117                         -0.2171441              -5.9088
       118                         -0.2168852              -5.9017
       119                         -0.2045305              -5.5656
       120                         -0.1889857              -5.1426
       121                         -0.1746903              -4.7536
       ...                                ...                  ...
       210                          0.6920058              18.8304
      -------------------------------------------------------------
                  HL-Gap            0.0771537 Eh            2.0995 eV

     #   Z          covCN         q      C6AA      α(0)
     1   6 C        3.644     0.040    20.244     6.467
     2   8 O        1.705    -0.274    18.539     5.813
     3   6 C        2.865     0.135    25.050     8.204
     4   6 C        2.917    -0.066    29.651     8.929
     5   6 C        2.925    -0.050    29.253     8.870
     6   6 C        2.923     0.054    26.788     8.488
     7   7 N        2.752    -0.075    22.693     7.075
     8   6 C        2.920     0.056    26.734     8.479
     9   6 C        2.922    -0.050    29.239     8.867
    10   6 C        2.920    -0.055    29.357     8.885
    11   6 C        2.865     0.134    25.068     8.207
    12   8 O        1.705    -0.275    18.554     5.816
    13   6 C        3.644     0.040    20.236     6.466
    14   6 C        2.917    -0.066    29.645     8.928
    15   6 C        2.924    -0.052    29.282     8.874
    16   6 C        2.924     0.057    26.712     8.476
    17   6 C        2.920    -0.050    29.232     8.866
    18   6 C        2.915    -0.033    28.817     8.803
    19   6 C        2.917    -0.043    29.065     8.841
    20   6 C        2.985    -0.001    28.050     8.688
    21   6 C        2.924     0.057    26.712     8.476
    22   7 N        2.752    -0.075    22.693     7.075
    23   6 C        2.920     0.056    26.734     8.479
    24   6 C        2.924    -0.052    29.282     8.874
    25   6 C        2.917    -0.066    29.645     8.928
    26   6 C        2.865     0.134    25.068     8.207
    27   8 O        1.705    -0.275    18.554     5.816
    28   6 C        3.644     0.040    20.236     6.466
    29   6 C        2.920    -0.055    29.357     8.885
    30   6 C        2.922    -0.050    29.239     8.867
    31   6 C        2.923     0.054    26.788     8.488
    32   6 C        2.921    -0.049    29.211     8.863
    33   6 C        2.920    -0.055    29.357     8.885
    34   6 C        2.865     0.135    25.050     8.204
    35   8 O        1.705    -0.274    18.539     5.813
    36   6 C        3.644     0.040    20.244     6.467
    37   6 C        2.917    -0.066    29.651     8.929
    38   6 C        2.925    -0.050    29.253     8.870
    39   6 C        2.920    -0.050    29.232     8.866
    40   6 C        2.915    -0.033    28.817     8.803
    41   6 C        2.917    -0.043    29.065     8.841
    42   6 C        2.985    -0.001    28.050     8.688
    43   6 C        2.921    -0.049    29.211     8.863
    44   6 C        2.920    -0.055    29.357     8.885
    45   1 H        0.925     0.060     2.201     2.320
    46   1 H        0.924     0.038     2.477     2.461
    47   1 H        0.924     0.038     2.476     2.461
    48   1 H        0.926     0.035     2.520     2.482
    49   1 H        0.926     0.033     2.537     2.491
    50   1 H        0.926     0.039     2.467     2.456
    51   1 H        0.926     0.048     2.343     2.394
    52   1 H        0.924     0.038     2.482     2.464
    53   1 H        0.925     0.059     2.206     2.323
    54   1 H        0.924     0.037     2.484     2.465
    55   1 H        0.926     0.033     2.538     2.491
    56   1 H        0.926     0.031     2.567     2.506
    57   1 H        0.926     0.031     2.570     2.507
    58   1 H        0.926     0.031     2.574     2.509
    59   1 H        0.926     0.035     2.509     2.477
    60   1 H        0.926     0.031     2.567     2.506
    61   1 H        0.926     0.033     2.538     2.491
    62   1 H        0.924     0.037     2.484     2.465
    63   1 H        0.925     0.059     2.206     2.323
    64   1 H        0.924     0.038     2.482     2.464
    65   1 H        0.926     0.048     2.343     2.394
    66   1 H        0.926     0.039     2.467     2.456
    67   1 H        0.926     0.040     2.454     2.450
    68   1 H        0.926     0.049     2.337     2.390
    69   1 H        0.924     0.038     2.476     2.461
    70   1 H        0.925     0.060     2.201     2.320
    71   1 H        0.924     0.038     2.477     2.461
    72   1 H        0.926     0.035     2.520     2.482
    73   1 H        0.926     0.033     2.537     2.491
    74   1 H        0.926     0.031     2.570     2.507
    75   1 H        0.926     0.031     2.574     2.509
    76   1 H        0.926     0.035     2.509     2.477
    77   1 H        0.926     0.040     2.454     2.450
    78   1 H        0.926     0.049     2.337     2.390

molecular dipole:
                 x           y           z       tot (Debye)
 q only:        0.000       0.173      -0.000
   full:        0.000       0.200      -0.000       0.508

 projected vibrational frequencies (cm⁻¹)
eigval :       -0.00    -0.00     0.00     0.00     0.00     0.00
eigval :        8.67    13.13    20.28    27.39    27.54    34.25
eigval :       35.84    38.28    44.52    60.40    75.13    78.89
eigval :       81.97    86.56    89.30    93.07   108.67   134.06
eigval :      142.06   159.38   162.72   175.98   182.11   186.82
eigval :      193.75   193.96   202.23   211.75   234.03   235.68
eigval :      237.50   238.52   251.54   264.83   281.08   287.72
eigval :      320.58   327.50   338.28   339.53   358.37   368.63
eigval :      382.93   384.44   390.54   391.09   394.67   419.82
eigval :      426.83   437.55   449.37   451.15   457.82   484.20
eigval :      489.46   495.46   498.66   501.56   504.74   524.44
eigval :      527.18   546.33   554.09   559.19   571.35   598.99
eigval :      609.39   609.47   619.12   627.31   648.44   662.17
eigval :      663.49   665.72   666.75   686.47   714.53   771.35
eigval :      773.57   773.76   783.58   791.41   800.77   801.69
eigval :      805.17   807.22   813.95   821.62   840.61   858.76
eigval :      858.88   863.67   863.74   881.39   886.06   887.07
eigval :      893.69   894.75   897.85   897.89   915.89   915.96
eigval :      919.37   921.79   924.55   924.56   930.07   931.00
eigval :      985.91  1003.01  1019.56  1020.41  1026.59  1066.89
eigval :     1066.95  1067.43  1067.58  1113.72  1118.49  1123.49
eigval :     1123.50  1123.89  1123.92  1129.46  1129.52  1132.86
eigval :     1133.21  1159.19  1159.21  1160.15  1160.18  1165.50
eigval :     1186.11  1189.74  1190.48  1191.33  1194.45  1195.72
eigval :     1206.16  1207.00  1228.18  1229.72  1239.34  1251.58
eigval :     1252.81  1269.47  1269.61  1273.14  1273.33  1304.97
eigval :     1317.60  1319.05  1321.50  1326.77  1337.26  1338.16
eigval :     1350.05  1354.21  1382.42  1386.83  1397.13  1402.72
eigval :     1402.89  1403.37  1403.45  1416.97  1418.53  1425.11
eigval :     1427.06  1452.08  1473.05  1473.05  1473.26  1473.27
eigval :     1477.53  1478.00  1478.47  1483.43  1487.69  1488.24
eigval :     1488.44  1488.78  1506.98  1557.71  1564.73  1565.11
eigval :     1571.41  1571.54  1587.41  1587.61  1610.61  1610.77
eigval :     1612.57  1613.01  2923.80  2923.84  2924.91  2924.93
eigval :     2939.25  2939.35  2940.27  2940.35  3025.22  3025.26
eigval :     3025.71  3025.75  3078.10  3078.24  3083.56  3083.76
eigval :     3084.29  3084.35  3088.28  3088.35  3088.52  3089.19
eigval :     3090.91  3090.94  3102.85  3103.03  3103.40  3103.49
eigval :     3108.55  3108.55  3108.78  3108.93  3110.99  3111.24

   temp. (K)  partition function   enthalpy   heat capacity  entropy
                                   cal/mol     cal/K/mol   cal/K/mol   J/K/mol
 298.15  VIB  0.360E+19            23381.000    141.801    146.675
         ROT  0.405E+08              888.752      2.981     37.789
         INT  0.146E+27            24269.753    144.782    184.465
         TR   0.136E+29             1481.254      4.968     44.951
         TOT                       25751.0064   149.7497   229.4157   959.8754

       T/K    H(0)-H(T)+PV         H(T)/Eh          T*S/Eh         G(T)/Eh
   ------------------------------------------------------------------------
    298.15    0.410368E-01    0.653216E+00    0.109003E+00    0.544213E+00
   ------------------------------------------------------------------------

         :::::::::::::::::::::::::::::::::::::::::::::::::::::
         ::                  THERMODYNAMIC                  ::
         :::::::::::::::::::::::::::::::::::::::::::::::::::::
         :: total free energy        -120.299826052608 Eh   ::
         ::.................................................::
         :: total energy             -120.844038788502 Eh   ::
         :: zero point energy           0.612178712236 Eh   ::
         :: G(RRHO) w/o ZPVE           -0.067965976342 Eh   ::
         :: G(RRHO) contrib.            0.544212735894 Eh   ::
         :::::::::::::::::::::::::::::::::::::::::::::::::::::

           -------------------------------------------------
          | TOTAL ENERGY             -120.844038788502 Eh   |
          | TOTAL ENTHALPY           -120.190823235411 Eh   |
          | TOTAL FREE ENERGY        -120.299826052608 Eh   |
          | GRADIENT NORM               0.000063974933 Eh/α |
          | HOMO-LUMO GAP               2.099459349246 eV   |
           -------------------------------------------------

 * finished run on 2025/08/30 at 13:39:16.797
