   * xtb version 6.7.1 (edcfbbe) compiled by 'albert@albert-system' on 2024-07-22

   ID    Z sym.   atoms
    1    6 C      1-20, 22-30, 32-54
    2    7 N      21, 31
    3   16 S      55
    4    8 O      56, 57
    5    1 H      58-111

          program call               : xtb data2507/gas/1CzSO/1CzSO.xyz --gfn 2 --ohess vtight --parallel 40 --molden --ceasefiles --namespace data2507/gas/1CzSO/1CzSO_gas_S0_preOpt
          :  Hamiltonian                  GFN2-xTB          :
 * total energy  :  -156.2241774 Eh     change       -0.2516828E-08 Eh
 * total energy  :  -156.2422252 Eh     change       -0.1804773E-01 Eh
 * total energy  :  -156.2483405 Eh     change       -0.6115347E-02 Eh
 * total energy  :  -156.2501581 Eh     change       -0.1817635E-02 Eh
 * total energy  :  -156.2511086 Eh     change       -0.9504059E-03 Eh
 * total energy  :  -156.2514076 Eh     change       -0.2990366E-03 Eh
 * total energy  :  -156.2515490 Eh     change       -0.1414193E-03 Eh
 * total energy  :  -156.2516445 Eh     change       -0.9549521E-04 Eh
 * total energy  :  -156.2517193 Eh     change       -0.7482614E-04 Eh
 * total energy  :  -156.2517801 Eh     change       -0.6078513E-04 Eh
 * total energy  :  -156.2521284 Eh     change       -0.1925042E-06 Eh
 * total energy  :  -156.2521286 Eh     change       -0.2129432E-06 Eh
 * total energy  :  -156.2521289 Eh     change       -0.2311394E-06 Eh
 * total energy  :  -156.2521292 Eh     change       -0.3091396E-06 Eh
 * total energy  :  -156.2521296 Eh     change       -0.3925190E-06 Eh
 * total energy  :  -156.2521300 Eh     change       -0.4279156E-06 Eh
 * total energy  :  -156.2521304 Eh     change       -0.4248316E-06 Eh
 * total energy  :  -156.2521308 Eh     change       -0.4053815E-06 Eh
 * total energy  :  -156.2521309 Eh     change       -0.8897049E-07 Eh
   *** GEOMETRY OPTIMIZATION CONVERGED AFTER 94 ITERATIONS ***

 final structure:
================
111
 xtb: 6.7.1 (edcfbbe)
C           -3.36612207127254        2.99346702879394       -4.97969864064396
C           -3.43208041389279        3.29669391796854       -3.47619458377086
C           -2.17570410776657        4.06614845049149       -3.04433066639259
C           -4.64719981179745        4.19388886417043       -3.22529846802956
C           -3.50401810008938        1.98688835591215       -2.70514843339947
C           -2.45494555011458        1.06765667103262       -2.83310697658227
C           -2.43016419109838       -0.14171823838038       -2.16743557841836
C           -3.49077842858941       -0.44553262258733       -1.32892061893808
C           -4.57359485924361        0.44819889744526       -1.20708603895303
C           -4.57383566247602        1.65742982032986       -1.88892625387244
C           -5.52513610341948       -0.17721095617666       -0.32857782112939
C           -6.75320166617392        0.22182862300698        0.17320459031985
C           -7.44962500368319       -0.60415903042811        1.04595218820760
C           -8.80219738156097       -0.14832438007428        1.57481263269736
C           -8.61978776574486        1.16385481994006        2.35080652062121
C           -9.75190058000372        0.07649659755715        0.38951585068314
C           -9.45026962408509       -1.16923203275882        2.51383608288814
C           -6.87072139309964       -1.82101042450993        1.41484010106203
C           -5.64590940160049       -2.24341515730933        0.92914690862832
C           -4.97848832886593       -1.42635259450174        0.03347204067295
N           -3.74272466820457       -1.58138433648125       -0.57544666838905
C           -2.90882246018276       -2.69068407341459       -0.46486470297522
C           -3.43809975981523       -3.97798751790005       -0.58541886083715
C           -2.61642260798219       -5.08700457392477       -0.46513626388950
C           -1.27231595304398       -4.89484717539410       -0.24631745658060
C           -0.71801923021847       -3.62128992260385       -0.13572570785806
C           -1.54327545141968       -2.51173422455122       -0.23423318539705
C            0.72671092485376       -3.62007773284284        0.09585802119971
C            1.54699815857448       -2.50872491909783        0.21405249883091
C            2.91386005022141       -2.68578294138835        0.43791048558532
N            3.74344486472557       -1.57512675182593        0.56677396365588
C            3.49103656462371       -0.45548231580719        1.34362220929610
C            2.43207649669946       -0.17063442547368        2.19091584648910
C            2.45637651458448        1.02526236362057        2.88028399028086
C            3.50358847001277        1.94890260990609        2.76774224353756
C            3.43127342925826        3.24273701830959        3.56531322592085
C            2.17340766181421        4.01931523559820        3.15089131135599
C            4.64508554371923        4.14619120597248        3.33111795939307
C            3.36773825501533        2.90907290485636        5.06246907062931
C            4.57152102553130        1.63836161509300        1.94197509307735
C            4.57182459545264        0.44278367148346        1.23593353506907
C            5.52132949697492       -0.16265665509584        0.34191260358528
C            6.74938760609157        0.25507980802030       -0.15361032625402
C            7.44123451312467       -0.54998122072764       -1.04349672544353
C            8.79546123001778       -0.16309125681907       -1.61936042927817
C            9.82524716344311       -1.24014310922052       -1.24994755566193
C            9.30043856452425        1.17921378468981       -1.08295639988838
C            8.68122222298921       -0.05386952938003       -3.14640817729848
C            6.86076209588598       -1.76301275374553       -1.43651595006056
C            5.64226799823634       -2.20226699517001       -0.95918919955954
C            4.97641889420752       -1.40402814088847       -0.04277483362686
C            3.44939903615141       -3.97262216672044        0.53289918940037
C            2.63251624151930       -5.08298793263859        0.39380506263648
C            1.28709726367867       -4.89289993804287        0.18138128885663
S            0.01012442338419       -6.13238699279875       -0.04330740478800
O            0.22016709310365       -6.86906990428099       -1.26005213763062
O           -0.19648709580743       -6.89082279189715        1.16058734558122
H           -4.24201896268523        2.42581698623579       -5.28697602850287
H           -2.48118219860521        2.41530214846161       -5.23022197719537
H           -3.33862667243327        3.92079146269037       -5.54808554426978
H           -2.11821842199872        5.01575624832532       -3.57220218584226
H           -2.20706485386470        4.26668379134952       -1.97530024325510
H           -1.27133509948974        3.50363574320557       -3.25852078076909
H           -4.53882641082241        5.11699165778368       -3.79121683797551
H           -5.56533719123163        3.70899707084604       -3.54869933022539
H           -4.73089183114865        4.45364691982284       -2.17249898644333
H           -1.62440565722680        1.29939788722119       -3.48213767343679
H           -1.61237120065870       -0.83040076973295       -2.31820899928707
H           -5.41839667473118        2.31528593060162       -1.77089794046412
H           -7.15005609173904        1.18089978944825       -0.12143260162135
H           -9.57444407458840        1.49887574518188        2.75093435799727
H           -7.93018005093357        1.01720230392940        3.17955936285767
H           -8.22352788400513        1.94963146489971        1.71381179060253
H           -9.86969961185993       -0.84480432321330       -0.17722981270025
H          -10.73069269745829        0.38933159900586        0.74705321057964
H           -9.37465124103941        0.84267291310978       -0.28188702970680
H           -9.61929249020521       -2.11631711968930        2.00667180799562
H           -8.83478091972814       -1.33927618270888        3.39414783880020
H          -10.41450884718134       -0.79127113194676        2.84796328885829
H           -7.37939619093211       -2.47041408834771        2.10758175231670
H           -5.22555133700849       -3.18130361507288        1.25952757337367
H           -4.48986257803984       -4.09989639357654       -0.79168052893694
H           -3.01170176592577       -6.08647912049763       -0.55285855314062
H           -1.15154412338686       -1.51401234312391       -0.11371061384982
H            1.15047221648340       -1.51067087553904        0.11361476831697
H            1.61603411737429       -0.86385413365549        2.33001828082808
H            1.62714005869385        1.24263281565637        3.53591692475543
H            2.11523591410906        4.95769493276608        3.69840753991211
H            1.27001747504223        3.45123203543669        3.35428613591095
H            2.20335266125104        4.24203266125341        2.08622139948116
H            5.56428092001305        3.65541898890235        3.64235229933686
H            4.72659573438986        4.42822070490486        2.28391658529875
H            4.53693896790281        5.05701806189330        3.91663812348058
H            3.34025306945766        3.82466523445384        5.64957014569456
H            2.48368782687507        2.32516768735706        5.30259616093346
H            4.24459604785199        2.33612764674923        5.35690073954058
H            5.41429664277808        2.30027038367601        1.83441758048348
H            7.13645485884295        1.20829311156159        0.16516500881627
H            9.89445064326424       -1.33816020923411       -0.16849533893767
H           10.80581134655413       -0.96884898787833       -1.63545425701318
H            9.55449713179791       -2.20779926819469       -1.66275347654419
H            8.62382665954048        1.98754685828817       -1.35037837719327
H            9.41401647358182        1.15032854812173       -0.00172052943958
H           10.27361616935315        1.39966167186575       -1.51704298522364
H            9.63686481571901        0.24316267445153       -3.57329904390269
H            7.93602196062029        0.69216975180832       -3.41479433715724
H            8.38996812473705       -1.00091108473690       -3.59189363035060
H            7.37637166385449       -2.39057410409722       -2.14706053028204
H            5.22265532862830       -3.13393265167724       -1.30756077152123
H            4.50231374491326       -4.09345161765895        0.73398461102042
H            3.03262677806069       -6.08210293999695        0.46141686328377

          :  Hamiltonian                  GFN2-xTB          :
         :: gradient norm              0.000049142310 Eh/a0 ::
         :: HOMO-LUMO gap              2.132151199570 eV    ::
         :: SCC energy              -158.863183159671 Eh    ::
         :: -> dispersion             -0.143356475807 Eh    ::
         :: repulsion energy           2.611052247234 Eh    ::

    * Orbital Energies and Occupations

         #    Occupation            Energy/Eh            Energy/eV
      -------------------------------------------------------------
         1        2.0000           -0.7687585             -20.9190
       ...           ...                  ...                  ...
       133        2.0000           -0.4202612             -11.4359
       134        2.0000           -0.4134602             -11.2508
       135        2.0000           -0.4132780             -11.2459
       136        2.0000           -0.4124102             -11.2223
       137        2.0000           -0.4113528             -11.1935
       138        2.0000           -0.4104655             -11.1693
       139        2.0000           -0.4050834             -11.0229
       140        2.0000           -0.4009472             -10.9103
       141        2.0000           -0.4002696             -10.8919
       142        2.0000           -0.3791008             -10.3159
       143        2.0000           -0.3782643             -10.2931
       144        2.0000           -0.3649201              -9.9300
       145        2.0000           -0.3641333              -9.9086 (HOMO)
       146                         -0.2857783              -7.7764 (LUMO)
       147                         -0.2620014              -7.1294
       148                         -0.2554561              -6.9513
       149                         -0.2446632              -6.6576
       150                         -0.2438592              -6.6357
       151                         -0.2230223              -6.0687
       152                         -0.2225224              -6.0551
       153                         -0.2223141              -6.0495
       154                         -0.1976792              -5.3791
       155                         -0.1914117              -5.2086
       156                         -0.1881901              -5.1209
       ...                                ...                  ...
       287                          1.2247505              33.3272
      -------------------------------------------------------------
                  HL-Gap            0.0783550 Eh            2.1321 eV

     #   Z          covCN         q      C6AA      α(0)
     1   6 C        3.762    -0.106    22.569     6.772
     2   6 C        3.903     0.026    20.086     6.370
     3   6 C        3.762    -0.106    22.568     6.772
     4   6 C        3.761    -0.108    22.602     6.777
     5   6 C        2.973     0.000    28.022     8.683
     6   6 C        2.931    -0.039    28.958     8.825
     7   6 C        2.909    -0.054    29.343     8.882
     8   6 C        3.073     0.042    26.995     8.519
     9   6 C        3.065    -0.018    28.381     8.736
    10   6 C        2.918    -0.043    29.064     8.841
    11   6 C        3.065    -0.017    28.374     8.735
    12   6 C        2.920    -0.039    28.967     8.826
    13   6 C        2.973     0.000    28.016     8.682
    14   6 C        3.903     0.026    20.086     6.370
    15   6 C        3.762    -0.106    22.566     6.772
    16   6 C        3.762    -0.106    22.568     6.772
    17   6 C        3.761    -0.108    22.606     6.778
    18   6 C        2.929    -0.043    29.061     8.841
    19   6 C        2.909    -0.054    29.350     8.883
    20   6 C        3.071     0.041    27.001     8.520
    21   7 N        2.801    -0.042    22.044     6.973
    22   6 C        2.911     0.072    26.381     8.422
    23   6 C        2.926    -0.042    29.037     8.837
    24   6 C        2.925    -0.017    28.442     8.746
    25   6 C        2.990    -0.084    30.100     9.000
    26   6 C        3.109     0.004    27.795     8.638
    27   6 C        2.923    -0.044    29.105     8.847
    28   6 C        3.109     0.004    27.795     8.637
    29   6 C        2.923    -0.044    29.104     8.847
    30   6 C        2.911     0.072    26.380     8.422
    31   7 N        2.802    -0.041    22.039     6.972
    32   6 C        3.073     0.041    27.002     8.520
    33   6 C        2.909    -0.054    29.342     8.882
    34   6 C        2.931    -0.039    28.961     8.826
    35   6 C        2.973     0.000    28.022     8.683
    36   6 C        3.903     0.026    20.086     6.371
    37   6 C        3.762    -0.106    22.568     6.772
    38   6 C        3.761    -0.108    22.604     6.777
    39   6 C        3.762    -0.106    22.569     6.772
    40   6 C        2.918    -0.043    29.071     8.842
    41   6 C        3.067    -0.018    28.384     8.736
    42   6 C        3.066    -0.018    28.387     8.737
    43   6 C        2.918    -0.043    29.072     8.842
    44   6 C        2.973     0.000    28.017     8.682
    45   6 C        3.903     0.026    20.086     6.371
    46   6 C        3.762    -0.106    22.571     6.772
    47   6 C        3.761    -0.108    22.603     6.777
    48   6 C        3.761    -0.106    22.569     6.772
    49   6 C        2.931    -0.038    28.953     8.824
    50   6 C        2.909    -0.054    29.336     8.881
    51   6 C        3.074     0.041    27.003     8.520
    52   6 C        2.926    -0.042    29.035     8.837
    53   6 C        2.925    -0.017    28.442     8.746
    54   6 C        2.990    -0.084    30.099     8.999
    55  16 S        3.930     0.964   107.701    17.467
    56   8 O        0.860    -0.534    24.555     6.644
    57   8 O        0.860    -0.534    24.555     6.644
    58   1 H        0.925     0.034     2.531     2.488
    59   1 H        0.925     0.036     2.503     2.474
    60   1 H        0.925     0.037     2.487     2.466
    61   1 H        0.925     0.037     2.488     2.467
    62   1 H        0.925     0.034     2.536     2.491
    63   1 H        0.925     0.036     2.506     2.476
    64   1 H        0.925     0.036     2.501     2.473
    65   1 H        0.925     0.036     2.505     2.475
    66   1 H        0.925     0.036     2.506     2.476
    67   1 H        0.926     0.031     2.566     2.505
    68   1 H        0.926     0.025     2.660     2.551
    69   1 H        0.926     0.039     2.456     2.451
    70   1 H        0.926     0.033     2.544     2.494
    71   1 H        0.925     0.037     2.488     2.467
    72   1 H        0.925     0.033     2.538     2.491
    73   1 H        0.925     0.036     2.501     2.473
    74   1 H        0.925     0.034     2.536     2.490
    75   1 H        0.925     0.037     2.490     2.468
    76   1 H        0.925     0.036     2.499     2.472
    77   1 H        0.925     0.036     2.505     2.475
    78   1 H        0.925     0.036     2.508     2.476
    79   1 H        0.925     0.036     2.497     2.471
    80   1 H        0.926     0.039     2.458     2.452
    81   1 H        0.926     0.027     2.630     2.536
    82   1 H        0.926     0.061     2.186     2.312
    83   1 H        0.926     0.059     2.206     2.322
    84   1 H        0.926     0.058     2.223     2.331
    85   1 H        0.926     0.058     2.222     2.331
    86   1 H        0.926     0.025     2.662     2.552
    87   1 H        0.926     0.031     2.567     2.506
    88   1 H        0.925     0.037     2.489     2.467
    89   1 H        0.925     0.036     2.507     2.476
    90   1 H        0.925     0.034     2.537     2.491
    91   1 H        0.925     0.036     2.503     2.474
    92   1 H        0.925     0.036     2.505     2.475
    93   1 H        0.925     0.036     2.501     2.473
    94   1 H        0.925     0.037     2.487     2.466
    95   1 H        0.925     0.036     2.504     2.474
    96   1 H        0.925     0.034     2.532     2.488
    97   1 H        0.926     0.040     2.448     2.447
    98   1 H        0.926     0.040     2.451     2.448
    99   1 H        0.925     0.034     2.534     2.489
   100   1 H        0.925     0.037     2.488     2.467
   101   1 H        0.925     0.036     2.499     2.472
   102   1 H        0.925     0.036     2.508     2.477
   103   1 H        0.925     0.036     2.504     2.475
   104   1 H        0.925     0.036     2.501     2.473
   105   1 H        0.925     0.037     2.486     2.466
   106   1 H        0.925     0.033     2.538     2.491
   107   1 H        0.925     0.036     2.500     2.473
   108   1 H        0.926     0.032     2.552     2.498
   109   1 H        0.926     0.027     2.631     2.536
   110   1 H        0.926     0.061     2.186     2.312
   111   1 H        0.926     0.059     2.206     2.322

molecular dipole:
                 x           y           z       tot (Debye)
 q only:       -0.005       2.939       0.023
   full:       -0.005       2.658       0.011       6.756

 projected vibrational frequencies (cm⁻¹)
eigval :       -0.00    -0.00    -0.00    -0.00     0.00     0.00
eigval :        6.78     8.17    10.73    23.15    23.47    28.45
eigval :       30.62    31.31    32.24    33.60    57.25    59.51
eigval :       62.68    69.19    74.74    77.32    82.14    91.05
eigval :       98.72   113.64   122.36   138.71   151.01   157.03
eigval :      161.01   164.34   168.45   173.42   178.84   180.07
eigval :      186.66   194.16   202.88   206.55   214.22   217.48
eigval :      219.11   221.72   223.94   229.90   237.41   243.98
eigval :      259.09   261.47   267.42   272.78   282.00   296.62
eigval :      305.16   312.44   315.35   318.01   319.80   322.31
eigval :      326.09   333.37   341.54   348.84   353.35   357.23
eigval :      360.10   365.90   367.32   371.06   385.08   390.44
eigval :      396.28   397.17   406.16   411.63   412.09   415.63
eigval :      434.89   440.46   442.55   443.01   444.83   447.37
eigval :      460.23   464.82   466.22   466.84   469.16   473.34
eigval :      504.79   518.41   522.69   533.78   535.19   539.34
eigval :      560.16   581.95   583.99   585.44   587.59   592.23
eigval :      605.56   613.65   631.57   640.55   640.98   649.72
eigval :      681.52   682.17   688.17   688.29   690.52   701.26
eigval :      707.00   707.77   713.56   722.02   723.44   755.09
eigval :      808.01   816.83   818.77   822.69   823.77   832.65
eigval :      835.27   835.60   837.01   868.79   869.97   873.88
eigval :      874.10   875.28   881.65   882.23   887.80   906.52
eigval :      911.01   917.75   918.51   921.05   923.18   926.18
eigval :      926.51   927.80   933.82   944.20   960.19   960.47
eigval :      960.55   960.55   962.79   962.89   963.03   963.19
eigval :      963.21   963.27   963.30   963.47  1001.02  1013.75
eigval :     1028.18  1031.88  1033.68  1035.73  1035.78  1035.87
eigval :     1035.90  1035.99  1036.03  1040.23  1042.17  1098.01
eigval :     1111.09  1118.30  1120.98  1131.31  1131.79  1138.99
eigval :     1144.56  1155.48  1157.51  1177.46  1179.09  1196.92
eigval :     1209.75  1221.50  1222.75  1228.00  1228.32  1228.41
eigval :     1228.47  1228.84  1231.64  1232.78  1233.23  1235.01
eigval :     1236.94  1239.10  1244.49  1247.46  1252.75  1259.46
eigval :     1268.26  1284.44  1285.13  1301.27  1304.43  1306.28
eigval :     1308.30  1318.03  1339.15  1346.68  1347.02  1355.06
eigval :     1358.96  1366.42  1368.09  1392.16  1402.43  1403.40
eigval :     1404.88  1405.03  1406.10  1406.36  1406.39  1406.44
eigval :     1412.59  1414.09  1428.87  1429.75  1429.80  1429.84
eigval :     1429.97  1436.45  1451.92  1462.45  1469.94  1474.99
eigval :     1482.49  1483.12  1484.29  1492.18  1492.22  1492.26
eigval :     1492.30  1494.69  1494.76  1494.77  1494.99  1501.29
eigval :     1501.46  1501.70  1502.41  1505.59  1505.62  1505.72
eigval :     1505.87  1514.92  1515.08  1515.11  1515.43  1520.01
eigval :     1520.42  1520.48  1520.85  1567.20  1567.55  1568.40
eigval :     1571.81  1575.10  1581.26  1583.09  1584.85  1604.91
eigval :     1605.34  1616.31  1617.94  3022.13  3022.43  3022.44
eigval :     3022.58  3024.03  3024.05  3024.12  3024.14  3027.27
eigval :     3027.36  3027.40  3027.58  3030.72  3030.75  3030.98
eigval :     3031.10  3031.40  3031.43  3031.58  3031.67  3035.92
eigval :     3036.01  3036.22  3036.36  3038.64  3038.69  3038.87
eigval :     3038.96  3047.47  3047.49  3047.52  3047.70  3051.05
eigval :     3051.12  3051.20  3051.25  3078.98  3079.19  3081.71
eigval :     3084.14  3091.70  3094.13  3094.23  3095.73  3100.63
eigval :     3100.83  3101.19  3106.14  3109.87  3110.06  3117.59
eigval :     3119.35  3120.99  3121.62

   temp. (K)  partition function   enthalpy   heat capacity  entropy
                                   cal/mol     cal/K/mol   cal/K/mol   J/K/mol
 298.15  VIB  0.111E+26            32486.423    199.895    201.252
         ROT  0.189E+09              888.752      2.981     40.849
         INT  0.210E+34            33375.175    202.876    242.100
         TR   0.207E+29             1481.254      4.968     45.786
         TOT                       34856.4289   207.8442   287.8862  1204.5157

       T/K    H(0)-H(T)+PV         H(T)/Eh          T*S/Eh         G(T)/Eh
   ------------------------------------------------------------------------
    298.15    0.555473E-01    0.968794E+00    0.136784E+00    0.832010E+00
   ------------------------------------------------------------------------

         :::::::::::::::::::::::::::::::::::::::::::::::::::::
         ::                  THERMODYNAMIC                  ::
         :::::::::::::::::::::::::::::::::::::::::::::::::::::
         :: total free energy        -155.420120724895 Eh   ::
         ::.................................................::
         :: total energy             -156.252130912437 Eh   ::
         :: zero point energy           0.913246938775 Eh   ::
         :: G(RRHO) w/o ZPVE           -0.081236751233 Eh   ::
         :: G(RRHO) contrib.            0.832010187541 Eh   ::
         :::::::::::::::::::::::::::::::::::::::::::::::::::::

           -------------------------------------------------
          | TOTAL ENERGY             -156.252130912437 Eh   |
          | TOTAL ENTHALPY           -155.283336718465 Eh   |
          | TOTAL FREE ENERGY        -155.420120724895 Eh   |
          | GRADIENT NORM               0.000049149598 Eh/α |
          | HOMO-LUMO GAP               2.132149123478 eV   |
           -------------------------------------------------

 * finished run on 2025/09/04 at 15:26:39.665
