   * xtb version 6.7.1 (edcfbbe) compiled by 'albert@albert-system' on 2024-07-22

   ID    Z sym.   atoms
    1    6 C      1-20, 22-30, 32-54
    2    7 N      21, 31
    3   16 S      55
    4    8 O      56, 57
    5    1 H      58-111

          program call               : xtb data2507/gas/1CzSO/1CzSO_gas_S0_crest.xyz --gfn 2 --ohess vtight --parallel 40 --molden --ceasefiles --namespace data2507/gas/1CzSO/1CzSO_gas_S0_finalOpt
          :  Hamiltonian                  GFN2-xTB          :
 * total energy  :  -156.2533926 Eh     change       -0.2645976E-08 Eh
 * total energy  :  -156.2533942 Eh     change       -0.1594774E-05 Eh
 * total energy  :  -156.2533966 Eh     change       -0.2416750E-05 Eh
 * total energy  :  -156.2534002 Eh     change       -0.3550244E-05 Eh
 * total energy  :  -156.2534023 Eh     change       -0.2079862E-05 Eh
 * total energy  :  -156.2534042 Eh     change       -0.1887647E-05 Eh
 * total energy  :  -156.2534063 Eh     change       -0.2143525E-05 Eh
 * total energy  :  -156.2534079 Eh     change       -0.1628666E-05 Eh
 * total energy  :  -156.2534091 Eh     change       -0.1184168E-05 Eh
 * total energy  :  -156.2534105 Eh     change       -0.1420375E-05 Eh
 * total energy  :  -156.2534343 Eh     change       -0.2334812E-06 Eh
 * total energy  :  -156.2534345 Eh     change       -0.2357434E-06 Eh
 * total energy  :  -156.2534347 Eh     change       -0.1748347E-06 Eh
 * total energy  :  -156.2534348 Eh     change       -0.1317639E-06 Eh
 * total energy  :  -156.2534350 Eh     change       -0.1679470E-06 Eh
 * total energy  :  -156.2534352 Eh     change       -0.2507253E-06 Eh
 * total energy  :  -156.2534355 Eh     change       -0.2920438E-06 Eh
 * total energy  :  -156.2534359 Eh     change       -0.3149911E-06 Eh
 * total energy  :  -156.2534359 Eh     change       -0.2964015E-08 Eh
   *** GEOMETRY OPTIMIZATION CONVERGED AFTER 44 ITERATIONS ***

 final structure:
================
111
 xtb: 6.7.1 (edcfbbe)
C           -4.66977967350977        5.10739203056401       -2.10605004901399
C           -3.36474079456473        4.69732902667743       -1.40927426424048
C           -2.19808025939601        5.12972010168713       -2.30164256570832
C           -3.23671541956168        5.43334637540876       -0.06783220908027
C           -3.38689801961040        3.19821440909510       -1.14568318420069
C           -2.41426510030891        2.33407808584125       -1.65397290949646
C           -2.41946271539167        0.97372885426956       -1.40356290300524
C           -3.42526872381735        0.45592184184872       -0.60547311750455
C           -4.44231625784901        1.30036588652492       -0.11333183065295
C           -4.41257809026372        2.66016950463116       -0.37878824681769
C           -5.36095968400872        0.45809125895426        0.60515848194333
C           -6.52779892792011        0.72239519058349        1.30919550099337
C           -7.20292059150731       -0.31301806678374        1.93485827810770
C           -8.49227374489958       -0.10022617564315        2.71423663747954
C           -9.60400920540620       -0.95504679448413        2.08950662976777
C           -8.27307150773438       -0.51762257783368        4.17525644100975
C           -8.95289987625839        1.35997489726120        2.70099950981523
C           -6.66658005852305       -1.60448427836656        1.85387459195275
C           -5.50836684859681       -1.89506000774050        1.16093678426841
C           -4.86084255257491       -0.85652005046485        0.51158083624220
N           -3.68493585941233       -0.85131216631286       -0.22082084279303
C           -2.86665091287737       -1.94124733735917       -0.50285351681107
C           -3.40097005593654       -3.14854936767215       -0.95890297703673
C           -2.56490505796041       -4.20612681757280       -1.28550977162830
C           -1.20355688480255       -4.03777711062954       -1.17662757629376
C           -0.65159073247539       -2.84509209449919       -0.71676203800870
C           -1.48587511492149       -1.80059845101536       -0.35638551205740
C            0.80782552181029       -2.81198565410633       -0.73809237125652
C            1.60471287711939       -1.74236627025206       -0.36816121342882
C            2.98510054945244       -1.81097800211688       -0.56478343209705
N            3.76207849632395       -0.69833697029377       -0.25867856151424
C            4.96952530210815       -0.68495277531989        0.42225442613198
C            5.70847253518300       -1.72449630851004        0.96386577385187
C            6.87926151060972       -1.41279798531625        1.62575760074790
C            7.34135385462816       -0.09962071588810        1.78108875148750
C            8.65311682006459        0.13634844713172        2.51496538854718
C            8.53314294837322       -0.40049337866242        3.94821098330050
C            9.02451228877630        1.61979205269140        2.59228329670278
C            9.78090310488337       -0.59822412551933        1.77640114709488
C            6.57446995803308        0.93386727780190        1.26878405716419
C            5.39283195448872        0.64822677824922        0.59818691730344
C            4.38812614266407        1.48301275191395       -0.00338469293742
C            4.25684070131194        2.85992652954994       -0.13061272197306
C            3.15246707714108        3.38854812977834       -0.77863901695519
C            2.91022757786397        4.88499658697059       -0.90901492276956
C            4.04196993365104        5.71907797094334       -0.30307732881962
C            1.60954215334370        5.23611004585400       -0.17212891007306
C            2.78572633599521        5.26019215122906       -2.39240900195850
C            2.21711950969140        2.50404912042977       -1.33045261551475
C            2.32796151629001        1.13268180945085       -1.22518166903522
C            3.40482007826423        0.61663895814578       -0.52056470416437
C            3.55689510534508       -2.97409030752555       -1.08636204568324
C            2.76162772172318       -4.06481567415296       -1.40613324045931
C            1.39910088429383       -3.96809072955807       -1.24055982520023
S            0.11917024364024       -5.17202881225701       -1.61819228583103
O            0.08750357671441       -5.47185630770483       -3.02402826514070
O            0.17624053328391       -6.28278168181836       -0.70705969239473
H           -5.53571198048678        4.89848054549426       -1.48453532225198
H           -4.78274951140059        4.56367297914801       -3.04172607751413
H           -4.65876212602299        6.17306985807127       -2.32505858653429
H           -1.24229807668476        4.89725716535929       -1.83811995934892
H           -2.25056645078045        4.65043726456267       -3.27658326586926
H           -2.23971360188196        6.20628408474574       -2.45448049097591
H           -2.31631797322335        5.14234254210161        0.43460135057601
H           -3.21603231068843        6.50899227345137       -0.22988472124772
H           -4.07033031606800        5.20346175483228        0.58987117603290
H           -1.62284475719944        2.71974586320162       -2.27486875304397
H           -1.66279837252714        0.34083623758658       -1.84247749467268
H           -5.19877203103255        3.28533914637588        0.01503004648778
H           -6.88204895061373        1.73843515362510        1.35692250495508
H           -9.74936779020395       -0.67854019673660        1.04721914937977
H           -9.36245939673723       -2.01338882519057        2.13032068646526
H          -10.54007283619081       -0.79950714893043        2.62176300432572
H           -7.46888186003712        0.06767538144233        4.61644472570150
H           -9.17965970831643       -0.34971261871468        4.75284739722189
H           -8.01070898284259       -1.56891449217077        4.25327662558870
H           -8.21434347934025        2.00785550390893        3.16745805785074
H           -9.13916227079525        1.70206760943910        1.68555668249059
H           -9.88091522561747        1.45204281442435        3.26170441803203
H           -7.16876147580551       -2.41813012065070        2.35423207794398
H           -5.11942449983643       -2.90182430056473        1.14509082937559
H           -4.46791608771618       -3.24217705795357       -1.08710002070630
H           -2.96681327259318       -5.13929555786335       -1.64707215491911
H           -1.08596966068982       -0.87915460202207        0.03569597829994
H            1.17504743658564       -0.85944900691481        0.07677667331392
H            5.38047957548619       -2.75019885991829        0.89262893109141
H            7.45206241830428       -2.22771866074380        2.04093198336962
H            9.45624937598362       -0.21893133943090        4.49466937320709
H            8.33777109748694       -1.46908304676830        3.95747592179656
H            7.71906557332395        0.09903629228919        4.46943145101584
H            9.13773762917607        2.04688115006329        1.59850794980334
H            8.27344767905387        2.18349482973054        3.14081823476658
H            9.97283714885921        1.72892081853761        3.11463041534442
H            9.85722021335856       -0.23669738261422        0.75296737087888
H           10.73158818086949       -0.42393024167338        2.27593060745573
H            9.60485709503880       -1.66977386496491        1.74656538343943
H            6.86738279863993        1.96434214197421        1.38012914116241
H            5.02488671186247        3.49152306132747        0.28323800971444
H            4.15116328055666        5.51830209067920        0.76013078446793
H            3.81656276957352        6.77692973608944       -0.42242537349099
H            4.98609474061167        5.51778750013440       -0.80394589430968
H            0.76662199585990        4.67884979102484       -0.57204723998156
H            1.70035709462286        4.99676009822824        0.88547711818853
H            1.39584017993746        6.29845689524909       -0.26951185770104
H            2.65399090403782        6.33519583604928       -2.49606683479911
H            1.93632758143412        4.77028596853212       -2.85981633351886
H            3.68561292840723        4.96924823093920       -2.93017877788268
H            1.36701256048772        2.89757381767887       -1.86614635185090
H            1.59741018837103        0.49217725433626       -1.69566529756554
H            4.62003422473135       -3.01001063834162       -1.26424415817116
H            3.19477214220871       -4.96849765376206       -1.80467310376262

          :  Hamiltonian                  GFN2-xTB          :
         :: gradient norm              0.000041438436 Eh/a0 ::
         :: HOMO-LUMO gap              2.171675325969 eV    ::
         :: SCC energy              -158.865060305805 Eh    ::
         :: -> dispersion             -0.147005721345 Eh    ::
         :: repulsion energy           2.611624450629 Eh    ::

    * Orbital Energies and Occupations

         #    Occupation            Energy/Eh            Energy/eV
      -------------------------------------------------------------
         1        2.0000           -0.7683253             -20.9072
       ...           ...                  ...                  ...
       133        2.0000           -0.4207286             -11.4486
       134        2.0000           -0.4140900             -11.2680
       135        2.0000           -0.4134821             -11.2514
       136        2.0000           -0.4127759             -11.2322
       137        2.0000           -0.4120357             -11.2121
       138        2.0000           -0.4106747             -11.1750
       139        2.0000           -0.4048751             -11.0172
       140        2.0000           -0.4015016             -10.9254
       141        2.0000           -0.4006058             -10.9010
       142        2.0000           -0.3796990             -10.3321
       143        2.0000           -0.3790468             -10.3144
       144        2.0000           -0.3653331              -9.9412
       145        2.0000           -0.3647469              -9.9253 (HOMO)
       146                         -0.2849394              -7.7536 (LUMO)
       147                         -0.2617201              -7.1218
       148                         -0.2552964              -6.9470
       149                         -0.2452272              -6.6730
       150                         -0.2443414              -6.6489
       151                         -0.2235676              -6.0836
       152                         -0.2232110              -6.0739
       153                         -0.2220552              -6.0424
       154                         -0.1982484              -5.3946
       155                         -0.1917141              -5.2168
       156                         -0.1889561              -5.1418
       ...                                ...                  ...
       287                          1.2251041              33.3368
      -------------------------------------------------------------
                  HL-Gap            0.0798076 Eh            2.1717 eV

     #   Z          covCN         q      C6AA      α(0)
     1   6 C        3.762    -0.106    22.570     6.772
     2   6 C        3.903     0.026    20.086     6.371
     3   6 C        3.761    -0.106    22.562     6.771
     4   6 C        3.762    -0.106    22.566     6.772
     5   6 C        2.972    -0.000    28.027     8.684
     6   6 C        2.929    -0.042    29.056     8.840
     7   6 C        2.909    -0.054    29.346     8.883
     8   6 C        3.073     0.041    27.006     8.521
     9   6 C        3.064    -0.017    28.365     8.733
    10   6 C        2.920    -0.039    28.965     8.826
    11   6 C        3.066    -0.018    28.386     8.737
    12   6 C        2.918    -0.043    29.063     8.840
    13   6 C        2.973     0.000    28.017     8.682
    14   6 C        3.903     0.026    20.085     6.370
    15   6 C        3.762    -0.106    22.571     6.772
    16   6 C        3.762    -0.106    22.569     6.772
    17   6 C        3.761    -0.107    22.600     6.777
    18   6 C        2.931    -0.038    28.946     8.823
    19   6 C        2.909    -0.054    29.334     8.881
    20   6 C        3.071     0.042    26.986     8.518
    21   7 N        2.801    -0.041    22.034     6.972
    22   6 C        2.911     0.072    26.385     8.423
    23   6 C        2.925    -0.042    29.050     8.839
    24   6 C        2.924    -0.017    28.436     8.745
    25   6 C        2.988    -0.084    30.103     9.000
    26   6 C        3.115     0.003    27.791     8.636
    27   6 C        2.925    -0.045    29.124     8.850
    28   6 C        3.115     0.003    27.793     8.636
    29   6 C        2.925    -0.046    29.140     8.853
    30   6 C        2.911     0.072    26.385     8.423
    31   7 N        2.801    -0.040    22.015     6.969
    32   6 C        3.071     0.042    26.997     8.519
    33   6 C        2.909    -0.054    29.334     8.881
    34   6 C        2.931    -0.038    28.950     8.824
    35   6 C        2.973     0.001    28.012     8.682
    36   6 C        3.903     0.026    20.086     6.371
    37   6 C        3.761    -0.106    22.569     6.772
    38   6 C        3.761    -0.108    22.603     6.777
    39   6 C        3.762    -0.106    22.571     6.772
    40   6 C        2.918    -0.043    29.070     8.841
    41   6 C        3.067    -0.018    28.383     8.736
    42   6 C        3.064    -0.017    28.375     8.735
    43   6 C        2.918    -0.043    29.070     8.841
    44   6 C        2.973    -0.000    28.025     8.684
    45   6 C        3.903     0.026    20.086     6.371
    46   6 C        3.761    -0.108    22.606     6.778
    47   6 C        3.762    -0.103    22.515     6.764
    48   6 C        3.761    -0.106    22.564     6.771
    49   6 C        2.931    -0.038    28.957     8.825
    50   6 C        2.909    -0.054    29.336     8.881
    51   6 C        3.074     0.041    27.013     8.521
    52   6 C        2.925    -0.043    29.063     8.841
    53   6 C        2.924    -0.017    28.438     8.745
    54   6 C        2.988    -0.085    30.108     9.001
    55  16 S        3.934     0.964   107.679    17.465
    56   8 O        0.860    -0.534    24.559     6.644
    57   8 O        0.860    -0.534    24.557     6.644
    58   1 H        0.925     0.036     2.498     2.471
    59   1 H        0.925     0.034     2.535     2.490
    60   1 H        0.925     0.037     2.491     2.468
    61   1 H        0.925     0.034     2.529     2.487
    62   1 H        0.925     0.035     2.521     2.483
    63   1 H        0.925     0.036     2.499     2.472
    64   1 H        0.925     0.034     2.534     2.489
    65   1 H        0.925     0.037     2.487     2.466
    66   1 H        0.925     0.036     2.500     2.473
    67   1 H        0.926     0.036     2.501     2.473
    68   1 H        0.926     0.024     2.667     2.554
    69   1 H        0.926     0.033     2.541     2.493
    70   1 H        0.926     0.039     2.458     2.452
    71   1 H        0.925     0.034     2.533     2.489
    72   1 H        0.925     0.036     2.499     2.472
    73   1 H        0.925     0.037     2.487     2.466
    74   1 H        0.925     0.034     2.536     2.491
    75   1 H        0.925     0.037     2.485     2.465
    76   1 H        0.925     0.036     2.500     2.473
    77   1 H        0.925     0.035     2.510     2.477
    78   1 H        0.925     0.036     2.506     2.475
    79   1 H        0.925     0.036     2.500     2.473
    80   1 H        0.926     0.033     2.551     2.497
    81   1 H        0.926     0.027     2.625     2.534
    82   1 H        0.926     0.061     2.192     2.315
    83   1 H        0.926     0.059     2.208     2.324
    84   1 H        0.926     0.059     2.216     2.328
    85   1 H        0.926     0.059     2.211     2.325
    86   1 H        0.926     0.028     2.618     2.530
    87   1 H        0.926     0.033     2.550     2.497
    88   1 H        0.925     0.037     2.485     2.465
    89   1 H        0.925     0.036     2.500     2.472
    90   1 H        0.925     0.034     2.537     2.491
    91   1 H        0.925     0.036     2.504     2.474
    92   1 H        0.925     0.036     2.508     2.477
    93   1 H        0.925     0.036     2.500     2.473
    94   1 H        0.925     0.034     2.533     2.489
    95   1 H        0.925     0.037     2.487     2.466
    96   1 H        0.925     0.036     2.499     2.472
    97   1 H        0.926     0.040     2.450     2.447
    98   1 H        0.926     0.040     2.450     2.447
    99   1 H        0.925     0.036     2.507     2.476
   100   1 H        0.925     0.036     2.499     2.472
   101   1 H        0.925     0.036     2.502     2.473
   102   1 H        0.925     0.034     2.537     2.491
   103   1 H        0.925     0.033     2.549     2.497
   104   1 H        0.925     0.038     2.482     2.464
   105   1 H        0.925     0.037     2.487     2.466
   106   1 H        0.925     0.036     2.505     2.475
   107   1 H        0.925     0.034     2.531     2.488
   108   1 H        0.926     0.031     2.573     2.508
   109   1 H        0.926     0.025     2.653     2.547
   110   1 H        0.926     0.061     2.191     2.315
   111   1 H        0.926     0.059     2.211     2.325

molecular dipole:
                 x           y           z       tot (Debye)
 q only:       -0.037       2.858       0.978
   full:       -0.051       2.565       0.910       6.919

 projected vibrational frequencies (cm⁻¹)
eigval :       -0.00    -0.00    -0.00     0.00     0.00     0.00
eigval :        1.32     9.00    15.34    22.23    24.62    26.86
eigval :       29.11    32.04    32.48    46.14    57.84    60.08
eigval :       63.20    69.24    72.21    79.30    81.51    92.15
eigval :       96.70   119.14   121.82   138.95   149.97   156.67
eigval :      160.14   167.11   169.53   173.09   176.71   184.45
eigval :      186.31   194.79   202.61   211.27   211.99   218.04
eigval :      218.57   222.71   224.70   230.17   239.34   243.20
eigval :      259.68   262.47   268.45   271.20   281.83   297.38
eigval :      301.86   309.96   317.07   318.33   321.48   324.35
eigval :      329.74   333.58   337.04   344.49   357.56   358.97
eigval :      360.33   363.11   369.07   372.86   386.31   390.48
eigval :      396.15   398.67   401.37   412.13   412.55   418.50
eigval :      434.19   440.21   442.17   443.39   445.37   447.48
eigval :      461.67   465.05   466.14   468.48   469.53   472.38
eigval :      505.25   517.07   523.29   533.28   537.24   537.88
eigval :      562.03   581.52   583.61   586.05   587.81   591.54
eigval :      603.60   618.97   629.24   640.59   641.00   648.96
eigval :      678.93   682.87   687.89   688.67   689.62   700.77
eigval :      707.09   708.11   714.14   721.71   723.56   754.27
eigval :      808.95   815.79   817.80   821.37   823.55   832.49
eigval :      834.62   835.78   837.44   868.39   872.00   873.65
eigval :      873.85   874.73   876.92   885.00   891.16   910.31
eigval :      910.63   914.19   920.50   921.70   923.84   925.41
eigval :      926.30   927.65   935.15   943.89   959.32   960.06
eigval :      960.57   960.59   962.06   962.71   962.98   963.20
eigval :      963.27   963.28   963.36   963.43  1002.74  1013.61
eigval :     1028.34  1031.84  1033.48  1034.59  1035.20  1035.81
eigval :     1035.84  1036.04  1036.36  1040.63  1042.47  1100.12
eigval :     1111.94  1118.26  1121.12  1131.76  1131.98  1140.62
eigval :     1144.76  1153.98  1156.43  1177.19  1180.58  1200.05
eigval :     1208.63  1223.86  1225.00  1227.43  1227.73  1228.45
eigval :     1228.47  1229.17  1231.98  1233.07  1233.26  1235.69
eigval :     1237.16  1239.95  1244.57  1247.25  1253.30  1259.30
eigval :     1270.62  1284.05  1285.44  1300.39  1304.15  1306.12
eigval :     1308.78  1319.88  1340.04  1347.09  1347.85  1354.88
eigval :     1357.21  1366.69  1368.69  1391.59  1401.43  1403.48
eigval :     1404.19  1405.10  1406.05  1406.46  1406.49  1406.88
eigval :     1412.67  1414.13  1428.59  1429.62  1429.80  1429.86
eigval :     1430.31  1436.41  1454.02  1463.16  1470.44  1474.67
eigval :     1482.27  1483.33  1484.14  1491.09  1492.04  1492.20
eigval :     1492.22  1494.37  1494.70  1494.72  1494.96  1500.68
eigval :     1501.33  1501.50  1502.01  1505.42  1505.51  1505.64
eigval :     1505.76  1514.27  1515.02  1515.09  1515.53  1519.85
eigval :     1520.26  1520.45  1520.93  1566.95  1568.49  1571.67
eigval :     1573.72  1574.93  1580.61  1582.52  1584.79  1604.54
eigval :     1605.16  1615.83  1617.42  3022.07  3022.52  3022.60
eigval :     3022.75  3023.78  3024.10  3024.18  3024.20  3026.72
eigval :     3026.83  3027.26  3027.39  3030.22  3030.61  3030.94
eigval :     3030.99  3031.39  3031.48  3031.49  3031.72  3035.68
eigval :     3035.94  3036.03  3036.29  3038.53  3038.63  3038.80
eigval :     3039.08  3043.63  3047.74  3047.78  3047.79  3050.19
eigval :     3051.21  3051.24  3052.08  3079.91  3081.35  3083.20
eigval :     3084.44  3092.39  3095.03  3096.27  3096.94  3100.53
eigval :     3101.26  3105.23  3109.64  3110.56  3111.48  3117.28
eigval :     3118.84  3119.01  3120.66

   temp. (K)  partition function   enthalpy   heat capacity  entropy
                                   cal/mol     cal/K/mol   cal/K/mol   J/K/mol
 298.15  VIB  0.272E+26            32452.632    200.105    202.272
         ROT  0.178E+09              888.752      2.981     40.739
         INT  0.485E+34            33341.384    203.086    243.011
         TR   0.207E+29             1481.254      4.968     45.786
         TOT                       34822.6379   208.0542   288.7967  1208.3255

       T/K    H(0)-H(T)+PV         H(T)/Eh          T*S/Eh         G(T)/Eh
   ------------------------------------------------------------------------
    298.15    0.554934E-01    0.968873E+00    0.137217E+00    0.831656E+00
   ------------------------------------------------------------------------

         :::::::::::::::::::::::::::::::::::::::::::::::::::::
         ::                  THERMODYNAMIC                  ::
         :::::::::::::::::::::::::::::::::::::::::::::::::::::
         :: total free energy        -155.421779718623 Eh   ::
         ::.................................................::
         :: total energy             -156.253435855175 Eh   ::
         :: zero point energy           0.913379375573 Eh   ::
         :: G(RRHO) w/o ZPVE           -0.081723239022 Eh   ::
         :: G(RRHO) contrib.            0.831656136552 Eh   ::
         :::::::::::::::::::::::::::::::::::::::::::::::::::::

           -------------------------------------------------
          | TOTAL ENERGY             -156.253435855175 Eh   |
          | TOTAL ENTHALPY           -155.284563073844 Eh   |
          | TOTAL FREE ENERGY        -155.421779718623 Eh   |
          | GRADIENT NORM               0.000041448090 Eh/α |
          | HOMO-LUMO GAP               2.171674492485 eV   |
           -------------------------------------------------

 * finished run on 2025/09/04 at 15:48:40.858
