   * xtb version 6.7.1 (edcfbbe) compiled by 'albert@albert-system' on 2024-07-22

   ID    Z sym.   atoms
    1    6 C      1-20, 22-30, 32-54
    2    7 N      21, 31
    3   16 S      55
    4    8 O      56, 57
    5    1 H      58-111

          program call               : xtb data2507/gas/1CzSO/1CzSO_gas_S0_finalOpt.xtbopt.xyz --gfn 2 --spinpol --tblite --uhf 2 --ohess vtight --parallel 40 --molden --ceasefiles --namespace data2507/gas/1CzSO/1CzSO_gas_T1_preOpt
 * total energy  :  -156.1567245 Eh     change       -0.2928670E-07 Eh
 * total energy  :  -156.1608231 Eh     change       -0.4098634E-02 Eh
 * total energy  :  -156.1628420 Eh     change       -0.2018910E-02 Eh
 * total energy  :  -156.1630107 Eh     change       -0.1686919E-03 Eh
 * total energy  :  -156.1630618 Eh     change       -0.5106998E-04 Eh
 * total energy  :  -156.1630947 Eh     change       -0.3297008E-04 Eh
 * total energy  :  -156.1631172 Eh     change       -0.2242933E-04 Eh
 * total energy  :  -156.1631294 Eh     change       -0.1219467E-04 Eh
 * total energy  :  -156.1631410 Eh     change       -0.1165695E-04 Eh
 * total energy  :  -156.1631456 Eh     change       -0.4611628E-05 Eh
 * total energy  :  -156.1635064 Eh     change       -0.1326168E-05 Eh
 * total energy  :  -156.1635085 Eh     change       -0.2028512E-05 Eh
 * total energy  :  -156.1635106 Eh     change       -0.2182132E-05 Eh
 * total energy  :  -156.1635124 Eh     change       -0.1760871E-05 Eh
 * total energy  :  -156.1635143 Eh     change       -0.1882793E-05 Eh
 * total energy  :  -156.1635163 Eh     change       -0.2034559E-05 Eh
 * total energy  :  -156.1635185 Eh     change       -0.2192698E-05 Eh
 * total energy  :  -156.1635206 Eh     change       -0.2115601E-05 Eh
 * total energy  :  -156.1635206 Eh     change       -0.1368085E-07 Eh
   *** GEOMETRY OPTIMIZATION CONVERGED AFTER 94 ITERATIONS ***

 final structure:
================
111
 xtb: 6.7.1 (edcfbbe)
C           -4.91907321643667        5.10043062977637       -2.15838016418569
C           -3.67179517945147        4.76982173730657       -1.32616033345346
C           -2.44334271576137        5.29571405829513       -2.07368310809730
C           -3.74384764076338        5.49015996402249        0.02827207868018
C           -3.62256294049324        3.26846976618886       -1.08925687512219
C           -2.58750773727003        2.46668711584676       -1.57726940914558
C           -2.52965434882273        1.10353823746927       -1.35118980093748
C           -3.53524134139277        0.51896984854157       -0.59660735002045
C           -4.61721381028129        1.30074770395829       -0.13003543186655
C           -4.65330209513592        2.66111837282030       -0.37507243634796
C           -5.50579960127769        0.39469198119977        0.55195166945509
C           -6.70353766858125        0.57297925783110        1.22436840227259
C           -7.32436011516528       -0.51522980192172        1.82559654183095
C           -8.64054135214412       -0.39369582806731        2.57641903871472
C           -9.67607319608911       -1.32546754598571        1.93041702851441
C           -8.42013625452349       -0.79657397505136        4.04177116557849
C           -9.20341881826016        1.03011633965912        2.55330082540026
C           -6.70060245640506       -1.76813314503607        1.75000618211703
C           -5.50653160643657       -1.97328245218915        1.08955248475615
C           -4.91352818947492       -0.88531806580585        0.46329892663428
N           -3.72688092357866       -0.79856624126271       -0.23222118377217
C           -2.84883044071069       -1.84838121991972       -0.51312250298887
C           -3.37403910739010       -3.07057816373091       -1.02652700462788
C           -2.49935564166879       -4.10181486135437       -1.35450177873658
C           -1.15380586752740       -3.92582926602460       -1.19111213704109
C           -0.59890287398606       -2.69433321459519       -0.70296915357347
C           -1.49780726030480       -1.66945103503172       -0.34345420106407
C            0.80271402137929       -2.65602502623367       -0.68686338293079
C            1.63561333555158       -1.58489409886963       -0.30456654719776
C            2.99808028185655       -1.68833749414619       -0.44414956071452
N            3.80842496807296       -0.59263269053382       -0.13709140613411
C            4.98092136764508       -0.61395385381621        0.58739419516753
C            5.63129299264802       -1.67100906316674        1.20943998051829
C            6.79799709747764       -1.39999945165030        1.89486954203191
C            7.33743748984114       -0.11081454402310        2.00140678368376
C            8.63508277390917        0.08185940203965        2.76947567615851
C            8.43455114092949       -0.37718549557905        4.22099518653764
C            9.09616776690489        1.54183609230371        2.79136516674371
C            9.73770303742261       -0.75616043490173        2.10608022327457
C            6.65617607268865        0.94516099878559        1.40823815456353
C            5.48532963076801        0.70061285334617        0.70947671996347
C            4.55629385005303        1.55772106914450        0.01879607707618
C            4.51208114052669        2.92565417998692       -0.19947399295136
C            3.46952458702402        3.47200728808575       -0.93770121686350
C            3.34198506502560        4.96468393920242       -1.19700505670550
C            4.43668770980390        5.77890309915070       -0.50233359108271
C            1.98262380573244        5.45154391231498       -0.67358872608629
C            3.43862013857144        5.22109399352416       -2.70785088235844
C            2.50661623196096        2.60805002506786       -1.47648428159017
C            2.52557646092443        1.24375502887135       -1.27238821795193
C            3.54328966199185        0.71499102232498       -0.48995660243035
C            3.60095265822769       -2.87733934815912       -0.94985360875899
C            2.79198087201272       -3.95468043416657       -1.29778623770604
C            1.43549985947363       -3.85415797042339       -1.16308698054252
S            0.17719868064554       -5.05897131706414       -1.54432572438353
O            0.20206586111611       -5.41799439896850       -2.94239574777668
O            0.19736446930410       -6.15532311238083       -0.60562622254831
H           -5.82872344909591        4.80538564302746       -1.64282883316231
H           -4.88370647689177        4.57845758744569       -3.11234425181989
H           -4.96773405946734        6.16992659679728       -2.35123700233293
H           -1.53132419429410        5.08902700878625       -1.51804038788763
H           -2.36796959477297        4.85743999359865       -3.06605468245034
H           -2.52664328725866        6.37419976627242       -2.19110492722789
H           -2.87522423826962        5.23949603908630        0.63369141200073
H           -3.76009669878505        6.56737024361017       -0.12251541092909
H           -4.63636322459064        5.21256766673169        0.58146045655315
H           -1.79555481155122        2.90732251202761       -2.15918540288735
H           -1.72704494011544        0.51483843446188       -1.76736808530877
H           -5.48821895169335        3.23773334997267       -0.00855631571257
H           -7.12932928693933        1.56115478003926        1.27243421257028
H           -9.81848995844707       -1.06163164742360        0.88451560719773
H           -9.36354820188836       -2.36448726927137        1.98018235600411
H          -10.63129977024254       -1.23354372114528        2.44270451259993
H           -7.67148319548523       -0.15355205819115        4.49994749693749
H           -9.34869231176213       -0.69758902917279        4.59972993677226
H           -8.08170018710090       -1.82537280869000        4.12489517703417
H           -8.52465692358608        1.72846452326154        3.03746923647653
H           -9.39137848977719        1.36030737951015        1.53420607102135
H          -10.14786799552241        1.05397756188576        3.09293463759542
H           -7.15998308898287       -2.61667604841617        2.23251301050252
H           -5.04432715378002       -2.94797003541147        1.07617482501662
H           -4.43164459812134       -3.15940453877262       -1.21043735142318
H           -2.87593997225511       -5.03587374428687       -1.74234178586176
H           -1.12401455711575       -0.74889459735742        0.07746947174960
H            1.20239224050337       -0.68830990359369        0.11113069961432
H            5.23435381390648       -2.67343743481672        1.17246335355491
H            7.30402338207313       -2.22526162121945        2.37107323372407
H            9.34868072453633       -0.22361471675420        4.79032512424244
H            8.17511022461936       -1.43063228859583        4.27337517716862
H            7.63580565937918        0.19432073122027        4.68920705700723
H            9.27190629819201        1.91233214729375        1.78404745894183
H            8.36407812185070        2.17704339341675        3.28469653926576
H           10.03051004054620        1.61735381257101        3.34371044053550
H            9.87039765656220       -0.45039015758780        1.07034485745025
H           10.68010835265151       -0.61555599340924        2.63091224847816
H            9.49609831301420       -1.81504974262156        2.12024485316134
H            7.01491114117066        1.95815738404352        1.48051883471292
H            5.29540925966309        3.54155935071477        0.20932598315136
H            4.40809395235549        5.63302413523176        0.57509027704492
H            4.28266689843563        6.83725578595640       -0.70234919845039
H            5.42220110937001        5.50918348743945       -0.87445743686095
H            1.16011051237678        4.96039992617160       -1.18572760708392
H            1.89351092951773        5.24578502191506        0.39114955368856
H            1.88539342762713        6.52400426738693       -0.82767860022719
H            3.36594746305024        6.28727293695718       -2.91126462123638
H            2.64263023711661        4.71636529772194       -3.24807788915530
H            4.39124081028242        4.86054176069934       -3.09005769321144
H            1.71178564380121        3.01437805268352       -2.08253947259171
H            1.77797487163761        0.61008169011889       -1.72346863466984
H            4.66537761897947       -2.90671198611614       -1.11207870079437
H            3.22803438559710       -4.86546194439977       -1.67865536883728

 projected vibrational frequencies (cm⁻¹)
eigval :       -0.00    -0.00    -0.00    -0.00     0.00     0.00
eigval :        6.63     7.48    11.09    22.77    24.39    24.64
eigval :       28.26    28.87    30.57    31.48    54.59    58.09
eigval :       60.93    69.68    70.63    75.62    80.65    93.24
eigval :       99.80   111.86   120.90   137.39   146.87   150.89
eigval :      156.95   162.90   165.86   170.45   173.64   183.20
eigval :      184.48   192.14   200.48   203.42   210.08   216.35
eigval :      216.48   221.05   222.77   229.21   235.01   241.32
eigval :      256.66   261.58   265.32   268.09   281.07   296.66
eigval :      300.34   309.11   317.18   318.68   321.59   325.47
eigval :      326.14   330.88   334.68   338.76   341.60   350.54
eigval :      354.27   357.42   361.75   363.79   367.15   371.25
eigval :      385.49   392.60   397.32   404.29   405.32   406.40
eigval :      419.13   431.74   440.93   441.35   442.18   444.04
eigval :      460.00   464.22   465.92   467.31   471.12   472.68
eigval :      503.91   514.28   519.31   524.09   530.30   533.56
eigval :      544.47   574.82   578.50   587.03   589.17   589.86
eigval :      590.66   601.88   613.73   631.39   638.65   641.25
eigval :      641.66   650.43   675.16   683.44   691.78   691.90
eigval :      705.12   708.92   710.16   716.82   718.51   737.78
eigval :      737.92   748.58   801.86   814.48   819.50   825.95
eigval :      826.06   830.92   834.57   842.15   847.89   867.90
eigval :      868.11   871.43   872.23   872.74   877.05   884.82
eigval :      885.28   910.92   912.58   916.00   916.48   919.01
eigval :      923.94   925.22   930.76   937.00   959.11   959.64
eigval :      959.89   959.97   961.61   962.10   962.22   962.35
eigval :      962.73   962.77   962.81   963.80   978.47   982.78
eigval :     1005.03  1029.36  1030.85  1033.38  1033.45  1033.81
eigval :     1033.86  1034.68  1035.47  1037.31  1040.35  1043.40
eigval :     1097.59  1099.06  1104.28  1127.51  1127.73  1131.12
eigval :     1131.23  1140.32  1142.42  1161.84  1164.23  1186.97
eigval :     1193.87  1195.95  1213.72  1221.57  1223.86  1225.39
eigval :     1225.57  1225.61  1225.93  1227.54  1229.46  1229.88
eigval :     1230.42  1230.92  1233.33  1238.87  1252.31  1252.90
eigval :     1269.74  1277.73  1285.12  1289.12  1291.46  1292.53
eigval :     1295.30  1311.88  1313.09  1332.06  1337.49  1338.70
eigval :     1341.39  1348.21  1351.04  1352.79  1372.26  1389.04
eigval :     1399.66  1400.34  1402.34  1402.61  1403.18  1403.63
eigval :     1403.86  1404.09  1409.47  1409.95  1425.70  1426.36
eigval :     1426.87  1427.00  1435.30  1437.50  1458.26  1461.58
eigval :     1467.42  1471.30  1475.11  1478.49  1486.81  1487.20
eigval :     1487.92  1488.00  1489.99  1490.35  1490.42  1491.01
eigval :     1491.32  1496.39  1496.55  1496.55  1497.64  1499.98
eigval :     1500.67  1501.28  1501.37  1509.93  1510.29  1511.89
eigval :     1512.09  1515.40  1516.10  1516.16  1516.94  1520.97
eigval :     1532.83  1559.33  1560.20  1571.03  1573.08  1577.30
eigval :     1578.39  1598.37  1601.84  3023.34  3023.96  3023.99
eigval :     3024.31  3026.12  3026.16  3026.19  3026.23  3027.50
eigval :     3028.16  3028.18  3028.26  3031.73  3031.75  3031.82
eigval :     3032.04  3032.21  3032.71  3032.74  3032.98  3035.71
eigval :     3036.34  3036.40  3036.60  3039.30  3039.46  3039.58
eigval :     3039.95  3046.91  3048.18  3049.88  3049.89  3050.24
eigval :     3052.26  3053.12  3053.18  3087.04  3089.06  3090.83
eigval :     3090.96  3091.75  3091.96  3093.13  3093.37  3095.03
eigval :     3099.81  3102.02  3102.11  3112.10  3112.65  3117.91
eigval :     3119.42  3120.97  3122.88

   temp. (K)  partition function   enthalpy   heat capacity  entropy
                                   cal/mol     cal/K/mol   cal/K/mol   J/K/mol
 298.15  VIB  0.326E+26            32875.752    201.827    203.790
         ROT  0.185E+09              888.752      2.981     40.805
         INT  0.601E+34            33764.505    204.808    244.595
         TR   0.207E+29             1481.254      4.968     45.786
         TOT                       35245.7587   209.7758   290.3807  1214.9528

       T/K    H(0)-H(T)+PV         H(T)/Eh          T*S/Eh         G(T)/Eh
   ------------------------------------------------------------------------
    298.15    0.561677E-01    0.964274E+00    0.137969E+00    0.826305E+00
   ------------------------------------------------------------------------

         :::::::::::::::::::::::::::::::::::::::::::::::::::::
         ::                  THERMODYNAMIC                  ::
         :::::::::::::::::::::::::::::::::::::::::::::::::::::
         :: total free energy        -155.337215739178 Eh   ::
         ::.................................................::
         :: total energy             -156.163520498853 Eh   ::
         :: zero point energy           0.908106300398 Eh   ::
         :: G(RRHO) w/o ZPVE           -0.081801540723 Eh   ::
         :: G(RRHO) contrib.            0.826304759675 Eh   ::
         :::::::::::::::::::::::::::::::::::::::::::::::::::::

           -------------------------------------------------
          | TOTAL ENERGY             -156.163520498853 Eh   |
          | TOTAL ENTHALPY           -155.199246506676 Eh   |
          | TOTAL FREE ENERGY        -155.337215739178 Eh   |
          | GRADIENT NORM               0.000114362103 Eh/α |
           -------------------------------------------------

 * finished run on 2025/09/04 at 15:49:07.227
