   * xtb version 6.7.1 (edcfbbe) compiled by 'albert@albert-system' on 2024-07-22

   ID    Z sym.   atoms
    1    6 C      1-20, 22-30, 32-54
    2    7 N      21, 31
    3   16 S      55
    4    8 O      56, 57
    5    1 H      58-111

          program call               : xtb data2507/gas/1CzSO/1CzSO_gas_T1_crest.xyz --gfn 2 --spinpol --tblite --uhf 2 --ohess vtight --parallel 40 --molden --ceasefiles --namespace data2507/gas/1CzSO/1CzSO_gas_T1_finalOpt
 * total energy  :  -156.1635365 Eh     change       -0.1750522E-07 Eh
 * total energy  :  -156.1635701 Eh     change       -0.3367762E-04 Eh
 * total energy  :  -156.1635810 Eh     change       -0.1089628E-04 Eh
 * total energy  :  -156.1635832 Eh     change       -0.2154796E-05 Eh
 * total energy  :  -156.1635859 Eh     change       -0.2662630E-05 Eh
 * total energy  :  -156.1635888 Eh     change       -0.2888843E-05 Eh
 * total energy  :  -156.1635930 Eh     change       -0.4220944E-05 Eh
 * total energy  :  -156.1635984 Eh     change       -0.5379497E-05 Eh
 * total energy  :  -156.1636038 Eh     change       -0.5462413E-05 Eh
 * total energy  :  -156.1636090 Eh     change       -0.5184800E-05 Eh
 * total energy  :  -156.1636974 Eh     change       -0.5232386E-06 Eh
 * total energy  :  -156.1636980 Eh     change       -0.5395883E-06 Eh
 * total energy  :  -156.1636985 Eh     change       -0.5004881E-06 Eh
 * total energy  :  -156.1636991 Eh     change       -0.6428624E-06 Eh
 * total energy  :  -156.1636998 Eh     change       -0.6403677E-06 Eh
 * total energy  :  -156.1637004 Eh     change       -0.6585693E-06 Eh
 * total energy  :  -156.1637012 Eh     change       -0.8129549E-06 Eh
 * total energy  :  -156.1637024 Eh     change       -0.1134724E-05 Eh
 * total energy  :  -156.1637024 Eh     change       -0.6805976E-08 Eh
   *** GEOMETRY OPTIMIZATION CONVERGED AFTER 68 ITERATIONS ***

 final structure:
================
111
 xtb: 6.7.1 (edcfbbe)
C           -9.04964372259632        1.01825777177905       -2.91041399402647
C           -8.49234827199003       -0.40757709226007       -2.87776606648846
C           -9.56588841921487       -1.32490397674655       -2.27450180752381
C           -8.19279814234675       -0.83615297059739       -4.32160012165771
C           -7.22126740356403       -0.52074534787652       -2.05159048408731
C           -6.60397254823932       -1.77289708110310       -1.92638811979062
C           -5.45088367594779       -1.97094417880168       -1.19463048332473
C           -4.89584167554929       -0.87609397413220       -0.54639456536557
C           -5.48216731604296        0.40287694065531       -0.68032635858904
C           -6.63770118332226        0.57380723503163       -1.42493169457995
C           -4.63956964118918        1.31400578356156        0.05121563942262
C           -4.69992387714013        2.67803523920594        0.28916155437817
C           -3.72613046916559        3.28423084179103        1.07333694179481
C           -3.72141229277816        4.77598825865689        1.36731578717614
C           -3.90354299376118        4.98705308977411        2.87746145080079
C           -2.38133926580105        5.37596006366604        0.91668763474135
C           -4.84320886394743        5.52304333269691        0.64110279845524
C           -2.72043978425313        2.48286348728525        1.63046407628894
C           -2.63461896859733        1.12420002964701        1.40696543721609
C           -3.58891379292925        0.53702118168776        0.58751282391992
N           -3.75364938204694       -0.78186169773511        0.21812969288015
C           -2.88647473491505       -1.82481742203505        0.55532725028486
C           -3.42957119046600       -3.03708643391502        1.07144077426852
C           -2.56554116897268       -4.05163206062996        1.47224949753889
C           -1.21480230529903       -3.87194893019940        1.36526278308340
C           -0.64371078716139       -2.65739427782615        0.85442357900485
C           -1.53037563570439       -1.64339115447413        0.43778471369754
C            0.75801129247240       -2.62300982468614        0.87114902472509
C            1.60445626107928       -1.57892686090046        0.44597315618956
C            2.96415594409749       -1.68539206225046        0.60829300116761
N            3.79162755382212       -0.62332763612275        0.23693001215849
C            3.53848962392288        0.71094024636621        0.48308231213812
C            2.51417038376767        1.31267495430489        1.20168765674173
C            2.50752923242773        2.68932351416763        1.29277445677601
C            3.49117961895982        3.49645314106116        0.70560477089251
C            3.37329618189490        5.00672540419326        0.83402684659358
C            3.39983732799743        5.39149370754662        2.32026044628801
C            2.04795440178191        5.45867517662706        0.20287824678938
C            4.51214799623685        5.74867299588858        0.12942872437787
C            4.54035698754657        2.88055247570885        0.03458809871863
C            4.57034474954692        1.49925360194643       -0.07314330972548
C            5.49739957630664        0.58032764016057       -0.68205827852789
C            6.67979384443997        0.75659913487378       -1.38191436853956
C            7.35242802882620       -0.34954378691907       -1.88703598898332
C            8.66112906225721       -0.23217346254437       -2.65145393194333
C            9.14602599585220        1.21523636675570       -2.77169202139150
C            8.46847480759146       -0.79052080766276       -4.06884758855754
C            9.74291632664065       -1.03768901713582       -1.91728144576396
C            6.79239374084949       -1.61958414982914       -1.69327806818823
C            5.61418270388763       -1.82312775069411       -1.00418352527880
C            4.97285425255150       -0.71441302631689       -0.46855254308527
C            3.54936752622364       -2.84795243215375        1.19202909815672
C            2.72768176022381       -3.90149433028991        1.58031409261426
C            1.37457982443312       -3.80081405118008        1.41552602630472
S            0.10310942190891       -4.98368951956559        1.82044442860315
O            0.15300821702131       -6.12906496470957        0.94334388046725
O            0.08248491943161       -5.26636455444684        3.23605988773184
H           -8.34068437175427        1.70629494279626       -3.36516086773870
H           -9.29545294690281        1.36582029735493       -1.90960323564412
H           -9.96094258658542        1.03637455442904       -3.50453702521409
H           -9.25366076726685       -2.36516662529110       -2.28637384656498
H           -9.76693492272211       -1.04078022641412       -1.24364540838957
H          -10.49007650996504       -1.24118609844107       -2.84213588230556
H           -7.85781156536604       -1.86831988623119       -4.36921783827612
H           -9.08786420852553       -0.74058368570431       -4.93239540301556
H           -7.41507869906140       -0.20545123250828       -4.74731160976757
H           -7.03528521689130       -2.62659853686269       -2.42543158083362
H           -4.99101669680276       -2.94546238279596       -1.14154909244983
H           -7.06041676514184        1.56103589871009       -1.50716265480876
H           -5.51047363893415        3.24380374313335       -0.13858528249469
H           -4.84448528399948        4.55157890900020        3.20698276655045
H           -3.09920740665026        4.52477542627660        3.44285400323173
H           -3.91553249788176        6.05020585205398        3.10765603404211
H           -2.22499003742218        5.19547326468647       -0.14478870525190
H           -2.37648133478353        6.45003692380276        1.08872486542011
H           -1.54776295311815        4.94334330155253        1.46239785228535
H           -4.75847020002545        5.40339164525680       -0.43658584861625
H           -5.82086388480577        5.17396137116110        0.96480520843438
H           -4.77664093000581        6.58511227868900        0.86782353838005
H           -1.97726542629635        2.93499641822437        2.26877541815460
H           -1.85731807029598        0.53729236720216        1.87117158556630
H           -4.49468314882486       -3.12864351898067        1.20391385756478
H           -2.95458595159515       -4.97522169766766        1.87261315060084
H           -1.14361899142570       -0.72820101921186        0.01644986072866
H            1.18402481285960       -0.70613332467670       -0.02905004649919
H            1.75064024942819        0.72644603442073        1.68871047208845
H            1.70460518914273        3.15235951121247        1.84508298475689
H            3.33845696145737        6.47234082215120        2.42703044375407
H            4.32506106161293        5.05098370534795        2.78024719552169
H            2.56827996678867        4.94908844175971        2.86133329098030
H            2.01629621480961        5.17635736408034       -0.84736402000249
H            1.19416637330130        5.00812152325988        0.70075490540029
H            1.95010882135978        6.53977962146414        0.27277182075055
H            4.52828202473286        5.52163773991497       -0.93405837519813
H            4.36859530061642        6.82139877698437        0.24106170295352
H            5.47518643300914        5.49321281082568        0.56521455463970
H            5.33871795448989        3.45251579395318       -0.40755786451702
H            7.05378477325228        1.75651596503257       -1.52462462870057
H            8.43039575217831        1.82455670128599       -3.31888091660396
H           10.08805354780812        1.23658335213320       -3.31565111292847
H            9.31552127658189        1.65432577970878       -1.79122327429439
H            8.19083982228804       -1.84044648453627       -4.04901706138645
H            7.68524452486318       -0.24053623212186       -4.58643172554811
H            9.39141972618788       -0.69363871188032       -4.63641631985983
H           10.69299206915626       -0.94936886615622       -2.43967354990662
H            9.48443791135380       -2.09106051040478       -1.85899485644804
H            9.86953219880126       -0.66096048397293       -0.90442680459823
H            7.29064727190437       -2.48457588286748       -2.10242243390736
H            5.20136879047425       -2.81438976282429       -0.90070901068685
H            4.61019993240142       -2.87372645819798        1.37670434719941
H            3.15122027945716       -4.79418947381907        2.01441371856857

 projected vibrational frequencies (cm⁻¹)
eigval :       -0.00    -0.00    -0.00     0.00     0.00     0.00
eigval :        5.59     8.07    11.05    22.78    24.39    24.83
eigval :       29.48    29.92    31.95    32.67    54.26    58.39
eigval :       60.07    70.49    71.19    75.15    81.40    96.73
eigval :      100.87   110.77   119.17   136.33   148.33   151.84
eigval :      157.94   162.69   167.47   170.41   172.69   183.64
eigval :      185.42   200.27   200.97   203.72   210.30   216.18
eigval :      217.90   222.68   223.12   229.18   229.69   237.14
eigval :      256.78   256.91   265.65   269.04   279.47   282.69
eigval :      308.70   309.11   317.44   317.54   321.84   322.14
eigval :      326.01   332.47   338.34   338.92   341.73   351.54
eigval :      356.79   357.65   360.91   363.26   367.15   371.83
eigval :      385.78   392.93   397.32   404.45   405.23   406.10
eigval :      419.05   431.02   441.04   441.35   441.64   442.74
eigval :      459.51   464.85   465.76   466.23   471.18   472.65
eigval :      504.09   514.36   519.34   524.39   531.19   533.44
eigval :      544.24   575.13   578.83   587.17   589.58   590.35
eigval :      590.84   602.22   613.81   631.91   639.08   641.64
eigval :      641.81   650.50   675.29   683.69   691.78   691.85
eigval :      705.15   708.91   710.14   717.14   719.02   738.02
eigval :      738.37   749.55   802.14   818.47   820.63   826.23
eigval :      826.66   830.77   834.35   842.83   847.87   868.45
eigval :      868.55   870.63   872.32   872.50   873.09   885.98
eigval :      886.35   913.02   916.34   916.39   917.04   919.79
eigval :      923.90   925.48   931.48   937.33   959.34   959.66
eigval :      960.07   960.16   961.26   962.45   962.51   962.80
eigval :      963.10   963.15   963.22   963.50   978.91   983.41
eigval :     1005.47  1029.23  1030.32  1032.97  1034.13  1034.18
eigval :     1034.60  1034.92  1035.13  1037.93  1041.07  1043.44
eigval :     1097.52  1099.63  1104.06  1127.42  1127.76  1130.80
eigval :     1131.38  1140.29  1142.21  1161.18  1162.89  1186.94
eigval :     1193.27  1195.14  1213.36  1221.68  1225.29  1225.66
eigval :     1225.71  1225.79  1227.53  1227.73  1229.98  1230.28
eigval :     1230.66  1231.24  1233.26  1233.75  1252.17  1252.77
eigval :     1269.28  1277.28  1285.19  1290.30  1291.59  1292.99
eigval :     1294.96  1312.74  1313.24  1331.76  1336.80  1339.81
eigval :     1341.67  1348.58  1350.66  1351.43  1372.13  1389.25
eigval :     1400.87  1401.23  1402.87  1403.78  1403.83  1404.69
eigval :     1404.79  1404.95  1409.73  1410.03  1426.76  1427.79
eigval :     1428.00  1428.06  1436.62  1438.03  1461.67  1461.70
eigval :     1467.41  1472.36  1477.46  1479.33  1488.63  1489.14
eigval :     1489.34  1489.38  1490.68  1491.25  1491.57  1491.65
eigval :     1492.89  1497.08  1497.89  1498.02  1499.25  1501.48
eigval :     1502.50  1502.54  1502.92  1511.86  1512.09  1513.46
eigval :     1513.54  1516.84  1517.25  1517.76  1518.20  1521.15
eigval :     1533.02  1559.25  1559.90  1570.79  1572.01  1576.97
eigval :     1577.30  1597.46  1600.56  3024.09  3024.21  3024.34
eigval :     3024.45  3026.15  3026.23  3026.28  3026.57  3028.15
eigval :     3028.23  3028.56  3028.72  3031.70  3031.84  3032.07
eigval :     3032.70  3032.75  3032.85  3033.00  3033.33  3036.35
eigval :     3036.43  3036.73  3037.20  3039.63  3039.70  3039.96
eigval :     3040.24  3047.34  3048.82  3049.65  3049.88  3050.57
eigval :     3052.13  3053.01  3053.17  3086.61  3088.80  3089.24
eigval :     3090.79  3091.09  3091.97  3092.27  3094.08  3099.24
eigval :     3100.66  3101.88  3102.40  3111.75  3112.86  3118.10
eigval :     3118.14  3121.15  3121.27

   temp. (K)  partition function   enthalpy   heat capacity  entropy
                                   cal/mol     cal/K/mol   cal/K/mol   J/K/mol
 298.15  VIB  0.295E+26            32860.755    201.857    203.716
         ROT  0.185E+09              888.752      2.981     40.811
         INT  0.545E+34            33749.508    204.838    244.527
         TR   0.207E+29             1481.254      4.968     45.786
         TOT                       35230.7616   209.8065   290.3132  1214.6705

       T/K    H(0)-H(T)+PV         H(T)/Eh          T*S/Eh         G(T)/Eh
   ------------------------------------------------------------------------
    298.15    0.561438E-01    0.964454E+00    0.137937E+00    0.826517E+00
   ------------------------------------------------------------------------

         :::::::::::::::::::::::::::::::::::::::::::::::::::::
         ::                  THERMODYNAMIC                  ::
         :::::::::::::::::::::::::::::::::::::::::::::::::::::
         :: total free energy        -155.337185412040 Eh   ::
         ::.................................................::
         :: total energy             -156.163702297503 Eh   ::
         :: zero point energy           0.908310265204 Eh   ::
         :: G(RRHO) w/o ZPVE           -0.081793379741 Eh   ::
         :: G(RRHO) contrib.            0.826516885462 Eh   ::
         :::::::::::::::::::::::::::::::::::::::::::::::::::::

           -------------------------------------------------
          | TOTAL ENERGY             -156.163702297503 Eh   |
          | TOTAL ENTHALPY           -155.199248240029 Eh   |
          | TOTAL FREE ENERGY        -155.337185412040 Eh   |
          | GRADIENT NORM               0.000085365253 Eh/α |
           -------------------------------------------------

 * finished run on 2025/09/04 at 16:20:02.905
