   * xtb version 6.7.1 (edcfbbe) compiled by 'albert@albert-system' on 2024-07-22

   ID    Z sym.   atoms
    1    6 C      1-6, 8-19, 21, 22, 24, 26-33, 35-45
    2    8 O      7, 34
    3    7 N      20, 23, 25, 46
    4    1 H      47-68

          program call               : xtb data2507/gas/BFCZPZ2/BFCZPZ2_gas_S0_crest.xyz --gfn 2 --ohess vtight --parallel 40 --molden --ceasefiles --namespace data2507/gas/BFCZPZ2/BFCZPZ2_gas_S0_finalOpt
          :  Hamiltonian                  GFN2-xTB          :
 * total energy  :  -116.8325864 Eh     change       -0.2023725E-08 Eh
 * total energy  :  -116.8325892 Eh     change       -0.2747305E-05 Eh
 * total energy  :  -116.8325921 Eh     change       -0.2952969E-05 Eh
 * total energy  :  -116.8325966 Eh     change       -0.4501044E-05 Eh
 * total energy  :  -116.8326024 Eh     change       -0.5806479E-05 Eh
 * total energy  :  -116.8326080 Eh     change       -0.5596945E-05 Eh
 * total energy  :  -116.8326131 Eh     change       -0.5088694E-05 Eh
 * total energy  :  -116.8326185 Eh     change       -0.5440441E-05 Eh
 * total energy  :  -116.8326257 Eh     change       -0.7171643E-05 Eh
 * total energy  :  -116.8326362 Eh     change       -0.1046281E-04 Eh
 * total energy  :  -116.8327467 Eh     change       -0.1772175E-05 Eh
 * total energy  :  -116.8327481 Eh     change       -0.1403494E-05 Eh
 * total energy  :  -116.8327492 Eh     change       -0.1141248E-05 Eh
 * total energy  :  -116.8327502 Eh     change       -0.9650097E-06 Eh
 * total energy  :  -116.8327510 Eh     change       -0.8371248E-06 Eh
 * total energy  :  -116.8327518 Eh     change       -0.7750340E-06 Eh
 * total energy  :  -116.8327526 Eh     change       -0.8029942E-06 Eh
 * total energy  :  -116.8327535 Eh     change       -0.8703219E-06 Eh
 * total energy  :  -116.8327535 Eh     change       -0.7377281E-08 Eh
   *** GEOMETRY OPTIMIZATION CONVERGED AFTER 44 ITERATIONS ***

 final structure:
================
68
 xtb: 6.7.1 (edcfbbe)
C          -10.16235437244803       -1.15048632099092        1.53384881053064
C           -9.45150746403558       -2.16741292499821        2.16578306663182
C           -8.07378700529591       -2.23089224439328        2.09321372241836
C           -7.40610944775196       -1.25095954245998        1.37029823963797
C           -8.13979858012010       -0.22791284438278        0.73634846454041
C           -9.51900279531364       -0.16315371302202        0.80846772578552
O           -7.32157732601698        0.63858380289810        0.07475472852490
C           -6.05746875909198        0.18400070889605        0.26757508452977
C           -6.02832785660305       -0.97695292511321        1.06195123419616
C           -4.81680145195107       -1.57835407268689        1.40141631151442
C           -3.63349356601375       -1.05454090494549        0.92416412323227
C           -3.66972892796260        0.06928282230136        0.09799747589173
C           -4.87828039204057        0.73140727799048       -0.21509793263808
C           -4.54196452918683        1.89431906796470       -0.98318708170598
C           -5.30539736060160        2.90136750843061       -1.55743294079666
C           -4.65258825821534        3.90324913150681       -2.24747035924320
C           -3.26519576447668        3.90113064279713       -2.36856807912914
C           -2.48813511315839        2.90626587200098       -1.80345778397141
C           -3.13669003363591        1.90163310672886       -1.10376494588833
N           -2.61830038297166        0.77536031428949       -0.47099128875317
C           -1.29355964255323        0.38372227724091       -0.50928581478371
C           -0.90360637876056       -0.95979077966939       -0.58570034631712
N            0.36338642797599       -1.31184553576496       -0.57851622456755
C            1.29228646890866       -0.35385241501002       -0.52370047897997
N            2.61658971187650       -0.74814338454793       -0.50011214400150
C            3.12782673717244       -1.86607859728263       -1.15329837314673
C            2.47319517334369       -2.85376680083760       -1.87129344007908
C            3.24402461952813       -3.84328022992931       -2.45401899402690
C            4.63132840433729       -3.85657228773248       -2.33269686772210
C            5.29027380225421       -2.87139426147805       -1.62471598289190
C            4.53305299763507       -1.87000776786967       -1.03260983309100
C            4.87662219492883       -0.72359758137255       -0.24333787118759
C            6.05926380803046       -0.19464379779410        0.25115478043465
O            7.31983907978240       -0.65647266130705        0.05263391293319
C            8.14373366692441        0.18939436351397        0.73355094948148
C            9.52196814061422        0.10992152543917        0.80928279353929
C           10.17196445424839        1.07620428453469        1.55673659988345
C            9.46842931529550        2.08705230840854        2.20634812632888
C            8.09166859010394        2.16537604524912        2.12991062997514
C            7.41735136227829        1.20657760612697        1.38513769031100
C            6.03806026545128        0.95106525725221        1.06756820211031
C            4.83069012847431        1.55584847767896        1.41574342956485
C            3.64397303620390        1.05011321937662        0.92742648328861
C            3.67244586037492       -0.05903564476128        0.08136604665364
C            0.90201213876616        0.99085380264501       -0.57121344477136
N           -0.36509007044059        1.34272491935425       -0.55016782232890
H          -11.23897966300704       -1.13168334138383        1.61068206083616
H           -9.99132718403679       -2.91933190284011        2.72182334294051
H           -7.52488454342678       -3.02043374180014        2.58317354934818
H          -10.06314217948832        0.62682420656196        0.31620950468411
H           -4.80801642800393       -2.44649800096815        2.04156001325482
H           -2.69505224573540       -1.49903904264887        1.21481173436914
H           -6.37980743228090        2.88863430746488       -1.45967091833597
H           -5.22173123760846        4.70089089615278       -2.70112912043194
H           -2.78239302603481        4.69761230024489       -2.91513303171758
H           -1.41455425839696        2.91437572771956       -1.89301939558666
H           -1.61816791444047       -1.76200261759896       -0.69918413039589
H            1.39964625121642       -2.85366392300186       -1.96135845790718
H            2.75621293787815       -4.62667310813098       -3.01486870326551
H            5.19544605907812       -4.64968518213898       -2.80035279354145
H            6.36470678452692       -2.86721874006377       -1.52649659786092
H           10.06032469888557       -0.67540731251812        0.30340807110239
H           11.24803699790211        1.04529140821368        1.63732508857586
H           10.01327127677177        2.82229735316364        2.77952890906184
H            7.54852775362801        2.95019603935031        2.63368069334424
H            4.82762080397192        2.41218913443910        2.07165582906968
H            2.70875334458920        1.49674545923034        1.22503394898362
H            1.61589280175471        1.79529729236334       -0.67252541223368

          :  Hamiltonian                  GFN2-xTB          :
         :: gradient norm              0.000067806620 Eh/a0 ::
         :: HOMO-LUMO gap              2.238854603862 eV    ::
         :: SCC energy              -118.860944697373 Eh    ::
         :: -> dispersion             -0.096569109456 Eh    ::
         :: repulsion energy           2.028191212978 Eh    ::

    * Orbital Energies and Occupations

         #    Occupation            Energy/Eh            Energy/eV
      -------------------------------------------------------------
         1        2.0000           -0.7357482             -20.0207
       ...           ...                  ...                  ...
        95        2.0000           -0.4234538             -11.5228
        96        2.0000           -0.4214233             -11.4675
        97        2.0000           -0.4206171             -11.4456
        98        2.0000           -0.4175491             -11.3621
        99        2.0000           -0.4034020             -10.9771
       100        2.0000           -0.4031907             -10.9714
       101        2.0000           -0.3991872             -10.8624
       102        2.0000           -0.3966636             -10.7938
       103        2.0000           -0.3824369             -10.4066
       104        2.0000           -0.3788122             -10.3080
       105        2.0000           -0.3787393             -10.3060
       106        2.0000           -0.3665399              -9.9741
       107        2.0000           -0.3650078              -9.9324 (HOMO)
       108                         -0.2827315              -7.6935 (LUMO)
       109                         -0.2669595              -7.2643
       110                         -0.2553615              -6.9487
       111                         -0.2459995              -6.6940
       112                         -0.2443657              -6.6495
       113                         -0.2439432              -6.6380
       114                         -0.2181453              -5.9360
       115                         -0.2174304              -5.9166
       116                         -0.2165569              -5.8928
       117                         -0.2150666              -5.8523
       118                         -0.1980557              -5.3894
       ...                                ...                  ...
       206                          0.7610514              20.7093
      -------------------------------------------------------------
                  HL-Gap            0.0822764 Eh            2.2389 eV

     #   Z          covCN         q      C6AA      α(0)
     1   6 C        2.926    -0.033    28.828     8.805
     2   6 C        2.921    -0.038    28.948     8.823
     3   6 C        2.913    -0.034    28.857     8.809
     4   6 C        3.060    -0.018    28.394     8.738
     5   6 C        3.107     0.127    25.087     8.206
     6   6 C        2.908    -0.052    29.279     8.873
     7   8 O        1.714    -0.218    17.625     5.668
     8   6 C        3.102     0.127    25.090     8.208
     9   6 C        3.052    -0.029    28.676     8.782
    10   6 C        2.915    -0.037    28.916     8.818
    11   6 C        2.911    -0.059    29.477     8.903
    12   6 C        3.056     0.041    27.027     8.526
    13   6 C        3.063    -0.032    28.745     8.792
    14   6 C        3.063    -0.008    28.144     8.699
    15   6 C        2.912    -0.031    28.784     8.798
    16   6 C        2.921    -0.037    28.913     8.818
    17   6 C        2.925    -0.031    28.781     8.798
    18   6 C        2.910    -0.045    29.128     8.850
    19   6 C        3.067     0.051    26.792     8.487
    20   7 N        2.805    -0.035    21.923     6.954
    21   6 C        2.891     0.132    25.103     8.215
    22   6 C        2.898     0.036    27.185     8.549
    23   7 N        1.848    -0.229    26.851     7.680
    24   6 C        2.891     0.132    25.104     8.215
    25   7 N        2.805    -0.035    21.921     6.954
    26   6 C        3.067     0.051    26.792     8.487
    27   6 C        2.910    -0.045    29.127     8.850
    28   6 C        2.925    -0.031    28.781     8.798
    29   6 C        2.921    -0.037    28.913     8.818
    30   6 C        2.912    -0.031    28.784     8.798
    31   6 C        3.063    -0.008    28.144     8.699
    32   6 C        3.063    -0.032    28.745     8.792
    33   6 C        3.102     0.127    25.090     8.208
    34   8 O        1.714    -0.218    17.624     5.668
    35   6 C        3.107     0.127    25.087     8.206
    36   6 C        2.908    -0.052    29.280     8.873
    37   6 C        2.926    -0.033    28.828     8.805
    38   6 C        2.921    -0.038    28.949     8.823
    39   6 C        2.913    -0.034    28.857     8.809
    40   6 C        3.060    -0.018    28.394     8.738
    41   6 C        3.052    -0.029    28.676     8.782
    42   6 C        2.915    -0.037    28.916     8.818
    43   6 C        2.911    -0.059    29.477     8.903
    44   6 C        3.056     0.041    27.026     8.526
    45   6 C        2.898     0.036    27.186     8.549
    46   7 N        1.848    -0.229    26.851     7.680
    47   1 H        0.926     0.039     2.464     2.455
    48   1 H        0.926     0.036     2.501     2.473
    49   1 H        0.926     0.037     2.489     2.467
    50   1 H        0.926     0.046     2.373     2.409
    51   1 H        0.926     0.042     2.424     2.435
    52   1 H        0.926     0.037     2.493     2.469
    53   1 H        0.926     0.044     2.399     2.422
    54   1 H        0.926     0.034     2.536     2.490
    55   1 H        0.926     0.035     2.514     2.479
    56   1 H        0.926     0.052     2.298     2.371
    57   1 H        0.926     0.052     2.293     2.368
    58   1 H        0.926     0.052     2.299     2.371
    59   1 H        0.926     0.035     2.514     2.480
    60   1 H        0.926     0.034     2.536     2.490
    61   1 H        0.926     0.044     2.399     2.422
    62   1 H        0.926     0.046     2.373     2.409
    63   1 H        0.926     0.039     2.465     2.455
    64   1 H        0.926     0.036     2.501     2.473
    65   1 H        0.926     0.037     2.489     2.467
    66   1 H        0.926     0.042     2.424     2.435
    67   1 H        0.926     0.037     2.493     2.469
    68   1 H        0.926     0.052     2.293     2.368

molecular dipole:
                 x           y           z       tot (Debye)
 q only:        0.000      -0.001       0.069
   full:       -0.000      -0.001       0.120       0.305

 projected vibrational frequencies (cm⁻¹)
eigval :       -0.00    -0.00    -0.00     0.00     0.00     0.00
eigval :        9.12    15.94    17.52    38.74    41.30    58.08
eigval :       58.57    83.24    83.45    96.98   105.94   113.61
eigval :      131.06   131.90   136.02   149.02   161.99   169.01
eigval :      214.08   232.53   238.58   259.54   263.16   269.07
eigval :      277.32   308.25   311.34   318.87   340.25   351.82
eigval :      363.88   391.34   401.07   401.84   407.59   409.12
eigval :      430.37   435.32   437.85   440.42   452.29   481.18
eigval :      494.26   499.87   503.20   518.16   537.64   538.40
eigval :      543.39   543.63   557.18   557.27   563.75   566.48
eigval :      591.78   594.73   611.97   621.36   623.93   634.12
eigval :      646.77   669.20   672.77   681.29   681.58   702.66
eigval :      704.86   705.59   711.60   711.73   712.51   729.47
eigval :      754.85   777.55   777.57   778.23   778.44   818.73
eigval :      821.53   828.39   834.53   844.66   848.69   857.68
eigval :      861.68   867.19   871.68   871.69   875.04   875.24
eigval :      887.64   902.47   902.56   906.56   906.61   907.73
eigval :      913.93   921.90   923.15   923.21   924.03   924.08
eigval :      942.83  1000.66  1004.15  1022.32  1060.75  1062.07
eigval :     1063.12  1064.70  1076.22  1078.88  1100.50  1104.14
eigval :     1135.39  1135.51  1148.86  1149.74  1174.14  1174.62
eigval :     1176.57  1176.81  1186.80  1188.19  1204.25  1205.21
eigval :     1212.07  1212.59  1225.69  1233.55  1244.18  1247.21
eigval :     1250.07  1252.18  1278.40  1279.37  1285.74  1295.90
eigval :     1299.35  1308.39  1318.44  1353.46  1353.71  1354.79
eigval :     1357.48  1377.52  1385.96  1392.26  1400.70  1405.56
eigval :     1412.00  1415.32  1423.35  1424.90  1439.03  1443.91
eigval :     1455.93  1457.20  1476.04  1476.12  1484.07  1484.69
eigval :     1498.12  1569.21  1570.38  1571.85  1582.12  1583.28
eigval :     1592.51  1592.56  1600.04  1600.42  1610.23  1610.31
eigval :     1625.75  1626.12  3072.17  3073.76  3080.58  3080.58
eigval :     3082.04  3082.07  3089.93  3089.94  3090.27  3090.32
eigval :     3095.96  3096.00  3098.00  3098.07  3102.11  3102.20
eigval :     3107.32  3107.43  3107.82  3107.83  3118.60  3118.78

   temp. (K)  partition function   enthalpy   heat capacity  entropy
                                   cal/mol     cal/K/mol   cal/K/mol   J/K/mol
 298.15  VIB  0.426E+14            18896.356    126.033    114.940
         ROT  0.455E+08              888.752      2.981     38.021
         INT  0.193E+22            19785.109    129.014    152.961
         TR   0.139E+29             1481.254      4.968     44.992
         TOT                       21266.3626   133.9821   197.9521   828.2317

       T/K    H(0)-H(T)+PV         H(T)/Eh          T*S/Eh         G(T)/Eh
   ------------------------------------------------------------------------
    298.15    0.338901E-01    0.535167E+00    0.940534E-01    0.441113E+00
   ------------------------------------------------------------------------

         :::::::::::::::::::::::::::::::::::::::::::::::::::::
         ::                  THERMODYNAMIC                  ::
         :::::::::::::::::::::::::::::::::::::::::::::::::::::
         :: total free energy        -116.391639987314 Eh   ::
         ::.................................................::
         :: total energy             -116.832753484395 Eh   ::
         :: zero point energy           0.501276834631 Eh   ::
         :: G(RRHO) w/o ZPVE           -0.060163337549 Eh   ::
         :: G(RRHO) contrib.            0.441113497081 Eh   ::
         :::::::::::::::::::::::::::::::::::::::::::::::::::::

           -------------------------------------------------
          | TOTAL ENERGY             -116.832753484395 Eh   |
          | TOTAL ENTHALPY           -116.297586543816 Eh   |
          | TOTAL FREE ENERGY        -116.391639987314 Eh   |
          | GRADIENT NORM               0.000067807241 Eh/α |
          | HOMO-LUMO GAP               2.238854726615 eV   |
           -------------------------------------------------

 * finished run on 2025/08/21 at 18:52:20.202
