   * xtb version 6.7.1 (edcfbbe) compiled by 'albert@albert-system' on 2024-07-22

   ID    Z sym.   atoms
    1    6 C      1-6, 8-19, 21, 22, 24, 26-33, 35-45
    2    8 O      7, 34
    3    7 N      20, 23, 25, 46
    4    1 H      47-68

          program call               : xtb data2507/gas/BFCZPZ2/BFCZPZ2_gas_S0_finalOpt.xtbopt.xyz --gfn 2 --spinpol --tblite --uhf 2 --ohess vtight --parallel 40 --molden --ceasefiles --namespace data2507/gas/BFCZPZ2/BFCZPZ2_gas_T1_preOpt
 * total energy  :  -116.7512891 Eh     change       -0.6247220E-08 Eh
 * total energy  :  -116.7541812 Eh     change       -0.2892022E-02 Eh
 * total energy  :  -116.7547866 Eh     change       -0.6054828E-03 Eh
 * total energy  :  -116.7548834 Eh     change       -0.9678134E-04 Eh
 * total energy  :  -116.7549553 Eh     change       -0.7188324E-04 Eh
 * total energy  :  -116.7549770 Eh     change       -0.2169415E-04 Eh
 * total energy  :  -116.7550128 Eh     change       -0.3581116E-04 Eh
 * total energy  :  -116.7550306 Eh     change       -0.1775035E-04 Eh
 * total energy  :  -116.7550596 Eh     change       -0.2902320E-04 Eh
 * total energy  :  -116.7550795 Eh     change       -0.1995485E-04 Eh
 * total energy  :  -116.7556333 Eh     change       -0.4640903E-06 Eh
 * total energy  :  -116.7556338 Eh     change       -0.4711271E-06 Eh
 * total energy  :  -116.7556343 Eh     change       -0.4780733E-06 Eh
 * total energy  :  -116.7556347 Eh     change       -0.4307788E-06 Eh
 * total energy  :  -116.7556351 Eh     change       -0.3577395E-06 Eh
 * total energy  :  -116.7556354 Eh     change       -0.3145907E-06 Eh
 * total energy  :  -116.7556357 Eh     change       -0.2705474E-06 Eh
 * total energy  :  -116.7556359 Eh     change       -0.2426650E-06 Eh
 * total energy  :  -116.7556359 Eh     change       -0.5425719E-08 Eh
   *** GEOMETRY OPTIMIZATION CONVERGED AFTER 68 ITERATIONS ***

 final structure:
================
68
 xtb: 6.7.1 (edcfbbe)
C          -10.10925514792335       -1.08041915761425        1.83622648541099
C           -9.36538353025501       -2.00626538346741        2.56319312430149
C           -7.98932034105958       -2.05966474319182        2.46028951838919
C           -7.35636733529254       -1.16259408722946        1.60865872964491
C           -8.12401893856068       -0.23118907716416        0.87943877790372
C           -9.50121324657020       -0.17678413534650        0.98174216076072
O           -7.33713412355178        0.56325625521434        0.09933705421022
C           -6.06095601965666        0.15462530091570        0.31190356957914
C           -5.99263372518625       -0.90754531657390        1.23527984123737
C           -4.76404537706420       -1.45640331488085        1.60894572929787
C           -3.60110652232903       -0.97320578873131        1.04946121357681
C           -3.67625318324056        0.05919986377926        0.11215355094044
C           -4.90390027487110        0.66096608223994       -0.25879832194209
C           -4.59681877135155        1.71666384277879       -1.17849819050891
C           -5.36899081391755        2.64859336233712       -1.85708704248925
C           -4.72878636015695        3.55319505834439       -2.68277953976740
C           -3.34342295455243        3.53711412383300       -2.83243106219198
C           -2.55603711176249        2.61542657492685       -2.16751427303540
C           -3.19253781353309        1.70855940913546       -1.33475952805342
N           -2.65200572733492        0.69869715519433       -0.55729098847270
C           -1.31258033001121        0.34394468940001       -0.55438323908370
C           -0.90952303312423       -0.96968714589488       -0.63148372622757
N            0.37750301072428       -1.32947042569883       -0.57414862470366
C            1.31178051194341       -0.34184210335290       -0.56425946475894
N            2.65142327538670       -0.69563444974062       -0.57745442468413
C            3.19268016135888       -1.68295521627450       -1.38287878989795
C            2.55649718730767       -2.56868517033564       -2.23829928511375
C            3.34461691105644       -3.47025772419863       -2.92941406141847
C            4.73034478729128       -3.48695757915038       -2.78318992248848
C            5.37021010650799       -2.60331763198257       -1.93484605045332
C            4.59732093717479       -1.69182320301345       -1.22981660681605
C            4.90391743991726       -0.66036482510625       -0.28283920715255
C            6.06101071395868       -0.16602372251567        0.29826137022196
O            7.33785740480566       -0.56477333494964        0.07140654624513
C            8.12449538227788        0.21136412676431        0.86998536864813
C            9.50218345341720        0.15908951861368        0.96663254130914
C           10.10981342401097        1.04197235060671        1.84283104648950
C            9.36508195922009        1.94567536553940        2.59630108039175
C            7.98853250132720        1.99696989998502        2.49903197113816
C            7.35599711284658        1.12053672667732        1.62587398643068
C            5.99201531277806        0.87102751511346        1.24972033872134
C            4.76285187794126        1.40606701907205        1.64111728439654
C            3.59988823018631        0.93472678414028        1.07169208058246
C            3.67561376621713       -0.07190532693755        0.10679863480231
C            0.90868737071441        0.97337006047131       -0.60660416566813
N           -0.37823524876923        1.33148463400101       -0.53893017759662
H          -11.18360077788371       -1.06652549050963        1.94064911151414
H           -9.87807613608478       -2.69415205113736        3.21886061364418
H           -7.41477839741531       -2.77821156070140        3.02439581507908
H          -10.07116354137317        0.54249026959938        0.41583880790388
H           -4.73070172758134       -2.25136954465060        2.33715572743088
H           -2.64456486104701       -1.37288326576263        1.34740018319711
H           -6.44079740527522        2.65848444760157       -1.73314726083516
H           -5.30831363348825        4.28682212827397       -3.22306145737946
H           -2.87478368786365        4.25835650550407       -3.48519150033882
H           -1.48353993280654        2.60316507198190       -2.28144378159632
H           -1.63254752289075       -1.76287418505882       -0.73452253930130
H            1.48371655785434       -2.55593384551891       -2.34951664735082
H            2.87629009128675       -4.17483614656878       -3.60034437926088
H            5.31044264118131       -4.20435537206745       -3.34425124130813
H            6.44230668904105       -2.61392239867228       -1.81351521884854
H           10.07282703481452       -0.54293590409140        0.38014154561766
H           11.18452907356419        1.02914116509062        1.94351352081063
H            9.87748082870696        2.61780673596305        3.26833357663016
H            7.41330092148208        2.69836153113776        3.08365147025452
H            4.72913817863654        2.18113363144330        2.39044967644871
H            2.64296003466479        1.32354572890887        1.38248285444957
H            1.63168712875647        1.76896238733613       -0.68925915779604

 projected vibrational frequencies (cm⁻¹)
eigval :       -0.00    -0.00    -0.00    -0.00     0.00     0.00
eigval :        8.43    16.61    16.77    36.37    40.28    58.97
eigval :       59.11    78.97    81.66    84.71   100.34   110.65
eigval :      131.09   131.48   133.55   151.29   155.82   157.01
eigval :      204.35   229.07   237.59   258.40   261.39   263.02
eigval :      275.90   304.03   308.73   317.35   332.05   333.65
eigval :      348.05   364.00   386.55   400.60   404.96   406.88
eigval :      430.13   431.70   435.51   440.15   450.37   482.60
eigval :      490.16   501.82   502.68   523.18   533.78   538.98
eigval :      540.66   544.11   547.84   555.71   556.51   564.68
eigval :      567.14   596.54   599.24   603.56   617.06   621.71
eigval :      630.07   651.36   664.79   669.76   679.79   680.15
eigval :      697.78   702.69   702.76   710.62   710.71   710.83
eigval :      739.63   748.65   774.20   774.52   776.16   776.90
eigval :      780.99   822.34   825.51   827.14   831.87   841.31
eigval :      846.16   858.91   863.35   869.42   869.81   870.90
eigval :      870.90   891.38   901.11   901.41   902.54   902.82
eigval :      903.52   903.64   920.86   920.94   922.40   922.40
eigval :      934.24   971.57  1002.35  1004.37  1045.46  1056.36
eigval :     1062.07  1062.18  1068.09  1072.53  1092.44  1097.74
eigval :     1098.28  1129.93  1132.45  1144.35  1144.80  1167.60
eigval :     1172.76  1173.95  1175.39  1179.56  1184.92  1193.95
eigval :     1195.07  1204.57  1206.22  1211.31  1221.60  1243.74
eigval :     1248.89  1250.09  1258.71  1276.65  1276.69  1285.83
eigval :     1294.17  1300.70  1304.71  1311.88  1353.57  1353.61
eigval :     1355.19  1356.16  1357.00  1368.36  1383.87  1399.68
eigval :     1400.00  1409.12  1409.30  1413.54  1418.56  1432.43
eigval :     1432.72  1455.48  1455.84  1474.71  1474.77  1480.88
eigval :     1481.07  1507.39  1560.31  1564.06  1573.29  1573.52
eigval :     1587.16  1588.53  1591.62  1591.64  1604.23  1604.65
eigval :     1614.98  1616.97  3081.30  3081.31  3082.49  3082.50
eigval :     3087.42  3087.48  3090.01  3090.14  3090.59  3090.61
eigval :     3095.16  3095.21  3098.21  3098.35  3100.41  3100.49
eigval :     3102.63  3102.92  3105.76  3105.98  3107.75  3107.97

   temp. (K)  partition function   enthalpy   heat capacity  entropy
                                   cal/mol     cal/K/mol   cal/K/mol   J/K/mol
 298.15  VIB  0.858E+14            19194.088    127.595    117.026
         ROT  0.460E+08              888.752      2.981     38.045
         INT  0.395E+22            20082.841    130.576    155.070
         TR   0.139E+29             1481.254      4.968     44.992
         TOT                       21564.0946   135.5442   200.0619   837.0591

       T/K    H(0)-H(T)+PV         H(T)/Eh          T*S/Eh         G(T)/Eh
   ------------------------------------------------------------------------
    298.15    0.343646E-01    0.531975E+00    0.950559E-01    0.436919E+00
   ------------------------------------------------------------------------

         :::::::::::::::::::::::::::::::::::::::::::::::::::::
         ::                  THERMODYNAMIC                  ::
         :::::::::::::::::::::::::::::::::::::::::::::::::::::
         :: total free energy        -116.318717190324 Eh   ::
         ::.................................................::
         :: total energy             -116.755635916339 Eh   ::
         :: zero point energy           0.497610027211 Eh   ::
         :: G(RRHO) w/o ZPVE           -0.060691301196 Eh   ::
         :: G(RRHO) contrib.            0.436918726015 Eh   ::
         :::::::::::::::::::::::::::::::::::::::::::::::::::::

           -------------------------------------------------
          | TOTAL ENERGY             -116.755635916339 Eh   |
          | TOTAL ENTHALPY           -116.223661317048 Eh   |
          | TOTAL FREE ENERGY        -116.318717190324 Eh   |
          | GRADIENT NORM               0.000042814506 Eh/α |
           -------------------------------------------------

 * finished run on 2025/08/21 at 18:52:28.758
