   * xtb version 6.7.1 (edcfbbe) compiled by 'albert@albert-system' on 2024-07-22

   ID    Z sym.   atoms
    1    6 C      1-6, 8-19, 21, 22, 24, 26-33, 35-45
    2    8 O      7, 34
    3    7 N      20, 23, 25, 46
    4    1 H      47-68

          program call               : xtb data2507/gas/BFCZPZ2/BFCZPZ2.xyz --gfn 2 --ohess vtight --parallel 40 --molden --ceasefiles --namespace data2507/gas/BFCZPZ2/BFCZPZ2_gas_S0_preOpt
          :  Hamiltonian                  GFN2-xTB          :
 * total energy  :  -116.7909371 Eh     change       -0.9889334E-09 Eh
 * total energy  :  -116.8137662 Eh     change       -0.2282916E-01 Eh
 * total energy  :  -116.8209604 Eh     change       -0.7194225E-02 Eh
 * total energy  :  -116.8239137 Eh     change       -0.2953221E-02 Eh
 * total energy  :  -116.8266998 Eh     change       -0.2786187E-02 Eh
 * total energy  :  -116.8285663 Eh     change       -0.1866440E-02 Eh
 * total energy  :  -116.8298709 Eh     change       -0.1304600E-02 Eh
 * total energy  :  -116.8307443 Eh     change       -0.8734330E-03 Eh
 * total energy  :  -116.8312764 Eh     change       -0.5321188E-03 Eh
 * total energy  :  -116.8316069 Eh     change       -0.3304845E-03 Eh
 * total energy  :  -116.8323710 Eh     change       -0.2204111E-05 Eh
 * total energy  :  -116.8323731 Eh     change       -0.2081675E-05 Eh
 * total energy  :  -116.8323746 Eh     change       -0.1495267E-05 Eh
 * total energy  :  -116.8323754 Eh     change       -0.8460910E-06 Eh
 * total energy  :  -116.8323760 Eh     change       -0.5408821E-06 Eh
 * total energy  :  -116.8323764 Eh     change       -0.4232951E-06 Eh
 * total energy  :  -116.8323767 Eh     change       -0.3232049E-06 Eh
 * total energy  :  -116.8323769 Eh     change       -0.1653911E-06 Eh
 * total energy  :  -116.8323769 Eh     change       -0.6264555E-07 Eh
   *** GEOMETRY OPTIMIZATION CONVERGED AFTER 31 ITERATIONS ***

 final structure:
================
68
 xtb: 6.7.1 (edcfbbe)
C          -10.40010129444524       -1.02665547222892       -0.06833452568287
C           -9.82322181313062       -2.29101606464630        0.01759261034962
C           -8.45251273153695       -2.45126298854923        0.07075390558274
C           -7.65445491971785       -1.31522749651121        0.03655022538460
C           -8.25333389194391       -0.04224052477461       -0.05050882993025
C           -9.62541764776691        0.11944457207076       -0.10387403465527
O           -7.31891818861780        0.94997675359729       -0.07276610411939
C           -6.11242536693337        0.33238382247286       -0.00448841105835
C           -6.23827414807396       -1.06704851708193        0.06893596195991
C           -5.11079244701840       -1.88005158889771        0.18101755517192
C           -3.85409757306377       -1.31211564506045        0.18777646064812
C           -3.73146395335717        0.07290665976760        0.07301106356891
C           -4.85805560543558        0.92394256767521        0.00834423695245
C           -4.37463899266233        2.27366480181595        0.00713704577371
C           -5.00885991167942        3.50725251085567       -0.04820548039262
C           -4.22740797375199        4.64522317065412       -0.02824384868684
C           -2.83897924133452        4.55920507313549        0.04150252820405
C           -2.18964186476028        3.33954661019238        0.09730850766739
C           -2.96857439085909        2.19404235893273        0.08390824944394
N           -2.58652665660266        0.85674200216306        0.09289337186161
C           -1.27861222472645        0.40984788405147        0.04845286870724
C           -0.88775879349092       -0.71999121873238       -0.68176245643493
N            0.36576271957370       -1.11605611898321       -0.71956832204027
C            1.27861124553004       -0.40987089734824       -0.04832395489911
N            2.58652766202872       -0.85675975014255       -0.09277329431190
C            2.96858285903076       -2.19405713915701       -0.08378266916970
C            2.18965519240718       -3.33956521082798       -0.09713777532540
C            2.83900044172822       -4.55921951403718       -0.04133508070859
C            4.22743214496257       -4.64522936777576        0.02836447658104
C            5.00887935979941       -3.50725467993519        0.04828067349871
C            4.37465061669527       -2.27367080861566       -0.00705920573675
C            4.85805943840196       -0.92394581384662       -0.00830363789282
C            6.11242603936080       -0.33237894502340        0.00446866693261
O            7.31892567789501       -0.94996356130839        0.07270161884832
C            8.25333447956472        0.04225885632069        0.05038481580627
C            9.62542175718750       -0.11941742745218        0.10368602560452
C           10.40009707556108        1.02668649096395        0.06808981241410
C            9.82320608768660        2.29104233890544       -0.01782982526778
C            8.45249347608538        2.45128047725551       -0.07092667438972
C            7.65444388120356        1.31524093836232       -0.03666578010555
C            6.23826307963615        1.06705306052105       -0.06898241269069
C            5.11077172094477        1.88004815826806       -0.18102556657566
C            3.85408009700013        1.31210447387600       -0.18772524364061
C            3.73146032619968       -0.07291733591111       -0.07294015268217
C            0.88775816502220        0.71996670725438        0.68189269871504
N           -0.36576378821402        1.11603129583639        0.71969942016451
H          -11.47524036230904       -0.93795054824130       -0.10808805462786
H          -10.46305106253809       -3.16047291602102        0.04280816357619
H           -8.00739823517375       -3.43219318271695        0.13701000388961
H          -10.06554806908593        1.10145224001444       -0.17025752559094
H           -5.22534127968820       -2.94883635541398        0.27113800427385
H           -2.98414944073967       -1.93719945649104        0.31078332129967
H           -6.08490469494886        3.56073367737140       -0.10585864113773
H           -4.69507951557749        5.61769567993406       -0.06716748694632
H           -2.25441951456383        5.46711722881572        0.05494699440643
H           -1.11558788661861        3.27898008619351        0.16145579819380
H           -1.58440813277364       -1.29559827047926       -1.27355030253177
H            1.11559855879085       -3.27900488899594       -0.16124839417369
H            2.25444492102933       -5.46713489965793       -0.05474436693368
H            4.69510977783294       -5.61769897177050        0.06728765621377
H            6.08492639710505       -3.56072994170375        0.10589733179823
H           10.06556108173878       -1.10142148110286        0.17006395857084
H           11.47523860740595        0.93798840449198        0.10779197450666
H           10.46302910581476        3.16050243973372       -0.04309163039458
H            8.00737013242676        3.43220697447105       -0.13717806489100
H            5.22531044527079        2.94883254366021       -0.27116347038919
H            2.98412231486993        1.93718093950560       -0.31070175198185
H            1.58440872734982        1.29557420030390        1.27367896942645

          :  Hamiltonian                  GFN2-xTB          :
         :: gradient norm              0.000026098240 Eh/a0 ::
         :: HOMO-LUMO gap              2.082942938243 eV    ::
         :: SCC energy              -118.861022423254 Eh    ::
         :: -> dispersion             -0.096704120211 Eh    ::
         :: repulsion energy           2.028645474658 Eh    ::

    * Orbital Energies and Occupations

         #    Occupation            Energy/Eh            Energy/eV
      -------------------------------------------------------------
         1        2.0000           -0.7357702             -20.0213
       ...           ...                  ...                  ...
        95        2.0000           -0.4233154             -11.5190
        96        2.0000           -0.4225476             -11.4981
        97        2.0000           -0.4202324             -11.4351
        98        2.0000           -0.4196285             -11.4187
        99        2.0000           -0.4035349             -10.9807
       100        2.0000           -0.4034130             -10.9774
       101        2.0000           -0.3988048             -10.8520
       102        2.0000           -0.3971439             -10.8068
       103        2.0000           -0.3791995             -10.3185
       104        2.0000           -0.3790765             -10.3152
       105        2.0000           -0.3774970             -10.2722
       106        2.0000           -0.3770690             -10.2606
       107        2.0000           -0.3606570              -9.8140 (HOMO)
       108                         -0.2841102              -7.7310 (LUMO)
       109                         -0.2676557              -7.2833
       110                         -0.2552755              -6.9464
       111                         -0.2468757              -6.7178
       112                         -0.2444933              -6.6530
       113                         -0.2441474              -6.6436
       114                         -0.2183937              -5.9428
       115                         -0.2176282              -5.9220
       116                         -0.2165965              -5.8939
       117                         -0.2153939              -5.8612
       118                         -0.1979217              -5.3857
       ...                                ...                  ...
       206                          0.7609690              20.7070
      -------------------------------------------------------------
                  HL-Gap            0.0765468 Eh            2.0829 eV

     #   Z          covCN         q      C6AA      α(0)
     1   6 C        2.926    -0.033    28.828     8.805
     2   6 C        2.921    -0.038    28.948     8.823
     3   6 C        2.913    -0.034    28.858     8.809
     4   6 C        3.060    -0.018    28.394     8.738
     5   6 C        3.107     0.127    25.087     8.206
     6   6 C        2.908    -0.052    29.279     8.873
     7   8 O        1.714    -0.218    17.623     5.668
     8   6 C        3.102     0.128    25.088     8.208
     9   6 C        3.052    -0.029    28.678     8.783
    10   6 C        2.915    -0.037    28.915     8.818
    11   6 C        2.911    -0.059    29.474     8.902
    12   6 C        3.056     0.041    27.018     8.524
    13   6 C        3.063    -0.033    28.745     8.792
    14   6 C        3.063    -0.007    28.142     8.699
    15   6 C        2.912    -0.031    28.779     8.797
    16   6 C        2.921    -0.037    28.916     8.818
    17   6 C        2.925    -0.031    28.781     8.798
    18   6 C        2.910    -0.044    29.105     8.846
    19   6 C        3.069     0.051    26.783     8.486
    20   7 N        2.806    -0.036    21.928     6.955
    21   6 C        2.891     0.133    25.091     8.213
    22   6 C        2.898     0.037    27.175     8.547
    23   7 N        1.848    -0.227    26.804     7.673
    24   6 C        2.891     0.133    25.092     8.213
    25   7 N        2.806    -0.036    21.928     6.955
    26   6 C        3.069     0.051    26.783     8.486
    27   6 C        2.910    -0.044    29.105     8.846
    28   6 C        2.925    -0.031    28.781     8.798
    29   6 C        2.921    -0.037    28.916     8.818
    30   6 C        2.912    -0.031    28.779     8.797
    31   6 C        3.063    -0.007    28.142     8.699
    32   6 C        3.063    -0.033    28.745     8.792
    33   6 C        3.102     0.128    25.088     8.208
    34   8 O        1.714    -0.218    17.623     5.668
    35   6 C        3.107     0.127    25.087     8.206
    36   6 C        2.908    -0.052    29.279     8.873
    37   6 C        2.926    -0.033    28.828     8.805
    38   6 C        2.921    -0.038    28.948     8.823
    39   6 C        2.913    -0.034    28.858     8.809
    40   6 C        3.060    -0.018    28.394     8.738
    41   6 C        3.052    -0.029    28.678     8.783
    42   6 C        2.915    -0.037    28.915     8.818
    43   6 C        2.911    -0.059    29.474     8.902
    44   6 C        3.056     0.041    27.018     8.524
    45   6 C        2.898     0.037    27.175     8.547
    46   7 N        1.848    -0.227    26.804     7.673
    47   1 H        0.926     0.039     2.464     2.455
    48   1 H        0.926     0.036     2.501     2.473
    49   1 H        0.926     0.037     2.490     2.468
    50   1 H        0.926     0.046     2.373     2.409
    51   1 H        0.926     0.042     2.426     2.436
    52   1 H        0.926     0.035     2.513     2.479
    53   1 H        0.926     0.044     2.397     2.421
    54   1 H        0.926     0.034     2.534     2.489
    55   1 H        0.926     0.035     2.515     2.480
    56   1 H        0.926     0.047     2.352     2.398
    57   1 H        0.926     0.053     2.280     2.361
    58   1 H        0.926     0.047     2.352     2.398
    59   1 H        0.926     0.035     2.515     2.480
    60   1 H        0.926     0.034     2.534     2.489
    61   1 H        0.926     0.044     2.397     2.421
    62   1 H        0.926     0.046     2.373     2.409
    63   1 H        0.926     0.039     2.464     2.455
    64   1 H        0.926     0.036     2.501     2.473
    65   1 H        0.926     0.037     2.490     2.468
    66   1 H        0.926     0.042     2.426     2.436
    67   1 H        0.926     0.035     2.513     2.479
    68   1 H        0.926     0.053     2.280     2.361

molecular dipole:
                 x           y           z       tot (Debye)
 q only:       -0.000       0.000      -0.000
   full:       -0.000       0.000      -0.000       0.000

 projected vibrational frequencies (cm⁻¹)
eigval :       -0.00     0.00     0.00     0.00     0.00     0.00
eigval :        8.75    13.36    20.11    30.02    51.88    56.89
eigval :       58.58    75.07    83.48    99.51   105.37   114.93
eigval :      128.79   132.73   138.55   148.59   161.12   163.24
eigval :      214.69   235.05   243.80   252.04   263.44   263.53
eigval :      284.89   306.02   313.36   319.90   340.48   349.99
eigval :      368.60   371.72   398.48   406.07   406.30   415.92
eigval :      429.81   438.06   439.63   440.62   451.69   478.83
eigval :      495.48   499.21   503.92   516.53   537.46   538.18
eigval :      542.51   544.30   557.00   557.19   563.52   566.98
eigval :      590.52   595.12   612.54   621.28   623.27   633.46
eigval :      652.10   663.02   672.80   681.20   681.41   700.26
eigval :      704.79   704.91   711.49   711.59   714.32   733.09
eigval :      754.80   777.27   777.38   777.69   777.89   818.01
eigval :      820.63   827.91   834.43   842.72   849.32   856.84
eigval :      865.07   866.26   871.67   871.69   873.53   873.56
eigval :      888.83   902.34   902.54   904.90   905.79   905.79
eigval :      915.71   921.66   923.15   923.18   923.52   923.56
eigval :      941.55  1001.02  1003.84  1020.94  1060.84  1062.07
eigval :     1063.16  1064.69  1076.38  1078.68  1100.74  1103.94
eigval :     1135.82  1135.92  1148.60  1149.52  1174.03  1174.49
eigval :     1176.89  1176.92  1186.75  1188.16  1204.50  1205.19
eigval :     1211.83  1212.61  1225.05  1231.58  1243.12  1247.36
eigval :     1249.95  1252.33  1278.35  1279.34  1287.40  1296.95
eigval :     1299.45  1308.55  1318.80  1353.64  1353.83  1355.21
eigval :     1357.94  1377.27  1385.77  1392.55  1400.86  1405.66
eigval :     1411.99  1415.40  1423.92  1425.51  1437.38  1444.37
eigval :     1456.74  1457.43  1476.07  1476.13  1484.21  1484.93
eigval :     1500.94  1567.71  1570.58  1571.61  1582.16  1583.11
eigval :     1592.60  1592.64  1600.51  1600.90  1610.33  1610.43
eigval :     1625.52  1625.92  3073.88  3075.40  3080.67  3080.68
eigval :     3082.05  3082.05  3089.94  3089.94  3090.24  3090.28
eigval :     3095.86  3095.86  3097.95  3098.01  3102.21  3102.29
eigval :     3107.25  3107.27  3107.85  3107.86  3113.70  3113.75

   temp. (K)  partition function   enthalpy   heat capacity  entropy
                                   cal/mol     cal/K/mol   cal/K/mol   J/K/mol
 298.15  VIB  0.526E+14            18913.181    126.083    115.243
         ROT  0.874E+08              888.752      2.981     39.319
         INT  0.460E+22            19801.933    129.064    154.562
         TR   0.139E+29             1481.254      4.968     44.992
         TOT                       21283.1872   134.0321   199.5535   834.9320

       T/K    H(0)-H(T)+PV         H(T)/Eh          T*S/Eh         G(T)/Eh
   ------------------------------------------------------------------------
    298.15    0.339169E-01    0.535125E+00    0.948143E-01    0.440311E+00
   ------------------------------------------------------------------------

         :::::::::::::::::::::::::::::::::::::::::::::::::::::
         ::                  THERMODYNAMIC                  ::
         :::::::::::::::::::::::::::::::::::::::::::::::::::::
         :: total free energy        -116.392065842710 Eh   ::
         ::.................................................::
         :: total energy             -116.832376948662 Eh   ::
         :: zero point energy           0.501208512352 Eh   ::
         :: G(RRHO) w/o ZPVE           -0.060897406400 Eh   ::
         :: G(RRHO) contrib.            0.440311105952 Eh   ::
         :::::::::::::::::::::::::::::::::::::::::::::::::::::

           -------------------------------------------------
          | TOTAL ENERGY             -116.832376948662 Eh   |
          | TOTAL ENTHALPY           -116.297251518619 Eh   |
          | TOTAL FREE ENERGY        -116.392065842710 Eh   |
          | GRADIENT NORM               0.000026173437 Eh/α |
          | HOMO-LUMO GAP               2.082944187043 eV   |
           -------------------------------------------------

 * finished run on 2025/08/21 at 18:49:19.886
