   * xtb version 6.7.1 (edcfbbe) compiled by 'albert@albert-system' on 2024-07-22

   ID    Z sym.   atoms
    1    6 C      1-6, 8-19, 21, 22, 24, 26-33, 35-45
    2    8 O      7, 34
    3    7 N      20, 23, 25, 46
    4    1 H      47-68

          program call               : xtb data2507/gas/BFCZPZ2/BFCZPZ2_gas_T1_crest.xyz --gfn 2 --spinpol --tblite --uhf 2 --ohess vtight --parallel 40 --molden --ceasefiles --namespace data2507/gas/BFCZPZ2/BFCZPZ2_gas_T1_finalOpt
 * total energy  :  -116.7584682 Eh     change       -0.2741913E-08 Eh
 * total energy  :  -116.7586568 Eh     change       -0.1885186E-03 Eh
 * total energy  :  -116.7587679 Eh     change       -0.1110857E-03 Eh
 * total energy  :  -116.7587905 Eh     change       -0.2261130E-04 Eh
 * total energy  :  -116.7588096 Eh     change       -0.1918657E-04 Eh
 * total energy  :  -116.7588180 Eh     change       -0.8337529E-05 Eh
 * total energy  :  -116.7588278 Eh     change       -0.9769122E-05 Eh
 * total energy  :  -116.7588356 Eh     change       -0.7827307E-05 Eh
 * total energy  :  -116.7588399 Eh     change       -0.4306683E-05 Eh
 * total energy  :  -116.7588437 Eh     change       -0.3858931E-05 Eh
 * total energy  :  -116.7588768 Eh     change       -0.3614035E-06 Eh
 * total energy  :  -116.7588771 Eh     change       -0.3111509E-06 Eh
 * total energy  :  -116.7588775 Eh     change       -0.3318922E-06 Eh
 * total energy  :  -116.7588780 Eh     change       -0.5414953E-06 Eh
 * total energy  :  -116.7588785 Eh     change       -0.5177056E-06 Eh
 * total energy  :  -116.7588790 Eh     change       -0.4776868E-06 Eh
 * total energy  :  -116.7588793 Eh     change       -0.3071678E-06 Eh
 * total energy  :  -116.7588793 Eh     change        0.8414460E-08 Eh
 * total energy  :  -116.7588793 Eh     change       -0.1091144E-07 Eh
   *** GEOMETRY OPTIMIZATION CONVERGED AFTER 45 ITERATIONS ***

 final structure:
================
68
 xtb: 6.7.1 (edcfbbe)
C           -9.38033850551941        3.36436504576841        0.11618707825122
C           -8.38671027457884        4.33962259194537        0.09099070317355
C           -7.04910878136759        3.99923855224312        0.04761715879385
C           -6.71159090521138        2.65144009988751        0.02929005870703
C           -7.72983096709421        1.67619091051233        0.05517946055656
C           -9.06883071179597        2.01562488780819        0.09878801176788
O           -7.21405843769752        0.41428323023637        0.03192670596900
C           -5.86528797174801        0.55942281328648       -0.00886641337686
C           -5.47860707727584        1.91496649015299       -0.01421254291693
C           -4.13090855077720        2.27970704305445       -0.05543492797987
C           -3.16022391838177        1.30197912737677       -0.08569618769356
C           -3.55078878910440       -0.03645002756891       -0.08621342759271
C           -4.90635365909088       -0.43997684413573       -0.04327670931418
C           -4.92099744701444       -1.87353734048959       -0.05748044995549
C           -5.94165628636312       -2.81262198320841       -0.05008222394736
C           -5.60237808194959       -4.15100026722753       -0.11196403263587
C           -4.27083644843784       -4.54937633818517       -0.20160948128825
C           -3.23849547499720       -3.62845384428064       -0.20739080876002
C           -3.56815798485615       -2.28407876849526       -0.11168642376597
N           -2.75188590958322       -1.16494192447275       -0.11432432965164
C           -1.37238849361679       -1.16360226640418       -0.07587272066543
C           -0.66678467749102       -2.04482750394826        0.71615382538922
N            0.66251016861941       -2.02278674397912        0.81794500396248
C            1.33375557017111       -1.07497783151896        0.09939806056523
N            2.71315420900020       -1.08483930339193        0.12962395314910
C            3.49522594073137       -2.22857507253402        0.09326300564517
C            3.11022614617584       -3.55963598400793        0.10755193167019
C            4.10775959041889       -4.51659610802259        0.06139159113140
C            5.45331097334868       -4.16231041743843       -0.00850001847873
C            5.84293481646673       -2.83611361100058       -0.02819911378089
C            4.85755421349039       -1.86110548592279        0.02157567067122
C            4.88763170253047       -0.42761137794369        0.02622975758774
C            5.88137804875178        0.53713788158655       -0.00520966639762
O            7.22168735209345        0.34380180521074       -0.08720983184111
C            7.78453481922848        1.58565023906555       -0.08174862471999
C            9.13376736221904        1.87647983506883       -0.15215606390754
C            9.49579811433339        3.21253059499898       -0.13200012132732
C            8.54114088695068        4.22254166219673       -0.04449940171767
C            7.19325874537912        3.93087485524337        0.02579085685934
C            6.80538440000909        2.59663239023941        0.00725121122550
C            5.54743700808203        1.90494940203119        0.05930641519394
C            4.21759843146667        2.31387390507743        0.17833745988572
C            3.21235794665907        1.37101602757536        0.20509684487733
C            3.54530684011626        0.01881060261708        0.10613547598910
C            0.62790021367242       -0.19378419102337       -0.69286323218156
N           -0.70151306368060       -0.21356316581053       -0.79224240671102
H          -10.41634265562178        3.66585370789320        0.14993282991769
H           -8.67173636924723        5.38101813988256        0.10586380555948
H           -6.28065327168458        4.75665595693965        0.02825092287590
H           -9.83318348305433        1.25543625040957        0.11790231858450
H           -3.85797131371816        3.32319380165607       -0.05891163113241
H           -2.11328861167995        1.55586319575963       -0.12113197395381
H           -6.97118380738253       -2.49321305881762       -0.00483737210051
H           -6.37832010777766       -4.90162549141719       -0.10652628681197
H           -4.03773548835416       -5.60109636662952       -0.27454033194608
H           -2.21374445818863       -3.95130297351062       -0.30599945061120
H           -1.18479973547172       -2.72709219175225        1.37228516831626
H            2.06854783189974       -3.83248689080491        0.16330469570288
H            3.83742615975108       -5.56185553104479        0.07570398682453
H            6.20168322622378       -4.93972979778654       -0.04797270553442
H            6.88327558051286       -2.55447735659954       -0.07892271009597
H            9.86768580525186        1.08957992410051       -0.21976246913950
H           10.54117990692475        3.47639482553704       -0.18533201633641
H            8.86512531787158        5.25249618509163       -0.03168713578792
H            6.45508566112102        4.71517777750931        0.09339740150912
H            3.98393206472588        3.36386637023628        0.25714734251654
H            2.18477248433150        1.67473607719933        0.32688695604831
H            1.14618429448787        0.48550953577636       -1.35198045911568

 projected vibrational frequencies (cm⁻¹)
eigval :       -0.00    -0.00     0.00     0.00     0.00     0.00
eigval :       11.74    13.24    17.46    34.08    53.91    56.03
eigval :       59.65    71.13    82.96    89.52   100.57   113.14
eigval :      130.26   135.04   137.77   146.91   156.65   158.62
eigval :      209.80   227.87   246.36   253.31   262.28   263.58
eigval :      285.99   299.47   310.55   318.46   330.29   342.93
eigval :      353.62   362.73   375.65   403.78   408.54   410.76
eigval :      428.80   434.47   439.26   440.66   450.40   480.28
eigval :      492.77   501.07   504.44   522.35   535.39   540.90
eigval :      541.27   544.02   550.51   556.43   558.56   564.41
eigval :      567.97   595.09   598.17   602.20   618.93   623.44
eigval :      629.45   657.14   659.04   670.79   680.10   680.39
eigval :      696.83   702.40   703.11   710.57   711.01   711.93
eigval :      738.53   771.76   774.70   776.66   776.91   786.19
eigval :      798.32   817.68   823.60   828.54   830.14   841.51
eigval :      844.89   859.04   862.47   870.61   870.97   871.05
eigval :      878.50   893.57   899.69   901.86   902.09   903.13
eigval :      904.01   906.94   921.19   922.41   922.50   922.52
eigval :      929.89   970.94  1000.79  1003.77  1048.73  1051.34
eigval :     1062.00  1062.13  1064.96  1070.21  1074.29  1096.02
eigval :     1098.19  1129.99  1133.18  1141.21  1144.75  1168.74
eigval :     1172.53  1173.90  1175.91  1181.20  1185.51  1193.90
eigval :     1199.21  1204.41  1206.89  1213.51  1225.04  1243.57
eigval :     1248.76  1249.82  1261.26  1275.11  1278.57  1284.95
eigval :     1291.03  1301.60  1304.54  1310.18  1353.43  1353.64
eigval :     1355.45  1357.46  1369.28  1372.20  1388.18  1399.94
eigval :     1400.66  1409.01  1409.21  1412.91  1417.59  1431.19
eigval :     1440.53  1455.55  1457.06  1474.76  1475.07  1479.03
eigval :     1480.69  1499.29  1559.60  1562.70  1573.82  1574.27
eigval :     1585.26  1587.50  1591.15  1591.35  1603.12  1603.96
eigval :     1614.89  1615.76  3078.40  3079.42  3081.64  3082.50
eigval :     3082.69  3082.73  3090.07  3090.60  3090.72  3090.88
eigval :     3096.22  3097.69  3098.27  3098.54  3099.78  3101.44
eigval :     3103.60  3105.83  3106.86  3107.63  3108.08  3112.07

   temp. (K)  partition function   enthalpy   heat capacity  entropy
                                   cal/mol     cal/K/mol   cal/K/mol   J/K/mol
 298.15  VIB  0.583E+14            19134.349    127.585    116.517
         ROT  0.968E+08              888.752      2.981     39.524
         INT  0.564E+22            20023.101    130.566    156.040
         TR   0.139E+29             1481.254      4.968     44.992
         TOT                       21504.3549   135.5340   201.0319   841.1175

       T/K    H(0)-H(T)+PV         H(T)/Eh          T*S/Eh         G(T)/Eh
   ------------------------------------------------------------------------
    298.15    0.342694E-01    0.532128E+00    0.955168E-01    0.436612E+00
   ------------------------------------------------------------------------

         :::::::::::::::::::::::::::::::::::::::::::::::::::::
         ::                  THERMODYNAMIC                  ::
         :::::::::::::::::::::::::::::::::::::::::::::::::::::
         :: total free energy        -116.322267613817 Eh   ::
         ::.................................................::
         :: total energy             -116.758879317276 Eh   ::
         :: zero point energy           0.497859084208 Eh   ::
         :: G(RRHO) w/o ZPVE           -0.061247380748 Eh   ::
         :: G(RRHO) contrib.            0.436611703460 Eh   ::
         :::::::::::::::::::::::::::::::::::::::::::::::::::::

           -------------------------------------------------
          | TOTAL ENERGY             -116.758879317276 Eh   |
          | TOTAL ENTHALPY           -116.226750862163 Eh   |
          | TOTAL FREE ENERGY        -116.322267613817 Eh   |
          | GRADIENT NORM               0.000067223975 Eh/α |
           -------------------------------------------------

 * finished run on 2025/08/21 at 18:56:09.578
