   * xtb version 6.7.1 (edcfbbe) compiled by 'albert@albert-system' on 2024-07-22

   ID    Z sym.   atoms
    1    6 C      1-7, 9-13, 15-20, 22-32, 34-39, 41-50, 52-62
    2    7 N      8, 14, 33, 51
    3    8 O      21, 40
    4    1 H      63-96

          program call               : xtb data2507/toluene/DBBPZ-DPXZ/DBBPZ-DPXZ.xyz --gfn 2 --gbsa toluene --ohess vtight --parallel 40 --molden --ceasefiles --namespace data2507/toluene/DBBPZ-DPXZ/DBBPZ-DPXZ_toluene_S0_preOpt
      * Solvation model:               GBSA
        Solvent                        toluene
        Solvent mass                       9.2140E+01 g/mol
          :  Hamiltonian                  GFN2-xTB          :
 * total energy  :  -157.2037192 Eh     change       -0.5417178E-08 Eh
 * total energy  :  -157.2221331 Eh     change       -0.1841393E-01 Eh
 * total energy  :  -157.2280361 Eh     change       -0.5903061E-02 Eh
 * total energy  :  -157.2298386 Eh     change       -0.1802405E-02 Eh
 * total energy  :  -157.2312091 Eh     change       -0.1370569E-02 Eh
 * total energy  :  -157.2318033 Eh     change       -0.5941460E-03 Eh
 * total energy  :  -157.2321036 Eh     change       -0.3002885E-03 Eh
 * total energy  :  -157.2323175 Eh     change       -0.2139361E-03 Eh
 * total energy  :  -157.2325072 Eh     change       -0.1897293E-03 Eh
 * total energy  :  -157.2327567 Eh     change       -0.2494691E-03 Eh
 * total energy  :  -157.2351590 Eh     change       -0.5513088E-06 Eh
 * total energy  :  -157.2351596 Eh     change       -0.6161519E-06 Eh
 * total energy  :  -157.2351604 Eh     change       -0.7798994E-06 Eh
 * total energy  :  -157.2351614 Eh     change       -0.9702864E-06 Eh
 * total energy  :  -157.2351623 Eh     change       -0.9856529E-06 Eh
 * total energy  :  -157.2351634 Eh     change       -0.1013767E-05 Eh
 * total energy  :  -157.2351644 Eh     change       -0.1001364E-05 Eh
 * total energy  :  -157.2351653 Eh     change       -0.9544728E-06 Eh
 * total energy  :  -157.2351653 Eh     change       -0.2648932E-08 Eh
   *** GEOMETRY OPTIMIZATION CONVERGED AFTER 122 ITERATIONS ***

 final structure:
================
96
 xtb: 6.7.1 (edcfbbe)
C            9.56738834607129        2.94636393711984        0.19201008413707
C            8.61347285995104        3.24616440824552       -0.76648458699805
C            7.43854782930004        2.51919310836379       -0.82805774607261
C            7.20801123439661        1.47236913106946        0.06094846533925
C            5.94600601821537        0.71336336707780        0.00171879181892
C            4.75563920582975        1.39645479183486       -0.01589126210070
C            3.52459739276972        0.71295786779067       -0.01396033378027
N            2.37297366237182        1.39992373503127       -0.02937392688311
C            1.24350547957401        0.71342658559118       -0.01487723455084
C           -0.01138534002622        1.42942489727239       -0.03432119746232
C           -0.00372420420593        2.82816356811277       -0.06886432197915
C           -1.17586848508856        3.54239212497409       -0.08601861199355
C           -2.39544220311677        2.85891719403233       -0.08091242862544
N           -3.60848508143073        3.58110382162893       -0.08938816540486
C           -4.47994612164746        3.52565710152607        1.00272493370675
C           -4.22977651557445        2.73578879330173        2.11868547925342
C           -5.11609223425789        2.70741156908243        3.18508433167334
C           -6.26177320446274        3.47667473920940        3.16199185910852
C           -6.51250076267219        4.29330588639281        2.06874576439656
C           -5.63190787032519        4.32441655569325        1.00314324097549
O           -5.93791264831136        5.18236408449674       -0.02784532153467
C           -5.06962387044879        5.22505319411902       -1.09391504602683
C           -5.39432035178698        6.07879497389783       -2.13187989722835
C           -4.58305114435634        6.15530095718731       -3.25496974457629
C           -3.45884197407704        5.35837812748729       -3.33678334859548
C           -3.12879075362925        4.50182308135058       -2.29733960435713
C           -3.91245252890613        4.43718898355535       -1.15133563730355
C           -2.41515035478018        1.47435226307868       -0.05867155562882
C           -1.23404895253494        0.72805886354915       -0.02111921044477
C           -1.23411454080626       -0.72835056868475        0.02172421828348
C           -2.41529594560877       -1.47453344669548        0.05872692347896
C           -2.39575483570134       -2.85911085694356        0.08065040806030
N           -3.60890029510493       -3.58112207292958        0.08819712102106
C           -4.47999206473854       -3.52467842782473       -1.00416850168536
C           -4.22905281893054       -2.73441685777770       -2.11967990310702
C           -5.11501119469874       -2.70505558274001       -3.18634728345589
C           -6.26110504476478       -3.47372415966550       -3.16399643791496
C           -6.51260409315533       -4.29075273863415       -2.07122546158635
C           -5.63236409279972       -4.32284402976215       -1.00535906380869
O           -5.93915254053320       -5.18112882302228        0.02511027171575
C           -5.07139344315933       -5.22455784193038        1.09158016713859
C           -5.39708212032053       -6.07836883885337        2.12917637786672
C           -4.58638238962674       -6.15564705020302        3.25262224503476
C           -3.46172995105117       -5.35942500063827        3.33515117700358
C           -3.13069515906144       -4.50278841606744        2.29608687254494
C           -3.91380617369974       -4.43735867071337        1.14975299780561
C           -1.17625071631148       -3.54270628225627        0.08617944029230
C           -0.00402716103810       -2.82858352862842        0.06965258467651
C           -0.01152092033737       -1.42983919452682        0.03527442113623
C            1.24344364049316       -0.71395602001397        0.01622311974122
N            2.37286069870480       -1.40053577901188        0.03094050032980
C            3.52453813507730       -0.71365159835256        0.01571832381737
C            4.75553384047520       -1.39722881154581        0.01782585708269
C            5.94594857452515       -0.71421803339071        0.00037155613435
C            7.20789204413227       -1.47333928063017       -0.05870075347363
C            7.43824855691850       -2.52009822201619        0.83042711427476
C            8.61310967515728       -3.24718587782307        0.76903089050181
C            9.56713230230975       -2.94757205772061       -0.18941484452225
C            9.33896989336400       -1.91828531100611       -1.08822582953088
C            8.16969899166847       -1.18349642229360       -1.02340406747906
C            8.16971038300809        1.18234588052614        1.02570665817679
C            9.33905021304811        1.91700868058201        1.09069741445902
H           10.48445107383685        3.51493044936004        0.24024340410862
H            8.78501002814425        4.04909001201595       -1.46885231497063
H            6.69877278358538        2.74646662048017       -1.58263210715703
H            4.73611051667650        2.47604256008982       -0.00572613472701
H            0.95293917125171        3.32629206930276       -0.07039872391246
H           -1.16762219914240        4.62181643350289       -0.09857633927025
H           -3.32892626654635        2.14439256398802        2.16243470881098
H           -4.89604758636688        2.07999684000929        4.03526056382403
H           -6.95648297302377        3.45735585753683        3.98680254494141
H           -7.38766065079313        4.92257949688366        2.02573434751607
H           -6.29000321432670        6.67342783667274       -2.04306122403447
H           -4.84227555021867        6.82720864541094       -4.05789878417026
H           -2.82830763241043        5.39187930727393       -4.21204323019611
H           -2.25520483206243        3.87445488495155       -2.37966897144677
H           -3.37592829175188        0.98560064295047       -0.07480111374253
H           -3.37602800425950       -0.98568245673401        0.07455838061807
H           -3.32787383902998       -2.14348415423654       -2.16288064945968
H           -4.89437084007973       -2.07731861630418       -4.03613002538142
H           -6.95556548556265       -3.45360087827330       -3.98899770185429
H           -7.38811759766732       -4.91957255406285       -2.02878364289646
H           -6.29307831498106       -6.67244244068724        2.03977605117640
H           -4.84639767741886       -6.82758043695050        4.05527411775386
H           -2.83161120798982       -5.39353842177045        4.21068569013593
H           -2.25677815175335       -3.87596083757099        2.37898684291639
H           -1.16810391171495       -4.62213378056550        0.09851990499952
H            0.95258437546001       -3.32681200762946        0.07154220029172
H            4.73594188505683       -2.47681515031100        0.00765488121501
H            6.69839830585145       -2.74719609182366        1.58498039533731
H            8.78450674084786       -4.05005956477826        1.47149164520168
H           10.48411841845940       -3.51626987431705       -0.23755144794462
H           10.07562394550240       -1.68579536752894       -1.84342654947307
H            7.99173685521522       -0.38876409939477       -1.73280853336104
H            7.99160475203149        0.38757266859307        1.73502843139642
H           10.07563550093561        1.68433937303250        1.84591010086808

          :  Hamiltonian                  GFN2-xTB          :
         :: gradient norm              0.000040100162 Eh/a0 ::
         :: HOMO-LUMO gap              1.023862369767 eV    ::
         :: SCC energy              -160.044417359361 Eh    ::
         :: -> dispersion             -0.140802506941 Eh    ::
         :: -> Gsolv                  -0.064405863881 Eh    ::
         :: repulsion energy           2.809252045692 Eh    ::

    * Orbital Energies and Occupations

         #    Occupation            Energy/Eh            Energy/eV
      -------------------------------------------------------------
         1        2.0000           -0.7309718             -19.8908
       ...           ...                  ...                  ...
       133        2.0000           -0.4143247             -11.2743
       134        2.0000           -0.4126352             -11.2284
       135        2.0000           -0.4090042             -11.1296
       136        2.0000           -0.4079321             -11.1004
       137        2.0000           -0.4050785             -11.0227
       138        2.0000           -0.4042469             -11.0001
       139        2.0000           -0.3940565             -10.7228
       140        2.0000           -0.3926550             -10.6847
       141        2.0000           -0.3912805             -10.6473
       142        2.0000           -0.3887914             -10.5796
       143        2.0000           -0.3567295              -9.7071
       144        2.0000           -0.3455545              -9.4030
       145        2.0000           -0.3453744              -9.3981 (HOMO)
       146                         -0.3077481              -8.3743 (LUMO)
       147                         -0.2759716              -7.5096
       148                         -0.2651860              -7.2161
       149                         -0.2451925              -6.6720
       150                         -0.2401346              -6.5344
       151                         -0.2400089              -6.5310
       152                         -0.2386686              -6.4945
       153                         -0.2315792              -6.3016
       154                         -0.2314563              -6.2982
       155                         -0.2285555              -6.2193
       156                         -0.2256229              -6.1395
       ...                                ...                  ...
       282                          0.7087144              19.2851
      -------------------------------------------------------------
                  HL-Gap            0.0376262 Eh            1.0239 eV

     #   Z          covCN         q      C6AA      α(0)
     1   6 C        2.920    -0.030    28.740     8.791
     2   6 C        2.918    -0.029    28.724     8.789
     3   6 C        2.925    -0.033    28.831     8.805
     4   6 C        2.979     0.013    27.717     8.636
     5   6 C        2.975     0.011    27.761     8.643
     6   6 C        2.923    -0.052    29.288     8.875
     7   6 C        2.964     0.081    26.193     8.395
     8   7 N        1.848    -0.263    27.688     7.799
     9   6 C        2.961     0.084    26.129     8.384
    10   6 C        2.987    -0.008    28.212     8.713
    11   6 C        2.923    -0.027    28.683     8.783
    12   6 C        2.918    -0.039    28.980     8.828
    13   6 C        2.919     0.068    26.484     8.439
    14   7 N        2.751    -0.072    22.636     7.066
    15   6 C        2.921     0.042    27.058     8.530
    16   6 C        2.924    -0.061    29.526     8.911
    17   6 C        2.919    -0.039    28.972     8.827
    18   6 C        2.919    -0.041    29.016     8.833
    19   6 C        2.920    -0.058    29.436     8.897
    20   6 C        2.882     0.123    25.308     8.247
    21   8 O        1.708    -0.271    18.501     5.807
    22   6 C        2.882     0.123    25.308     8.247
    23   6 C        2.919    -0.058    29.437     8.897
    24   6 C        2.919    -0.041    29.011     8.833
    25   6 C        2.919    -0.039    28.966     8.826
    26   6 C        2.924    -0.060    29.491     8.906
    27   6 C        2.922     0.042    27.054     8.530
    28   6 C        2.925    -0.047    29.164     8.856
    29   6 C        2.976     0.007    27.860     8.658
    30   6 C        2.976     0.007    27.860     8.658
    31   6 C        2.925    -0.047    29.165     8.856
    32   6 C        2.919     0.068    26.484     8.439
    33   7 N        2.751    -0.072    22.636     7.066
    34   6 C        2.921     0.042    27.058     8.530
    35   6 C        2.924    -0.061    29.526     8.911
    36   6 C        2.919    -0.039    28.972     8.827
    37   6 C        2.919    -0.041    29.016     8.833
    38   6 C        2.920    -0.058    29.436     8.897
    39   6 C        2.882     0.123    25.308     8.247
    40   8 O        1.708    -0.271    18.501     5.807
    41   6 C        2.882     0.123    25.308     8.247
    42   6 C        2.919    -0.058    29.437     8.897
    43   6 C        2.919    -0.041    29.011     8.833
    44   6 C        2.919    -0.039    28.966     8.826
    45   6 C        2.924    -0.060    29.491     8.906
    46   6 C        2.922     0.042    27.054     8.530
    47   6 C        2.918    -0.039    28.980     8.828
    48   6 C        2.923    -0.027    28.683     8.783
    49   6 C        2.987    -0.008    28.212     8.713
    50   6 C        2.961     0.084    26.129     8.384
    51   7 N        1.848    -0.263    27.688     7.799
    52   6 C        2.964     0.081    26.193     8.395
    53   6 C        2.923    -0.052    29.288     8.875
    54   6 C        2.975     0.011    27.761     8.643
    55   6 C        2.979     0.013    27.717     8.636
    56   6 C        2.925    -0.033    28.831     8.805
    57   6 C        2.918    -0.029    28.724     8.789
    58   6 C        2.920    -0.030    28.740     8.791
    59   6 C        2.919    -0.029    28.721     8.788
    60   6 C        2.924    -0.030    28.750     8.793
    61   6 C        2.924    -0.030    28.750     8.793
    62   6 C        2.919    -0.029    28.721     8.788
    63   1 H        0.926     0.036     2.501     2.473
    64   1 H        0.926     0.036     2.497     2.471
    65   1 H        0.926     0.034     2.530     2.487
    66   1 H        0.926     0.052     2.294     2.368
    67   1 H        0.926     0.064     2.147     2.291
    68   1 H        0.926     0.050     2.317     2.380
    69   1 H        0.926     0.039     2.458     2.452
    70   1 H        0.926     0.041     2.434     2.440
    71   1 H        0.926     0.042     2.419     2.432
    72   1 H        0.926     0.048     2.343     2.394
    73   1 H        0.926     0.048     2.344     2.394
    74   1 H        0.926     0.043     2.415     2.430
    75   1 H        0.926     0.042     2.425     2.435
    76   1 H        0.926     0.039     2.459     2.452
    77   1 H        0.926     0.052     2.293     2.368
    78   1 H        0.926     0.052     2.293     2.368
    79   1 H        0.926     0.039     2.458     2.452
    80   1 H        0.926     0.041     2.434     2.440
    81   1 H        0.926     0.042     2.419     2.432
    82   1 H        0.926     0.048     2.343     2.394
    83   1 H        0.926     0.048     2.344     2.394
    84   1 H        0.926     0.043     2.415     2.430
    85   1 H        0.926     0.042     2.425     2.435
    86   1 H        0.926     0.039     2.459     2.452
    87   1 H        0.926     0.050     2.317     2.380
    88   1 H        0.926     0.064     2.147     2.291
    89   1 H        0.926     0.052     2.294     2.368
    90   1 H        0.926     0.034     2.530     2.487
    91   1 H        0.926     0.036     2.497     2.471
    92   1 H        0.926     0.036     2.501     2.473
    93   1 H        0.926     0.035     2.513     2.479
    94   1 H        0.926     0.031     2.570     2.507
    95   1 H        0.926     0.031     2.570     2.507
    96   1 H        0.926     0.035     2.513     2.479

molecular dipole:
                 x           y           z       tot (Debye)
 q only:        1.509      -0.000       0.000
   full:        1.560      -0.000       0.000       3.964

 projected vibrational frequencies (cm⁻¹)
eigval :       -0.00    -0.00    -0.00     0.00     0.00     0.00
eigval :        9.06    11.30    13.48    14.55    17.91    24.31
eigval :       29.61    36.61    39.76    41.46    42.73    55.00
eigval :       59.18    59.92    80.16    82.50    88.79    96.59
eigval :      102.69   107.59   117.70   120.34   126.76   146.23
eigval :      151.40   191.00   195.91   208.34   210.25   235.13
eigval :      236.74   239.20   246.61   249.70   251.59   264.95
eigval :      268.37   283.95   290.95   299.35   302.92   319.09
eigval :      359.90   365.85   371.61   373.27   373.97   378.16
eigval :      385.74   390.93   399.66   418.03   418.88   421.84
eigval :      428.30   428.38   437.14   441.87   445.37   450.96
eigval :      455.12   461.14   473.43   490.80   507.47   510.00
eigval :      510.11   515.55   519.19   523.08   527.83   529.67
eigval :      561.68   568.16   570.95   579.74   580.66   584.41
eigval :      591.04   591.18   598.54   617.70   619.28   625.48
eigval :      642.85   646.35   654.48   659.43   659.94   661.06
eigval :      662.00   665.59   670.59   676.71   692.43   693.77
eigval :      696.29   707.80   726.78   733.36   742.12   761.73
eigval :      762.52   764.65   766.08   777.32   777.92   780.10
eigval :      780.18   800.61   821.92   832.09   834.05   852.81
eigval :      852.84   855.23   856.21   861.40   862.51   867.23
eigval :      867.33   874.01   875.18   876.69   882.21   884.78
eigval :      898.36   898.94   899.64   900.30   903.43   903.57
eigval :      906.27   913.86   914.05   915.50   915.71   916.14
eigval :      916.67   926.20   929.03   929.05   929.26   929.54
eigval :      934.30   934.37   970.67   975.74  1001.59  1007.18
eigval :     1046.66  1063.85  1067.35  1082.59  1084.78  1088.48
eigval :     1088.63  1089.58  1090.28  1106.40  1106.41  1116.33
eigval :     1119.28  1120.44  1121.19  1144.71  1146.88  1168.27
eigval :     1168.50  1173.73  1173.83  1180.35  1180.42  1182.22
eigval :     1182.82  1195.25  1197.23  1197.70  1197.96  1198.33
eigval :     1200.97  1207.39  1222.47  1227.61  1232.34  1241.72
eigval :     1241.99  1251.99  1259.17  1259.66  1264.81  1273.30
eigval :     1274.32  1278.89  1280.85  1283.40  1303.24  1303.94
eigval :     1306.94  1310.10  1314.57  1316.63  1318.48  1325.63
eigval :     1331.98  1338.64  1347.97  1352.81  1358.16  1378.93
eigval :     1399.12  1417.27  1421.15  1421.21  1422.92  1425.27
eigval :     1432.31  1434.74  1442.00  1442.94  1451.30  1468.13
eigval :     1472.34  1479.48  1479.81  1480.84  1482.20  1491.93
eigval :     1501.15  1501.32  1520.28  1542.01  1550.25  1565.81
eigval :     1565.94  1574.29  1577.52  1578.83  1578.99  1579.87
eigval :     1583.19  1587.71  1588.44  1589.67  1596.52  1599.11
eigval :     1601.69  1601.88  3068.78  3068.83  3072.22  3072.71
eigval :     3077.89  3078.34  3083.95  3084.92  3087.02  3087.03
eigval :     3087.10  3087.11  3089.63  3090.43  3091.96  3091.99
eigval :     3092.08  3092.14  3095.86  3095.89  3096.27  3096.28
eigval :     3103.43  3103.45  3103.60  3104.26  3104.96  3108.65
eigval :     3108.69  3109.50  3109.52  3111.32  3111.45  3114.44

   temp. (K)  partition function   enthalpy   heat capacity  entropy
                                   cal/mol     cal/K/mol   cal/K/mol   J/K/mol
 298.15  VIB  0.289E+23            28053.348    177.635    174.572
         ROT  0.112E+09              888.752      2.981     39.808
         INT  0.323E+31            28942.100    180.616    214.380
         TR   0.217E+29             1481.254      4.968     45.876
         TOT                       30423.3539   185.5842   260.2560  1088.9113

       T/K    H(0)-H(T)+PV         H(T)/Eh          T*S/Eh         G(T)/Eh
   ------------------------------------------------------------------------
    298.15    0.484827E-01    0.769023E+00    0.123656E+00    0.645367E+00
   ------------------------------------------------------------------------

         :::::::::::::::::::::::::::::::::::::::::::::::::::::
         ::                  THERMODYNAMIC                  ::
         :::::::::::::::::::::::::::::::::::::::::::::::::::::
         :: total free energy        -156.589798035218 Eh   ::
         ::.................................................::
         :: total energy             -157.235165313541 Eh   ::
         :: zero point energy           0.720540621723 Eh   ::
         :: G(RRHO) w/o ZPVE           -0.075173343400 Eh   ::
         :: G(RRHO) contrib.            0.645367278323 Eh   ::
         :::::::::::::::::::::::::::::::::::::::::::::::::::::

           -------------------------------------------------
          | TOTAL ENERGY             -157.235165313541 Eh   |
          | TOTAL ENTHALPY           -156.466141991321 Eh   |
          | TOTAL FREE ENERGY        -156.589798035218 Eh   |
          | GRADIENT NORM               0.000040095943 Eh/α |
          | HOMO-LUMO GAP               1.023861907789 eV   |
           -------------------------------------------------

 * finished run on 2025/08/22 at 17:37:39.110
