   * xtb version 6.7.1 (edcfbbe) compiled by 'albert@albert-system' on 2024-07-22

   ID    Z sym.   atoms
    1    6 C      1-7, 9-13, 15-20, 22-32, 34-39, 41-50, 52-62
    2    7 N      8, 14, 33, 51
    3    8 O      21, 40
    4    1 H      63-96

          program call               : xtb data2507/toluene/DBBPZ-DPXZ/DBBPZ-DPXZ_toluene_S0_finalOpt.xtbopt.xyz --gfn 2 --uhf 2 --gbsa toluene --ohess vtight --parallel 40 --molden --ceasefiles --namespace data2507/toluene/DBBPZ-DPXZ/DBBPZ-DPXZ_toluene_T1_preOpt
      * Solvation model:               GBSA
        Solvent                        toluene
        Solvent mass                       9.2140E+01 g/mol
          :  Hamiltonian                  GFN2-xTB          :
 * total energy  :  -157.1864348 Eh     change       -0.5306870E-07 Eh
 * total energy  :  -157.1887391 Eh     change       -0.2304368E-02 Eh
 * total energy  :  -157.1894287 Eh     change       -0.6895563E-03 Eh
 * total energy  :  -157.1895070 Eh     change       -0.7831164E-04 Eh
 * total energy  :  -157.1895490 Eh     change       -0.4203686E-04 Eh
 * total energy  :  -157.1895588 Eh     change       -0.9738042E-05 Eh
 * total energy  :  -157.1895691 Eh     change       -0.1027518E-04 Eh
 * total energy  :  -157.1895805 Eh     change       -0.1141626E-04 Eh
 * total energy  :  -157.1895887 Eh     change       -0.8275153E-05 Eh
 * total energy  :  -157.1895950 Eh     change       -0.6222860E-05 Eh
 * total energy  :  -157.1896525 Eh     change       -0.1175285E-05 Eh
 * total energy  :  -157.1896535 Eh     change       -0.9925435E-06 Eh
 * total energy  :  -157.1896545 Eh     change       -0.1044679E-05 Eh
 * total energy  :  -157.1896555 Eh     change       -0.9642872E-06 Eh
 * total energy  :  -157.1896561 Eh     change       -0.5681774E-06 Eh
 * total energy  :  -157.1896564 Eh     change       -0.3341249E-06 Eh
 * total energy  :  -157.1896567 Eh     change       -0.2400876E-06 Eh
 * total energy  :  -157.1896569 Eh     change       -0.2426595E-06 Eh
 * total energy  :  -157.1896569 Eh     change       -0.2086750E-08 Eh
   *** GEOMETRY OPTIMIZATION CONVERGED AFTER 44 ITERATIONS ***

 final structure:
================
96
 xtb: 6.7.1 (edcfbbe)
C            9.81272899941490        2.97789906213365        0.00327056941642
C            8.81824037541300        3.31108890598471       -0.90140602702347
C            7.65195231802384        2.57006505897175       -0.95624109239782
C            7.46635603328075        1.47615995800937       -0.11370170421953
C            6.21528755602661        0.70176434123152       -0.16350280864228
C            5.00628203935751        1.38513881832081       -0.11296296671554
C            3.78340672535624        0.71981802637768       -0.08958895135446
N            2.61799348699271        1.37536901046432       -0.04119430180722
C            1.46708898024487        0.71174104457572       -0.00268277675030
C            0.22525050082166        1.41679612395675        0.05396124524668
C            0.23392802416543        2.82229714395598        0.03746822269084
C           -0.93040721340439        3.53993402548103        0.05771137698968
C           -2.15608976294255        2.85746089931139        0.11546114248699
N           -3.36801543923936        3.59272144882915        0.11508223385886
C           -3.66936213077775        4.44596875026726        1.17190146348026
C           -2.87429620362588        4.52187780005616        2.31190511952585
C           -3.20066000198596        5.38495364770988        3.34455033834817
C           -4.32948355442471        6.18002729160564        3.26367139845866
C           -5.14787126220558        6.09764638809385        2.14768537041078
C           -4.82831327132550        5.23587667529910        1.11313705572348
O           -5.69311492608970        5.18625013198079        0.04970939969089
C           -5.39653387360914        4.31923495334334       -0.97133085320691
C           -6.28618628022023        4.26873970934926       -2.03040981885835
C           -6.04119217771539        3.43260151482498       -3.10844557184762
C           -4.89442803764641        2.66000701065974       -3.12611753129532
C           -3.99940124896660        2.70681833159368       -2.07036895538738
C           -4.24067027162184        3.52171060136000       -0.96777945486578
C           -2.18620080602394        1.48033856780569        0.15628318501130
C           -1.00846800536928        0.72058657496759        0.11374494156557
C           -1.00880656498655       -0.71999104786795        0.10665015714515
C           -2.18584333272029       -1.47988027818190        0.16427177934589
C           -2.15742622308374       -2.85645203442792        0.10595139647038
N           -3.36782049382349       -3.59319401683274        0.13189424033410
C           -4.27949905250679       -3.50232954675307       -0.91694402914999
C           -4.08289841568644       -2.66127638982249       -2.00871518205572
C           -5.01697472861342       -2.59428776531714       -3.02897671071417
C           -6.15941340970005       -3.37234919746940       -2.98647813089484
C           -6.36025528012809       -4.23473236862963       -1.92010456426798
C           -5.43118146863312       -4.30567142891306       -0.89664630781798
O           -5.68563207963437       -5.19881455010421        0.11313662013085
C           -4.78658395577599       -5.26268472555888        1.14687906284055
C           -5.06763163212995       -6.14557269709904        2.17480464977006
C           -4.21451110193130       -6.24186833110705        3.26328717680116
C           -3.08973842071844       -5.43928071205666        3.32381721302822
C           -2.80137906281018       -4.55586431280108        2.29706725179064
C           -3.63124009058315       -4.46625355498701        1.18308717642052
C           -0.93355152616433       -3.53800918654081        0.00990085464429
C            0.23077100254445       -2.82079757422035       -0.01971060819271
C            0.22361094206757       -1.41585977524427        0.02236686450135
C            1.46596465038765       -0.71106467448699       -0.02553488457835
N            2.61544516455340       -1.37501074439852       -0.08981958745617
C            3.78213811883862       -0.72030365747011       -0.11767226108745
C            5.00286845189687       -1.38644163034038       -0.18499324085585
C            6.21339649374651       -0.70420546953649       -0.21314838341866
C            7.45976342595040       -1.47816246706845       -0.33454835793824
C            7.68836030116903       -2.57751842269015        0.49042689011193
C            8.85069957793851       -3.31728493798173        0.37249011322825
C            9.79895906587926       -2.97703050177161       -0.57803848526941
C            9.57510388506404       -1.89412583694651       -1.41283024463864
C            8.41623058589137       -1.15035261374744       -1.29350913016397
C            8.46921361407573        1.15520755770727        0.79891382265427
C            9.63188734740474        1.90047387340221        0.85545907550337
H           10.72372776603619        3.55696153244245        0.04577425371433
H            8.95228917522693        4.15122523853438       -1.56800411910665
H            6.88143184674493        2.82423628969945       -1.67082437742115
H            4.99672133806723        2.46379562296109       -0.05803117041843
H            1.19307960990024        3.31500624659693       -0.00950256181425
H           -0.92111924986970        4.61877981716077        0.02268435257381
H           -1.99760895994562        3.89846164092432        2.38820379179478
H           -2.56543343900038        5.42868517364226        4.21569563822765
H           -4.58310660387353        6.85620406351972        4.06456828406483
H           -6.04330533638368        6.69240734742305        2.06015646640749
H           -7.16211375757121        4.89683775989296       -1.99182855256480
H           -6.74081119577785        3.39711856437149       -3.92830594402500
H           -4.68428181364467        2.01634754274497       -3.96615465150844
H           -3.10016936688705        2.11279151526730       -2.10412649052745
H           -3.14813787020820        0.99608492042942        0.21224608229255
H           -3.14543501193479       -0.99594376948497        0.25300035281585
H           -3.18789617368890       -2.06244252856638       -2.06234968558415
H           -4.84126108115880       -1.92967554510468       -3.86053287958955
H           -6.88938284467327       -3.32080400620563       -3.77857387234805
H           -7.23152433349694       -4.86790928822909       -1.86311182319620
H           -5.96120620143993       -6.74532605931146        2.10394315641306
H           -4.43825663605150       -6.93428246739862        4.05922400789969
H           -2.42789233914284       -5.49302291379383        4.17433482885365
H           -1.92716128355081       -3.92729753473091        2.35798444144445
H           -0.92558942002258       -4.61615767862341       -0.04259933474429
H            1.18861167486057       -3.31317371277115       -0.09072543914385
H            4.98838192691948       -2.46507504977732       -0.23844538331128
H            6.95522314077930       -2.83693188320045        1.24149371870341
H            9.01825545100889       -4.16187206774566        1.02576204471886
H           10.70702112720441       -3.55494992678641       -0.66972420037825
H           10.30677661147204       -1.62823759063102       -2.16236543760595
H            8.24111650670236       -0.31408016850633       -1.95462028812882
H            8.32727916112766        0.32309711473023        1.47316139115489
H           10.40041525014912        1.64018954335346        1.56921373615428

          :  Hamiltonian                  GFN2-xTB          :
         :: gradient norm              0.000034173385 Eh/a0 ::
         :: HOMO-LUMO gap              0.825430870322 eV    ::
         :: SCC energy              -159.999148996930 Eh    ::
         :: -> dispersion             -0.141354643495 Eh    ::
         :: -> Gsolv                  -0.066083695435 Eh    ::
         :: repulsion energy           2.809492100648 Eh    ::

    * Orbital Energies and Occupations

         #    Occupation            Energy/Eh            Energy/eV
      -------------------------------------------------------------
         1        2.0000           -0.7407237             -20.1561
       ...           ...                  ...                  ...
       134        2.0000           -0.4055257             -11.0349
       135        2.0000           -0.4020278             -10.9397
       136        2.0000           -0.4017735             -10.9328
       137        2.0000           -0.4000879             -10.8869
       138        2.0000           -0.3991900             -10.8625
       139        2.0000           -0.3968964             -10.8001
       140        2.0000           -0.3965790             -10.7915
       141        2.0000           -0.3804075             -10.3514
       142        2.0000           -0.3793347             -10.3222
       143        1.8773           -0.3517171              -9.5707
       144        1.8444           -0.3514555              -9.5636
       145        1.2783           -0.3489432              -9.4952
       146        1.0000           -0.2991563              -8.1405 (HOMO)
       147        0.0000           -0.2688225              -7.3150 (LUMO)
       148                         -0.2589665              -7.0468
       149                         -0.2476235              -6.7382
       150                         -0.2475891              -6.7372
       151                         -0.2380426              -6.4775
       152                         -0.2374830              -6.4622
       153                         -0.2374608              -6.4616
       154                         -0.2310890              -6.2883
       155                         -0.2233728              -6.0783
       156                         -0.2231933              -6.0734
       157                         -0.2228435              -6.0639
       ...                                ...                  ...
       282                          0.7117382              19.3674
      -------------------------------------------------------------
                  HL-Gap            0.0303338 Eh            0.8254 eV

     #   Z          covCN         q      C6AA      α(0)
     1   6 C        2.920    -0.033    28.824     8.804
     2   6 C        2.918    -0.031    28.777     8.797
     3   6 C        2.925    -0.036    28.885     8.814
     4   6 C        2.978     0.013    27.726     8.637
     5   6 C        2.975    -0.002    28.082     8.693
     6   6 C        2.924    -0.067    29.674     8.933
     7   6 C        2.942     0.084    26.121     8.382
     8   7 N        1.848    -0.262    27.656     7.794
     9   6 C        2.944     0.079    26.228     8.400
    10   6 C        2.986    -0.012    28.307     8.727
    11   6 C        2.923    -0.028    28.713     8.787
    12   6 C        2.917    -0.044    29.095     8.845
    13   6 C        2.919     0.056    26.752     8.482
    14   7 N        2.752    -0.052    22.248     7.005
    15   6 C        2.923     0.044    27.004     8.522
    16   6 C        2.922    -0.056    29.385     8.890
    17   6 C        2.918    -0.035    28.871     8.811
    18   6 C        2.919    -0.036    28.899     8.815
    19   6 C        2.918    -0.055    29.376     8.888
    20   6 C        2.883     0.126    25.244     8.237
    21   8 O        1.709    -0.254    18.202     5.760
    22   6 C        2.883     0.126    25.243     8.237
    23   6 C        2.918    -0.055    29.370     8.887
    24   6 C        2.919    -0.036    28.901     8.816
    25   6 C        2.918    -0.035    28.869     8.811
    26   6 C        2.922    -0.057    29.413     8.894
    27   6 C        2.922     0.044    27.015     8.524
    28   6 C        2.922    -0.047    29.164     8.856
    29   6 C        2.976    -0.002    28.072     8.691
    30   6 C        2.976    -0.002    28.071     8.691
    31   6 C        2.922    -0.047    29.168     8.857
    32   6 C        2.919     0.056    26.751     8.482
    33   7 N        2.752    -0.052    22.246     7.005
    34   6 C        2.922     0.044    27.017     8.524
    35   6 C        2.922    -0.057    29.416     8.894
    36   6 C        2.918    -0.035    28.871     8.811
    37   6 C        2.919    -0.036    28.901     8.816
    38   6 C        2.918    -0.055    29.370     8.887
    39   6 C        2.883     0.126    25.244     8.237
    40   8 O        1.709    -0.254    18.202     5.760
    41   6 C        2.883     0.126    25.243     8.237
    42   6 C        2.918    -0.055    29.376     8.888
    43   6 C        2.919    -0.036    28.898     8.815
    44   6 C        2.918    -0.035    28.872     8.811
    45   6 C        2.922    -0.056    29.384     8.889
    46   6 C        2.923     0.044    27.005     8.522
    47   6 C        2.917    -0.044    29.096     8.845
    48   6 C        2.923    -0.029    28.713     8.787
    49   6 C        2.986    -0.012    28.308     8.728
    50   6 C        2.944     0.079    26.227     8.399
    51   7 N        1.848    -0.262    27.656     7.794
    52   6 C        2.942     0.084    26.123     8.383
    53   6 C        2.924    -0.067    29.675     8.933
    54   6 C        2.975    -0.003    28.084     8.693
    55   6 C        2.977     0.013    27.730     8.638
    56   6 C        2.925    -0.036    28.886     8.814
    57   6 C        2.918    -0.031    28.777     8.797
    58   6 C        2.920    -0.033    28.824     8.804
    59   6 C        2.918    -0.031    28.766     8.795
    60   6 C        2.924    -0.032    28.806     8.802
    61   6 C        2.924    -0.032    28.805     8.801
    62   6 C        2.918    -0.031    28.765     8.795
    63   1 H        0.926     0.032     2.563     2.504
    64   1 H        0.926     0.032     2.563     2.503
    65   1 H        0.926     0.029     2.599     2.521
    66   1 H        0.926     0.038     2.470     2.458
    67   1 H        0.926     0.053     2.286     2.364
    68   1 H        0.926     0.044     2.395     2.420
    69   1 H        0.926     0.046     2.374     2.409
    70   1 H        0.926     0.047     2.353     2.399
    71   1 H        0.926     0.049     2.332     2.388
    72   1 H        0.926     0.055     2.261     2.351
    73   1 H        0.926     0.055     2.261     2.351
    74   1 H        0.926     0.050     2.325     2.385
    75   1 H        0.926     0.048     2.341     2.393
    76   1 H        0.926     0.046     2.367     2.406
    77   1 H        0.926     0.047     2.351     2.398
    78   1 H        0.926     0.048     2.351     2.398
    79   1 H        0.926     0.047     2.363     2.404
    80   1 H        0.926     0.048     2.339     2.392
    81   1 H        0.926     0.050     2.326     2.385
    82   1 H        0.926     0.055     2.261     2.351
    83   1 H        0.926     0.055     2.261     2.351
    84   1 H        0.926     0.049     2.332     2.388
    85   1 H        0.926     0.047     2.353     2.399
    86   1 H        0.926     0.046     2.374     2.410
    87   1 H        0.926     0.044     2.396     2.420
    88   1 H        0.926     0.053     2.286     2.364
    89   1 H        0.926     0.039     2.468     2.457
    90   1 H        0.926     0.029     2.598     2.521
    91   1 H        0.926     0.032     2.563     2.504
    92   1 H        0.926     0.032     2.564     2.504
    93   1 H        0.926     0.030     2.580     2.512
    94   1 H        0.926     0.026     2.641     2.541
    95   1 H        0.926     0.026     2.643     2.542
    96   1 H        0.926     0.030     2.579     2.511

molecular dipole:
                 x           y           z       tot (Debye)
 q only:       -2.691       0.005       0.085
   full:       -2.540       0.006       0.092       6.460

 projected vibrational frequencies (cm⁻¹)
eigval :       -0.00    -0.00    -0.00    -0.00     0.00     0.00
eigval :        6.09    11.39    13.80    17.42    19.68    24.85
eigval :       29.94    37.03    41.22    44.62    48.71    57.45
eigval :       58.73    62.39    81.87    83.05    89.69    92.30
eigval :      106.90   109.19   115.66   122.35   127.44   144.74
eigval :      151.92   186.92   190.09   208.88   215.14   233.65
eigval :      235.87   240.21   244.59   246.64   249.02   264.18
eigval :      268.24   287.29   293.02   299.78   304.00   312.71
eigval :      347.99   362.96   371.02   373.89   375.74   377.88
eigval :      384.06   391.39   396.95   416.92   418.30   419.24
eigval :      428.77   429.99   434.29   436.81   445.06   447.78
eigval :      456.43   471.89   475.55   489.64   504.41   505.62
eigval :      508.32   512.59   517.58   524.63   527.22   527.46
eigval :      555.09   566.13   566.42   576.62   577.58   579.81
eigval :      586.73   591.01   596.04   615.59   616.02   620.78
eigval :      622.30   635.97   650.03   652.57   662.77   663.55
eigval :      665.10   666.18   669.32   673.82   676.88   680.71
eigval :      690.56   692.63   702.32   720.18   720.88   727.27
eigval :      757.31   758.56   764.14   772.90   777.80   778.43
eigval :      780.44   798.54   818.02   821.25   822.30   824.04
eigval :      826.67   853.68   853.69   853.94   856.73   863.76
eigval :      868.45   868.83   869.43   872.92   874.35   879.43
eigval :      897.41   898.96   899.12   900.83   901.45   901.52
eigval :      902.46   910.80   914.37   914.71   915.20   915.60
eigval :      916.03   917.60   919.05   922.14   922.62   923.14
eigval :      928.30   930.02   958.69   971.65   997.64  1004.72
eigval :     1038.08  1064.01  1072.71  1082.57  1085.64  1086.07
eigval :     1086.65  1087.02  1088.18  1108.76  1109.61  1115.31
eigval :     1118.34  1119.50  1121.15  1145.10  1145.60  1164.83
eigval :     1166.33  1171.22  1172.47  1178.79  1178.89  1179.65
eigval :     1182.25  1195.13  1195.31  1197.92  1199.74  1201.65
eigval :     1202.27  1203.11  1224.55  1227.14  1236.10  1239.02
eigval :     1239.54  1245.67  1247.91  1255.69  1256.39  1259.18
eigval :     1278.19  1279.62  1281.20  1282.53  1294.10  1294.16
eigval :     1302.72  1306.90  1308.02  1312.60  1317.00  1317.51
eigval :     1321.96  1323.76  1338.71  1339.11  1346.22  1356.24
eigval :     1372.70  1399.89  1400.61  1412.97  1417.96  1419.59
eigval :     1421.29  1428.19  1430.83  1439.73  1441.16  1454.62
eigval :     1458.41  1459.05  1464.44  1471.32  1471.75  1477.68
eigval :     1480.13  1487.83  1504.07  1510.96  1526.86  1537.45
eigval :     1560.51  1560.66  1563.00  1569.21  1569.48  1574.72
eigval :     1576.60  1577.92  1578.43  1579.61  1589.87  1592.44
eigval :     1595.90  1597.18  3063.01  3063.14  3067.01  3067.51
eigval :     3072.84  3073.15  3079.82  3080.65  3081.00  3081.80
eigval :     3088.05  3088.23  3088.40  3088.46  3091.16  3091.27
eigval :     3092.11  3092.82  3098.22  3099.80  3099.95  3100.01
eigval :     3100.31  3100.48  3100.77  3107.57  3107.61  3108.26
eigval :     3108.42  3108.99  3111.88  3112.01  3112.23  3112.90

   temp. (K)  partition function   enthalpy   heat capacity  entropy
                                   cal/mol     cal/K/mol   cal/K/mol   J/K/mol
 298.15  VIB  0.252E+23            28162.095    179.050    175.249
         ROT  0.224E+09              888.752      2.981     41.189
         INT  0.564E+31            29050.848    182.031    216.438
         TR   0.217E+29             1481.254      4.968     45.876
         TOT                       30532.1015   186.9989   262.3145  1097.5237

       T/K    H(0)-H(T)+PV         H(T)/Eh          T*S/Eh         G(T)/Eh
   ------------------------------------------------------------------------
    298.15    0.486560E-01    0.766484E+00    0.124634E+00    0.641850E+00
   ------------------------------------------------------------------------

         :::::::::::::::::::::::::::::::::::::::::::::::::::::
         ::                  THERMODYNAMIC                  ::
         :::::::::::::::::::::::::::::::::::::::::::::::::::::
         :: total free energy        -156.547807214373 Eh   ::
         ::.................................................::
         :: total energy             -157.189656889830 Eh   ::
         :: zero point energy           0.717827740497 Eh   ::
         :: G(RRHO) w/o ZPVE           -0.075978065041 Eh   ::
         :: G(RRHO) contrib.            0.641849675456 Eh   ::
         :::::::::::::::::::::::::::::::::::::::::::::::::::::

           -------------------------------------------------
          | TOTAL ENERGY             -157.189656889830 Eh   |
          | TOTAL ENTHALPY           -156.423173148475 Eh   |
          | TOTAL FREE ENERGY        -156.547807214373 Eh   |
          | GRADIENT NORM               0.000036804764 Eh/α |
          | HOMO-LUMO GAP               0.825425701094 eV   |
           -------------------------------------------------

 * finished run on 2025/08/22 at 17:43:20.767
