   * xtb version 6.7.1 (edcfbbe) compiled by 'albert@albert-system' on 2024-07-22

   ID    Z sym.   atoms
    1    6 C      1-7, 9-13, 15-20, 22-32, 34-39, 41-50, 52-62
    2    7 N      8, 14, 33, 51
    3    8 O      21, 40
    4    1 H      63-96

          program call               : xtb data2507/toluene/DBBPZ-DPXZ/DBBPZ-DPXZ_toluene_S0_crest.xyz --gfn 2 --gbsa toluene --ohess vtight --parallel 40 --molden --ceasefiles --namespace data2507/toluene/DBBPZ-DPXZ/DBBPZ-DPXZ_toluene_S0_finalOpt
      * Solvation model:               GBSA
        Solvent                        toluene
        Solvent mass                       9.2140E+01 g/mol
          :  Hamiltonian                  GFN2-xTB          :
 * total energy  :  -157.2352403 Eh     change       -0.5322676E-08 Eh
 * total energy  :  -157.2353029 Eh     change       -0.6263999E-04 Eh
 * total energy  :  -157.2353400 Eh     change       -0.3708722E-04 Eh
 * total energy  :  -157.2353585 Eh     change       -0.1853254E-04 Eh
 * total energy  :  -157.2353819 Eh     change       -0.2339379E-04 Eh
 * total energy  :  -157.2354099 Eh     change       -0.2795114E-04 Eh
 * total energy  :  -157.2354423 Eh     change       -0.3240442E-04 Eh
 * total energy  :  -157.2354794 Eh     change       -0.3710040E-04 Eh
 * total energy  :  -157.2355064 Eh     change       -0.2706371E-04 Eh
 * total energy  :  -157.2355202 Eh     change       -0.1375749E-04 Eh
 * total energy  :  -157.2357031 Eh     change       -0.1090866E-05 Eh
 * total energy  :  -157.2357048 Eh     change       -0.1653397E-05 Eh
 * total energy  :  -157.2357066 Eh     change       -0.1822008E-05 Eh
 * total energy  :  -157.2357079 Eh     change       -0.1315466E-05 Eh
 * total energy  :  -157.2357088 Eh     change       -0.8565875E-06 Eh
 * total energy  :  -157.2357094 Eh     change       -0.5855932E-06 Eh
 * total energy  :  -157.2357098 Eh     change       -0.4086369E-06 Eh
 * total energy  :  -157.2357100 Eh     change       -0.2069657E-06 Eh
 * total energy  :  -157.2357100 Eh     change       -0.7969902E-08 Eh
   *** GEOMETRY OPTIMIZATION CONVERGED AFTER 41 ITERATIONS ***

 final structure:
================
96
 xtb: 6.7.1 (edcfbbe)
C            9.82127624810023        2.93178304133027        0.05940416009773
C            8.84653027058478        3.27200871843692       -0.86396287946072
C            7.66921346023283        2.54914663251039       -0.92918095491960
C            7.45716544799957        1.46655256848025       -0.07932770103744
C            6.19328522483008        0.71089351616091       -0.14095046122215
C            5.00383247742357        1.39448462814928       -0.09838245525480
C            3.77234897490608        0.71191722729712       -0.09264894819711
N            2.62179736194754        1.39932695841369       -0.04389451394490
C            1.49236866290058        0.71300553845255       -0.02298233625555
C            0.23850237057909        1.42932584466733        0.02333835708635
C            0.24494336416292        2.82842165108747        0.00724124474032
C           -0.92715781597078        3.54241415623723        0.03179047629995
C           -2.14578203357785        2.85902333655320        0.08530734215208
N           -3.35872803145003        3.57994695809356        0.09988987521033
C           -3.63079682682402        4.48152050189616        1.13289400795956
C           -2.80452579483290        4.60733991306089        2.24345540272023
C           -3.10240115085826        5.51030833978726        3.25288847597886
C           -4.23602600881249        6.29435748561347        3.17673119655269
C           -5.08995317012181        6.15617618639225        2.09191614094614
C           -4.79823031093021        5.25480421886099        1.08482740303666
O           -5.71005566843552        5.14965934483814        0.06057560098571
C           -5.43877924734998        4.24216902877391       -0.93712017301792
C           -6.36712247308780        4.14421606646290       -1.95720474091928
C           -6.15287036744183        3.27780363084389       -3.01928413759311
C           -4.99528431175384        2.52726125248779       -3.05855043189873
C           -4.06281953678304        2.62009979401579       -2.03627784076331
C           -4.27600859452440        3.45937287096679       -0.94890284462906
C           -2.16355322613168        1.47449027582367        0.11512563638199
C           -0.98300511178863        0.72786485596001        0.07509961535687
C           -0.98331736720757       -0.72908357005993        0.06947659321655
C           -2.16318345607562       -1.47563199989726        0.12698593246131
C           -2.14714233725993       -2.85978709125102        0.08061297732508
N           -3.35894494759694       -3.58128945811549        0.11976145402531
C           -4.31006786074984       -3.44252015719469       -0.89627665306832
C           -4.13307226612899       -2.58355871514563       -1.97477356821137
C           -5.09908070388752       -2.47220007186843       -2.96346614939198
C           -6.25463753064549       -3.22425176748897       -2.89975573524773
C           -6.43330677575993       -4.11037055886650       -1.84748158039794
C           -5.47165418384199       -4.22642059154300       -0.86066523836037
O           -5.70961702543420       -5.15298850041007        0.12795769262016
C           -4.76792473010584       -5.27143981852460        1.12321039207188
C           -5.02948305394130       -6.18702710172929        2.12581255800472
C           -4.14401132125944       -6.33975610559351        3.18299191922078
C           -3.00954992379658       -5.55508817281355        3.23718046973725
C           -2.74221703996758       -4.63756330539817        2.23234983732805
C           -3.60027649307536       -4.49740234502839        1.14785822576317
C           -0.93036935476085       -3.54265148138599       -0.01087825275408
C            0.24170350000953       -2.82915526551863       -0.04641858402191
C            0.23690509572664       -1.43047395257607       -0.00772345318032
C            1.49123875382872       -0.71464844369547       -0.04732009799481
N            2.61938997719633       -1.40144774249722       -0.10009381259093
C            3.77101688006953       -0.71457352339051       -0.12504522068706
C            5.00057244802265       -1.39789265498476       -0.18699246528414
C            6.19124327875530       -0.71523064754854       -0.20416894882590
C            7.45104440730507       -1.47105386226912       -0.32177190068338
C            7.69743415159796       -2.55614894348106        0.51570683265511
C            8.87180831016027       -3.27776289754300        0.40209086807979
C            9.80959241957729       -2.93345284859783       -0.55732826515737
C            9.56528304625045       -1.86554957683288       -1.40541907019074
C            8.39611198064394       -1.13709915401216       -1.28878804520108
C            8.43950530592339        1.13629368749766        0.85107047774620
C            9.61157023926495        1.86623232725455        0.91965081837885
H           10.74022596584372        3.49708155001534        0.11022354460699
H            9.00381805352358        4.10323416199878       -1.53603477797597
H            6.91297211953993        2.80804229550783       -1.65678007693839
H            4.98626859413581        2.47263011228817       -0.04076363216579
H            1.20042794871245        3.32665197040584       -0.03925118507470
H           -0.91978967751318        4.62148586556604        0.00223455398771
H           -1.92281802466382        3.99113714364801        2.32311669100808
H           -2.43899538657909        5.59020046891258        4.10037201819106
H           -4.46980085455595        7.00298218499744        3.95551987313249
H           -5.99448050976784        6.73823968222472        2.00978489618003
H           -7.24998049249265        4.76180795691826       -1.90364980409739
H           -6.88418456573520        3.20627459203516       -3.80879432067993
H           -4.80166727508802        1.86520562951831       -3.88826671189827
H           -3.15468146867601        2.04125880090648       -2.09306807769670
H           -3.12303386579125        0.98600036695147        0.16871718357439
H           -3.12029454168127       -0.98718217555318        0.21299863284953
H           -3.22723334178795       -2.00344202543565       -2.05136148317201
H           -4.93374315723330       -1.79401208057182       -3.78622344328672
H           -7.01190670217208       -3.13863930516835       -3.66298060072393
H           -7.31356007594800       -4.72993587082380       -1.77646393659708
H           -5.93569761090131       -6.76878899828838        2.06202949223351
H           -4.35416878615196       -7.05981383195712        3.95802928486542
H           -2.32096363726789       -5.64647768837593        4.06310177035521
H           -1.85930739917392       -4.02117288979749        2.29545406736642
H           -0.92437902742410       -4.62117547931168       -0.05647600430633
H            1.19579960224800       -3.32730363852149       -0.11636084965658
H            4.97923745626022       -2.47602332381894       -0.24338602557649
H            6.97094901412643       -2.81776788259856        1.27207484426396
H            9.05600795018073       -4.11099086378466        1.06479341474533
H           10.72643204566734       -3.49751477723373       -0.64575045849332
H           10.28899414615509       -1.59797462301964       -2.16155231066559
H            8.20490931521204       -0.31217779694493       -1.95920173326211
H            8.27556204834204        0.31297882537371        1.53061548708966
H           10.36484141872782        1.60155470399343        1.64738085673291

          :  Hamiltonian                  GFN2-xTB          :
         :: gradient norm              0.000130862992 Eh/a0 ::
         :: HOMO-LUMO gap              1.024762742334 eV    ::
         :: SCC energy              -160.045226499587 Eh    ::
         :: -> dispersion             -0.141617507680 Eh    ::
         :: -> Gsolv                  -0.064362972502 Eh    ::
         :: repulsion energy           2.809516510633 Eh    ::

    * Orbital Energies and Occupations

         #    Occupation            Energy/Eh            Energy/eV
      -------------------------------------------------------------
         1        2.0000           -0.7311081             -19.8945
       ...           ...                  ...                  ...
       133        2.0000           -0.4144212             -11.2770
       134        2.0000           -0.4125686             -11.2266
       135        2.0000           -0.4088778             -11.1261
       136        2.0000           -0.4078521             -11.0982
       137        2.0000           -0.4049448             -11.0191
       138        2.0000           -0.4039261             -10.9914
       139        2.0000           -0.3939666             -10.7204
       140        2.0000           -0.3925656             -10.6823
       141        2.0000           -0.3911754             -10.6444
       142        2.0000           -0.3885788             -10.5738
       143        2.0000           -0.3564519              -9.6996
       144        2.0000           -0.3459169              -9.4129
       145        2.0000           -0.3450926              -9.3904 (HOMO)
       146                         -0.3074334              -8.3657 (LUMO)
       147                         -0.2756674              -7.5013
       148                         -0.2648560              -7.2071
       149                         -0.2450418              -6.6679
       150                         -0.2401412              -6.5346
       151                         -0.2400392              -6.5318
       152                         -0.2385627              -6.4916
       153                         -0.2315779              -6.3016
       154                         -0.2314476              -6.2980
       155                         -0.2285402              -6.2189
       156                         -0.2255717              -6.1381
       ...                                ...                  ...
       282                          0.7090007              19.2929
      -------------------------------------------------------------
                  HL-Gap            0.0376592 Eh            1.0248 eV

     #   Z          covCN         q      C6AA      α(0)
     1   6 C        2.920    -0.030    28.741     8.791
     2   6 C        2.918    -0.029    28.725     8.789
     3   6 C        2.925    -0.033    28.831     8.806
     4   6 C        2.979     0.013    27.717     8.636
     5   6 C        2.975     0.011    27.765     8.643
     6   6 C        2.923    -0.052    29.290     8.875
     7   6 C        2.964     0.081    26.194     8.395
     8   7 N        1.848    -0.264    27.701     7.800
     9   6 C        2.961     0.084    26.128     8.384
    10   6 C        2.987    -0.008    28.219     8.714
    11   6 C        2.923    -0.027    28.685     8.783
    12   6 C        2.918    -0.040    28.987     8.829
    13   6 C        2.919     0.068    26.488     8.440
    14   7 N        2.751    -0.071    22.625     7.065
    15   6 C        2.922     0.042    27.058     8.530
    16   6 C        2.924    -0.060    29.493     8.906
    17   6 C        2.919    -0.039    28.967     8.826
    18   6 C        2.919    -0.041    29.010     8.832
    19   6 C        2.919    -0.058    29.438     8.897
    20   6 C        2.882     0.123    25.308     8.247
    21   8 O        1.708    -0.271    18.500     5.807
    22   6 C        2.883     0.123    25.308     8.247
    23   6 C        2.920    -0.058    29.434     8.897
    24   6 C        2.919    -0.041    29.011     8.833
    25   6 C        2.919    -0.039    28.963     8.825
    26   6 C        2.924    -0.061    29.518     8.910
    27   6 C        2.920     0.042    27.063     8.531
    28   6 C        2.925    -0.047    29.173     8.858
    29   6 C        2.976     0.007    27.863     8.658
    30   6 C        2.976     0.007    27.863     8.659
    31   6 C        2.925    -0.047    29.175     8.858
    32   6 C        2.919     0.068    26.489     8.440
    33   7 N        2.751    -0.071    22.621     7.064
    34   6 C        2.920     0.042    27.064     8.531
    35   6 C        2.924    -0.061    29.519     8.910
    36   6 C        2.919    -0.039    28.963     8.825
    37   6 C        2.919    -0.041    29.011     8.833
    38   6 C        2.920    -0.058    29.434     8.897
    39   6 C        2.883     0.123    25.308     8.247
    40   8 O        1.708    -0.271    18.498     5.807
    41   6 C        2.882     0.123    25.307     8.247
    42   6 C        2.919    -0.058    29.438     8.897
    43   6 C        2.919    -0.041    29.009     8.832
    44   6 C        2.919    -0.039    28.967     8.826
    45   6 C        2.924    -0.060    29.492     8.906
    46   6 C        2.922     0.042    27.059     8.530
    47   6 C        2.918    -0.040    28.987     8.829
    48   6 C        2.923    -0.027    28.686     8.783
    49   6 C        2.987    -0.008    28.220     8.714
    50   6 C        2.961     0.084    26.128     8.384
    51   7 N        1.848    -0.264    27.701     7.800
    52   6 C        2.964     0.081    26.194     8.395
    53   6 C        2.923    -0.052    29.290     8.875
    54   6 C        2.975     0.011    27.766     8.643
    55   6 C        2.979     0.013    27.718     8.636
    56   6 C        2.925    -0.033    28.831     8.806
    57   6 C        2.918    -0.029    28.725     8.789
    58   6 C        2.920    -0.030    28.740     8.791
    59   6 C        2.919    -0.029    28.721     8.788
    60   6 C        2.924    -0.030    28.750     8.793
    61   6 C        2.924    -0.030    28.750     8.793
    62   6 C        2.919    -0.029    28.721     8.788
    63   1 H        0.926     0.036     2.502     2.474
    64   1 H        0.926     0.036     2.498     2.471
    65   1 H        0.926     0.034     2.532     2.488
    66   1 H        0.926     0.052     2.297     2.370
    67   1 H        0.926     0.064     2.151     2.293
    68   1 H        0.926     0.050     2.316     2.380
    69   1 H        0.926     0.040     2.454     2.450
    70   1 H        0.926     0.042     2.426     2.436
    71   1 H        0.926     0.043     2.415     2.430
    72   1 H        0.926     0.048     2.344     2.394
    73   1 H        0.926     0.048     2.343     2.394
    74   1 H        0.926     0.043     2.413     2.429
    75   1 H        0.926     0.042     2.425     2.435
    76   1 H        0.926     0.040     2.454     2.449
    77   1 H        0.926     0.052     2.296     2.370
    78   1 H        0.926     0.052     2.297     2.370
    79   1 H        0.926     0.040     2.449     2.447
    80   1 H        0.926     0.042     2.423     2.434
    81   1 H        0.926     0.043     2.413     2.429
    82   1 H        0.926     0.048     2.343     2.394
    83   1 H        0.926     0.048     2.343     2.394
    84   1 H        0.926     0.043     2.414     2.430
    85   1 H        0.926     0.042     2.426     2.435
    86   1 H        0.926     0.040     2.454     2.450
    87   1 H        0.926     0.050     2.316     2.380
    88   1 H        0.926     0.064     2.151     2.293
    89   1 H        0.926     0.052     2.296     2.369
    90   1 H        0.926     0.034     2.531     2.488
    91   1 H        0.926     0.036     2.497     2.471
    92   1 H        0.926     0.036     2.502     2.473
    93   1 H        0.926     0.035     2.514     2.479
    94   1 H        0.926     0.031     2.570     2.507
    95   1 H        0.926     0.031     2.572     2.508
    96   1 H        0.926     0.035     2.513     2.479

molecular dipole:
                 x           y           z       tot (Debye)
 q only:        1.437      -0.004      -0.015
   full:        1.486      -0.003      -0.022       3.778

 projected vibrational frequencies (cm⁻¹)
eigval :       -0.00    -0.00    -0.00    -0.00     0.00     0.00
eigval :       -2.01    10.13    12.36    15.99    20.03    21.35
eigval :       30.79    36.93    37.65    44.64    45.35    55.26
eigval :       57.34    63.24    79.63    83.12    91.20    95.36
eigval :      104.38   106.27   116.56   121.41   131.68   146.63
eigval :      153.43   189.90   196.89   210.70   214.38   233.41
eigval :      236.32   242.42   246.52   248.13   251.40   262.38
eigval :      269.65   284.95   290.80   299.78   303.03   321.85
eigval :      357.56   368.03   372.47   374.06   375.07   378.11
eigval :      387.65   390.63   399.25   416.93   420.41   421.50
eigval :      428.74   429.83   437.99   441.46   443.69   448.97
eigval :      454.97   466.20   474.91   490.51   505.57   508.45
eigval :      509.47   516.97   518.53   524.26   525.29   530.00
eigval :      561.49   570.23   570.80   577.21   580.55   584.28
eigval :      590.95   591.23   600.28   617.23   619.09   624.82
eigval :      643.46   646.43   654.45   658.48   659.05   660.55
eigval :      661.85   666.45   670.49   677.25   692.57   693.76
eigval :      696.30   707.88   727.12   733.53   741.62   760.62
eigval :      761.48   764.34   765.60   773.90   775.43   779.95
eigval :      780.57   800.41   821.76   831.31   833.32   852.90
eigval :      853.17   854.65   856.33   859.90   862.70   866.66
eigval :      868.09   873.29   873.60   875.05   881.23   886.62
eigval :      896.58   897.67   898.51   900.57   903.30   904.84
eigval :      907.06   909.36   910.72   915.12   915.73   916.18
eigval :      919.03   926.15   927.01   927.24   927.83   928.26
eigval :      929.50   931.65   970.68   975.74  1001.79  1007.40
eigval :     1046.91  1063.84  1067.29  1082.60  1085.04  1089.05
eigval :     1090.24  1090.34  1091.69  1105.35  1106.05  1116.02
eigval :     1119.34  1121.08  1121.15  1145.22  1147.30  1166.85
eigval :     1167.74  1171.05  1173.56  1179.60  1179.92  1179.99
eigval :     1184.55  1195.90  1196.63  1197.20  1198.88  1199.40
eigval :     1200.81  1207.11  1222.43  1227.78  1232.49  1241.10
eigval :     1242.53  1252.18  1257.99  1260.40  1265.50  1273.43
eigval :     1275.06  1278.98  1281.19  1283.91  1302.86  1303.80
eigval :     1307.06  1310.10  1314.52  1316.58  1319.24  1325.32
eigval :     1331.54  1338.96  1347.60  1352.41  1358.12  1379.18
eigval :     1399.53  1417.08  1420.31  1420.91  1422.52  1425.00
eigval :     1432.34  1434.50  1441.11  1442.73  1451.57  1468.36
eigval :     1472.61  1478.84  1479.86  1481.05  1482.58  1491.65
eigval :     1500.82  1501.15  1520.33  1541.99  1550.31  1565.72
eigval :     1565.94  1574.32  1577.47  1578.53  1578.96  1579.82
eigval :     1583.11  1587.54  1588.55  1589.81  1596.62  1599.13
eigval :     1601.42  1601.75  3069.08  3069.38  3072.24  3072.75
eigval :     3078.16  3078.66  3084.10  3085.12  3086.81  3087.62
eigval :     3088.83  3089.49  3090.33  3090.56  3092.02  3092.18
eigval :     3092.40  3092.65  3095.87  3095.97  3096.41  3097.02
eigval :     3103.60  3103.86  3104.02  3104.76  3105.41  3108.69
eigval :     3108.86  3109.75  3110.47  3110.95  3111.14  3115.52

   temp. (K)  partition function   enthalpy   heat capacity  entropy
                                   cal/mol     cal/K/mol   cal/K/mol   J/K/mol
 298.15  VIB  0.116E+24            28041.398    177.778    175.934
         ROT  0.223E+09              888.752      2.981     41.178
         INT  0.259E+32            28930.151    180.759    217.112
         TR   0.217E+29             1481.254      4.968     45.876
         TOT                       30411.4045   185.7267   262.9886  1100.3443

       T/K    H(0)-H(T)+PV         H(T)/Eh          T*S/Eh         G(T)/Eh
   ------------------------------------------------------------------------
    298.15    0.484637E-01    0.768987E+00    0.124954E+00    0.644033E+00
   ------------------------------------------------------------------------

         :::::::::::::::::::::::::::::::::::::::::::::::::::::
         ::                  THERMODYNAMIC                  ::
         :::::::::::::::::::::::::::::::::::::::::::::::::::::
         :: total free energy        -156.591676883498 Eh   ::
         ::.................................................::
         :: total energy             -157.235709986985 Eh   ::
         :: zero point energy           0.720523817372 Eh   ::
         :: G(RRHO) w/o ZPVE           -0.076490713884 Eh   ::
         :: G(RRHO) contrib.            0.644033103488 Eh   ::
         :::::::::::::::::::::::::::::::::::::::::::::::::::::

           -------------------------------------------------
          | TOTAL ENERGY             -157.235709986985 Eh   |
          | TOTAL ENTHALPY           -156.466722511668 Eh   |
          | TOTAL FREE ENERGY        -156.591676883498 Eh   |
          | GRADIENT NORM               0.000130862070 Eh/α |
          | HOMO-LUMO GAP               1.024760123823 eV   |
           -------------------------------------------------

 * finished run on 2025/08/22 at 17:43:07.852
