   * xtb version 6.7.1 (edcfbbe) compiled by 'albert@albert-system' on 2024-07-22

   ID    Z sym.   atoms
    1    6 C      1-7, 9-13, 15-20, 22-32, 34-39, 41-50, 52-62
    2    7 N      8, 14, 33, 51
    3    8 O      21, 40
    4    1 H      63-96

          program call               : xtb data2507/toluene/DBBPZ-DPXZ/DBBPZ-DPXZ_toluene_T1_crest.xyz --gfn 2 --uhf 2 --gbsa toluene --ohess vtight --parallel 40 --molden --ceasefiles --namespace data2507/toluene/DBBPZ-DPXZ/DBBPZ-DPXZ_toluene_T1_finalOpt
      * Solvation model:               GBSA
        Solvent                        toluene
        Solvent mass                       9.2140E+01 g/mol
          :  Hamiltonian                  GFN2-xTB          :
 * total energy  :  -157.1894358 Eh     change        0.1996511E-08 Eh
 * total energy  :  -157.1895293 Eh     change       -0.9349406E-04 Eh
 * total energy  :  -157.1895769 Eh     change       -0.4760581E-04 Eh
 * total energy  :  -157.1895857 Eh     change       -0.8781599E-05 Eh
 * total energy  :  -157.1895909 Eh     change       -0.5182081E-05 Eh
 * total energy  :  -157.1895955 Eh     change       -0.4621969E-05 Eh
 * total energy  :  -157.1896001 Eh     change       -0.4599709E-05 Eh
 * total energy  :  -157.1896036 Eh     change       -0.3480324E-05 Eh
 * total energy  :  -157.1896072 Eh     change       -0.3591527E-05 Eh
 * total energy  :  -157.1896119 Eh     change       -0.4769746E-05 Eh
 * total energy  :  -157.1896653 Eh     change       -0.2707954E-06 Eh
 * total energy  :  -157.1896655 Eh     change       -0.1928840E-06 Eh
 * total energy  :  -157.1896656 Eh     change       -0.1524305E-06 Eh
 * total energy  :  -157.1896658 Eh     change       -0.1398120E-06 Eh
 * total energy  :  -157.1896659 Eh     change       -0.1609754E-06 Eh
 * total energy  :  -157.1896661 Eh     change       -0.1838046E-06 Eh
 * total energy  :  -157.1896663 Eh     change       -0.1664514E-06 Eh
 * total energy  :  -157.1896664 Eh     change       -0.1036225E-06 Eh
 * total energy  :  -157.1896664 Eh     change       -0.3108596E-07 Eh
   *** GEOMETRY OPTIMIZATION CONVERGED AFTER 37 ITERATIONS ***

 final structure:
================
96
 xtb: 6.7.1 (edcfbbe)
C            9.81142102800165        2.98657822122787        0.02692724864772
C            8.81820438741902        3.31501663321008       -0.88087703797554
C            7.65283373947216        2.57249159076869       -0.93481796587459
C            7.46674091994284        1.48190169113425       -0.08807447747631
C            6.21676247648874        0.70577225568502       -0.13766962114873
C            5.00676703206462        1.38794347946397       -0.09508145391150
C            3.78458635037611        0.72135449508220       -0.07294003377787
N            2.61830836742090        1.37585731955579       -0.03283282480616
C            1.46796627641886        0.71123676315517        0.00446270283623
C            0.22536270284504        1.41540654118508        0.05407625286966
C            0.23303830938963        2.82086888889551        0.03404622637659
C           -0.93181349924885        3.53767525096275        0.05109932787837
C           -2.15716190103230        2.85457952930942        0.11007600049135
N           -3.36919513795629        3.58932819675244        0.11055098249377
C           -3.66617957389166        4.44809384811785        1.16434299883707
C           -2.86688400380556        4.52952286980580        2.30103190696269
C           -3.18857482413217        5.39851949513121        3.33017436970421
C           -4.31702230231777        6.19410962194724        3.24929921708807
C           -5.13994687834956        6.10588499659376        2.13712140163597
C           -4.82513122146521        5.23802069626129        1.10620624729476
O           -5.69477370323366        5.18239391722470        0.04708319832020
C           -5.40351639553343        4.30877167513269       -0.96983290794000
C           -6.29917000042697        4.25118540315124       -2.02348919906080
C           -6.05989974583500        3.40842892657620       -3.09763503789411
C           -4.91254618873738        2.63675441481473       -3.11713978693222
C           -4.01161416920849        2.69058463256370       -2.06674438183789
C           -4.24735598174516        3.51165944200339       -0.96751865995526
C           -2.18625760150456        1.47745512816083        0.15282135234630
C           -1.00798024456313        0.71845955133768        0.11193309856769
C           -1.00719433459677       -0.72213709572997        0.10653634538796
C           -2.18420413719658       -1.48269594450381        0.15416181155208
C           -2.15428558599198       -2.85936577355425        0.09949414444362
N           -3.36521448995380       -3.59582539723701        0.11148788505532
C           -4.25978111037537       -3.51008803060922       -0.95235581877331
C           -4.04293808399848       -2.67770320801313       -2.04693548918630
C           -4.96002096862374       -2.61594096136629       -3.08281672735904
C           -6.10512926929757       -3.39065335501635       -3.05322929111035
C           -6.32595148661798       -4.24432959996629       -1.98376888940545
C           -5.41401331037176       -4.30994342426570       -0.94466125201255
O           -5.68764963217907       -5.19398639542000        0.06812032839310
C           -4.80357999862594       -5.25522966389700        1.11490569298484
C           -5.10225325659436       -6.13147162666898        2.14352179358503
C           -4.26440654669398       -6.22537390081890        3.24403489462129
C           -3.13711374092328       -5.42725435595319        3.31559694219610
C           -2.83127791163157       -4.55021917814638        2.28841628859507
C           -3.64585390859678       -4.46282719574285        1.16305970421112
C           -0.92916181803551       -3.54052552424164        0.01855295029620
C            0.23486489228635       -2.82246609830060       -0.00330226676978
C            0.22632512269341       -1.41735800778915        0.03310477074871
C            1.46835289020855       -0.71168686884434       -0.01098871844291
N            2.61882675966515       -1.37472421833319       -0.06645686184685
C            3.78493033464816       -0.71893472162103       -0.09316237145626
C            5.00666956504718       -1.38393754131356       -0.15249297339205
C            6.21654626878777       -0.70045770008950       -0.17989980778970
C            7.46424616621818       -1.47360997491345       -0.29251530768154
C            7.69119280989222       -2.56771579300396        0.53985078401943
C            8.85518590603429       -3.30628490284479        0.43108234600535
C            9.80679497713425       -2.97011566385288       -0.51754849769753
C            9.58453756801542       -1.89265871718044       -1.35978488942347
C            8.42398001414455       -1.15008279267137       -1.24967684698165
C            8.46814418247749        1.16602915940787        0.82793285639321
C            9.63000649308878        1.91263450998581        0.88338577977020
H           10.72183533363609        3.56662117867992        0.06855599718360
H            8.95259865576648        4.15244318472481       -1.55080503621397
H            6.88351270882986        2.82278465732380       -1.65204758486224
H            4.99568311499583        2.46685696719833       -0.04575183742742
H            1.19192984968135        3.31413330396165       -0.01233858797868
H           -0.92318050976641        4.61644312042038        0.01362310121584
H           -1.99044038278010        3.90583302152763        2.37771875439431
H           -2.54992208621752        5.44646884343600        4.19858959450733
H           -4.56683998964150        6.87508693650350        4.04732115123346
H           -6.03538428624776        6.70066628884085        2.04978273429087
H           -7.17517015180195        4.87911827059398       -1.98376512287339
H           -6.76414430885531        3.36730982899549       -3.91327065087031
H           -4.70665077457332        1.98804695163801       -3.95432886594318
H           -3.11206629747054        2.09715198409256       -2.10236127811905
H           -3.14775062052461        0.99256373213543        0.21057510930586
H           -3.14519449413276       -0.99932717394811        0.22997806176418
H           -3.14548792043531       -2.08165253426960       -2.09038564030431
H           -4.76866165898448       -1.95840443782392       -3.91654565399681
H           -6.82176458427726       -3.34333639506907       -3.85767170649307
H           -7.19990889114436       -4.87458618381089       -1.93640935372901
H           -5.99719019439284       -6.72806009895135        2.06368339733373
H           -4.50182217881505       -6.91264892866974        4.04045792644327
H           -2.48700431005193       -5.47954169769261        4.17521989818915
H           -1.95534705416110       -3.92493007599044        2.35785704313871
H           -0.92001563319042       -4.61885182054150       -0.02988384927184
H            1.19364055521847       -3.31435458890610       -0.06442667929739
H            4.99363596669702       -2.46285426558266       -0.20040885415459
H            6.95547746486597       -2.82366255342563        1.28959445632902
H            9.02156035398593       -4.14643925689869        1.09033292468145
H           10.71622750226755       -3.54699101748290       -0.60196514124918
H           10.31878266787779       -1.63015354489060       -2.10799696211890
H            8.25037432476177       -0.31796875138520       -1.91641187467820
H            8.32578254120976        0.33679634168409        1.50561970433206
H           10.39748110658331        1.65609722068820        1.59962100655220

          :  Hamiltonian                  GFN2-xTB          :
         :: gradient norm              0.000074916370 Eh/a0 ::
         :: HOMO-LUMO gap              0.825309659904 eV    ::
         :: SCC energy              -159.999130809208 Eh    ::
         :: -> dispersion             -0.141357462138 Eh    ::
         :: -> Gsolv                  -0.066079933654 Eh    ::
         :: repulsion energy           2.809464412154 Eh    ::

    * Orbital Energies and Occupations

         #    Occupation            Energy/Eh            Energy/eV
      -------------------------------------------------------------
         1        2.0000           -0.7407154             -20.1559
       ...           ...                  ...                  ...
       134        2.0000           -0.4055389             -11.0353
       135        2.0000           -0.4020259             -10.9397
       136        2.0000           -0.4017812             -10.9330
       137        2.0000           -0.4000795             -10.8867
       138        2.0000           -0.3991848             -10.8624
       139        2.0000           -0.3968994             -10.8002
       140        2.0000           -0.3965755             -10.7914
       141        2.0000           -0.3803915             -10.3510
       142        2.0000           -0.3793347             -10.3222
       143        1.8774           -0.3517155              -9.5707
       144        1.8446           -0.3514537              -9.5635
       145        1.2780           -0.3489386              -9.4951
       146        1.0000           -0.2991580              -8.1405 (HOMO)
       147        0.0000           -0.2688282              -7.3152 (LUMO)
       148                         -0.2589641              -7.0468
       149                         -0.2476230              -6.7382
       150                         -0.2475884              -6.7372
       151                         -0.2380594              -6.4779
       152                         -0.2374833              -6.4623
       153                         -0.2374646              -6.4617
       154                         -0.2310963              -6.2885
       155                         -0.2233683              -6.0782
       156                         -0.2231905              -6.0733
       157                         -0.2228578              -6.0643
       ...                                ...                  ...
       282                          0.7117427              19.3675
      -------------------------------------------------------------
                  HL-Gap            0.0303298 Eh            0.8253 eV

     #   Z          covCN         q      C6AA      α(0)
     1   6 C        2.920    -0.033    28.824     8.804
     2   6 C        2.918    -0.031    28.777     8.797
     3   6 C        2.925    -0.036    28.885     8.814
     4   6 C        2.978     0.013    27.727     8.637
     5   6 C        2.975    -0.002    28.083     8.693
     6   6 C        2.924    -0.067    29.674     8.933
     7   6 C        2.942     0.084    26.121     8.382
     8   7 N        1.848    -0.262    27.656     7.794
     9   6 C        2.944     0.079    26.228     8.400
    10   6 C        2.986    -0.012    28.308     8.728
    11   6 C        2.923    -0.029    28.713     8.787
    12   6 C        2.917    -0.044    29.095     8.845
    13   6 C        2.919     0.056    26.752     8.482
    14   7 N        2.752    -0.052    22.247     7.005
    15   6 C        2.923     0.044    27.005     8.522
    16   6 C        2.922    -0.056    29.385     8.889
    17   6 C        2.918    -0.035    28.871     8.811
    18   6 C        2.919    -0.036    28.899     8.815
    19   6 C        2.918    -0.055    29.376     8.888
    20   6 C        2.883     0.126    25.244     8.237
    21   8 O        1.709    -0.254    18.202     5.760
    22   6 C        2.883     0.126    25.243     8.237
    23   6 C        2.918    -0.055    29.370     8.887
    24   6 C        2.919    -0.036    28.901     8.816
    25   6 C        2.918    -0.035    28.870     8.811
    26   6 C        2.922    -0.057    29.414     8.894
    27   6 C        2.922     0.044    27.016     8.524
    28   6 C        2.922    -0.047    29.166     8.856
    29   6 C        2.976    -0.002    28.071     8.691
    30   6 C        2.976    -0.002    28.071     8.691
    31   6 C        2.922    -0.047    29.166     8.856
    32   6 C        2.919     0.056    26.751     8.482
    33   7 N        2.752    -0.052    22.247     7.005
    34   6 C        2.922     0.044    27.016     8.524
    35   6 C        2.922    -0.057    29.415     8.894
    36   6 C        2.918    -0.035    28.870     8.811
    37   6 C        2.919    -0.036    28.901     8.816
    38   6 C        2.918    -0.055    29.370     8.887
    39   6 C        2.883     0.126    25.243     8.237
    40   8 O        1.709    -0.254    18.202     5.760
    41   6 C        2.883     0.126    25.244     8.237
    42   6 C        2.918    -0.055    29.376     8.888
    43   6 C        2.919    -0.036    28.899     8.815
    44   6 C        2.918    -0.035    28.871     8.811
    45   6 C        2.922    -0.056    29.384     8.889
    46   6 C        2.923     0.044    27.005     8.522
    47   6 C        2.917    -0.044    29.095     8.845
    48   6 C        2.923    -0.029    28.713     8.787
    49   6 C        2.986    -0.012    28.308     8.728
    50   6 C        2.944     0.079    26.228     8.399
    51   7 N        1.848    -0.262    27.656     7.794
    52   6 C        2.942     0.084    26.123     8.383
    53   6 C        2.924    -0.067    29.675     8.933
    54   6 C        2.975    -0.003    28.084     8.693
    55   6 C        2.977     0.013    27.730     8.638
    56   6 C        2.925    -0.036    28.886     8.814
    57   6 C        2.918    -0.031    28.777     8.797
    58   6 C        2.920    -0.033    28.824     8.804
    59   6 C        2.918    -0.031    28.766     8.795
    60   6 C        2.924    -0.032    28.805     8.802
    61   6 C        2.924    -0.032    28.805     8.801
    62   6 C        2.918    -0.031    28.765     8.795
    63   1 H        0.926     0.032     2.563     2.504
    64   1 H        0.926     0.032     2.563     2.503
    65   1 H        0.926     0.029     2.599     2.521
    66   1 H        0.926     0.038     2.470     2.458
    67   1 H        0.926     0.053     2.286     2.364
    68   1 H        0.926     0.044     2.395     2.420
    69   1 H        0.926     0.046     2.373     2.409
    70   1 H        0.926     0.047     2.353     2.399
    71   1 H        0.926     0.049     2.332     2.388
    72   1 H        0.926     0.055     2.261     2.351
    73   1 H        0.926     0.055     2.261     2.351
    74   1 H        0.926     0.050     2.325     2.385
    75   1 H        0.926     0.048     2.340     2.392
    76   1 H        0.926     0.046     2.366     2.405
    77   1 H        0.926     0.047     2.351     2.398
    78   1 H        0.926     0.047     2.351     2.398
    79   1 H        0.926     0.046     2.365     2.405
    80   1 H        0.926     0.048     2.340     2.392
    81   1 H        0.926     0.050     2.326     2.385
    82   1 H        0.926     0.055     2.261     2.351
    83   1 H        0.926     0.055     2.261     2.351
    84   1 H        0.926     0.049     2.332     2.388
    85   1 H        0.926     0.047     2.353     2.399
    86   1 H        0.926     0.046     2.374     2.410
    87   1 H        0.926     0.044     2.395     2.420
    88   1 H        0.926     0.053     2.286     2.364
    89   1 H        0.926     0.039     2.469     2.457
    90   1 H        0.926     0.029     2.598     2.521
    91   1 H        0.926     0.032     2.563     2.504
    92   1 H        0.926     0.032     2.564     2.504
    93   1 H        0.926     0.030     2.580     2.512
    94   1 H        0.926     0.026     2.641     2.541
    95   1 H        0.926     0.026     2.643     2.542
    96   1 H        0.926     0.030     2.579     2.512

molecular dipole:
                 x           y           z       tot (Debye)
 q only:       -2.691       0.002       0.072
   full:       -2.539       0.003       0.080       6.458

 projected vibrational frequencies (cm⁻¹)
eigval :       -0.00    -0.00    -0.00    -0.00     0.00     0.00
eigval :        6.54    11.99    13.43    17.21    19.54    24.84
eigval :       29.75    37.06    41.56    44.67    49.05    57.42
eigval :       58.79    62.22    81.70    82.81    89.51    92.25
eigval :      106.67   108.70   115.39   122.00   127.15   144.12
eigval :      152.05   186.78   190.03   208.84   215.16   233.42
eigval :      235.58   239.98   244.58   246.97   249.15   264.16
eigval :      268.20   287.26   292.89   299.45   303.45   312.49
eigval :      347.31   362.80   371.12   374.35   375.58   377.80
eigval :      383.10   391.35   397.83   416.82   417.72   419.06
eigval :      428.41   429.80   434.14   436.36   444.50   447.67
eigval :      456.10   471.43   475.37   489.56   504.74   505.46
eigval :      508.18   512.31   517.45   524.69   527.13   527.52
eigval :      554.97   566.00   566.36   576.61   577.78   579.82
eigval :      586.94   591.17   595.92   615.59   616.02   620.17
eigval :      622.18   635.68   649.81   652.57   662.74   663.48
eigval :      665.00   666.10   669.24   673.86   677.08   680.20
eigval :      690.42   692.73   702.34   719.63   720.70   727.36
eigval :      757.59   758.77   764.15   774.46   778.58   780.43
eigval :      780.98   798.31   818.14   820.91   822.38   823.86
eigval :      826.84   853.58   853.64   853.80   856.46   863.77
eigval :      868.64   868.95   869.46   873.20   874.47   879.21
eigval :      897.48   899.48   899.72   901.52   901.59   902.27
eigval :      902.66   912.36   914.60   914.92   915.29   915.56
eigval :      915.90   919.20   920.23   922.33   923.55   924.01
eigval :      928.24   928.98   958.68   971.80   997.62  1004.83
eigval :     1037.97  1063.90  1072.71  1082.57  1085.77  1086.06
eigval :     1086.22  1086.99  1087.72  1109.21  1109.53  1115.26
eigval :     1118.68  1119.32  1121.03  1144.71  1145.46  1165.31
eigval :     1166.63  1171.58  1172.72  1179.25  1179.45  1179.73
eigval :     1182.39  1195.19  1195.49  1197.82  1199.80  1201.30
eigval :     1202.14  1203.28  1222.49  1227.06  1236.17  1238.69
eigval :     1239.30  1245.71  1247.87  1255.07  1256.14  1259.07
eigval :     1278.29  1279.56  1281.09  1282.44  1294.08  1294.24
eigval :     1302.70  1306.86  1307.97  1312.60  1317.04  1317.57
eigval :     1321.91  1323.69  1338.55  1338.92  1346.23  1356.32
eigval :     1372.80  1399.80  1400.60  1413.00  1418.30  1419.76
eigval :     1421.27  1428.25  1430.90  1440.09  1441.28  1454.56
eigval :     1458.26  1458.91  1464.82  1471.27  1471.96  1477.57
eigval :     1480.13  1487.76  1504.04  1510.98  1526.80  1537.40
eigval :     1560.53  1560.65  1562.89  1569.32  1569.50  1574.89
eigval :     1576.38  1577.99  1578.41  1579.62  1589.74  1592.49
eigval :     1595.94  1597.22  3063.15  3063.58  3066.60  3067.46
eigval :     3072.84  3073.22  3079.73  3080.48  3080.56  3081.50
eigval :     3087.91  3088.25  3088.36  3088.45  3091.42  3091.58
eigval :     3092.09  3092.83  3098.22  3099.95  3100.02  3100.06
eigval :     3100.19  3100.38  3100.60  3107.54  3107.65  3108.01
eigval :     3108.12  3109.00  3111.97  3112.04  3112.12  3112.76

   temp. (K)  partition function   enthalpy   heat capacity  entropy
                                   cal/mol     cal/K/mol   cal/K/mol   J/K/mol
 298.15  VIB  0.238E+23            28167.168    179.056    175.241
         ROT  0.224E+09              888.752      2.981     41.189
         INT  0.533E+31            29055.921    182.037    216.430
         TR   0.217E+29             1481.254      4.968     45.876
         TOT                       30537.1747   187.0055   262.3063  1097.4894

       T/K    H(0)-H(T)+PV         H(T)/Eh          T*S/Eh         G(T)/Eh
   ------------------------------------------------------------------------
    298.15    0.486641E-01    0.766492E+00    0.124630E+00    0.641861E+00
   ------------------------------------------------------------------------

         :::::::::::::::::::::::::::::::::::::::::::::::::::::
         ::                  THERMODYNAMIC                  ::
         :::::::::::::::::::::::::::::::::::::::::::::::::::::
         :: total free energy        -156.547804910701 Eh   ::
         ::.................................................::
         :: total energy             -157.189666390175 Eh   ::
         :: zero point energy           0.717827562243 Eh   ::
         :: G(RRHO) w/o ZPVE           -0.075966082768 Eh   ::
         :: G(RRHO) contrib.            0.641861479474 Eh   ::
         :::::::::::::::::::::::::::::::::::::::::::::::::::::

           -------------------------------------------------
          | TOTAL ENERGY             -157.189666390175 Eh   |
          | TOTAL ENTHALPY           -156.423174742466 Eh   |
          | TOTAL FREE ENERGY        -156.547804910701 Eh   |
          | GRADIENT NORM               0.000084730221 Eh/α |
          | HOMO-LUMO GAP               0.825316323366 eV   |
           -------------------------------------------------

 * finished run on 2025/08/22 at 17:52:32.379
