   * xtb version 6.7.1 (edcfbbe) compiled by 'albert@albert-system' on 2024-07-22

   ID    Z sym.   atoms
    1    6 C      1-4, 6-20, 22-36, 38-45, 47, 48, 50-55
    2    7 N      5, 21, 37, 46, 49
    3    1 H      56-90

          program call               : xtb data2507/toluene/2F/2F_toluene_S0_finalOpt.xtbopt.xyz --gfn 2 --uhf 2 --gbsa toluene --ohess vtight --parallel 40 --molden --ceasefiles --namespace data2507/toluene/2F/2F_toluene_T1_preOpt
      * Solvation model:               GBSA
        Solvent                        toluene
        Solvent mass                       9.2140E+01 g/mol
          :  Hamiltonian                  GFN2-xTB          :
 * total energy  :  -139.5734877 Eh     change       -0.3073211E-08 Eh
 * total energy  :  -139.5767361 Eh     change       -0.3248357E-02 Eh
 * total energy  :  -139.5775216 Eh     change       -0.7854787E-03 Eh
 * total energy  :  -139.5776244 Eh     change       -0.1028553E-03 Eh
 * total energy  :  -139.5776709 Eh     change       -0.4646211E-04 Eh
 * total energy  :  -139.5776848 Eh     change       -0.1391218E-04 Eh
 * total energy  :  -139.5777028 Eh     change       -0.1804910E-04 Eh
 * total energy  :  -139.5777265 Eh     change       -0.2362531E-04 Eh
 * total energy  :  -139.5777599 Eh     change       -0.3342863E-04 Eh
 * total energy  :  -139.5777829 Eh     change       -0.2305149E-04 Eh
 * total energy  :  -139.5778915 Eh     change       -0.2548331E-06 Eh
 * total energy  :  -139.5778918 Eh     change       -0.2193158E-06 Eh
 * total energy  :  -139.5778919 Eh     change       -0.1571758E-06 Eh
 * total energy  :  -139.5778920 Eh     change       -0.1117522E-06 Eh
 * total energy  :  -139.5778921 Eh     change       -0.1108700E-06 Eh
 * total energy  :  -139.5778923 Eh     change       -0.1393639E-06 Eh
 * total energy  :  -139.5778925 Eh     change       -0.1936478E-06 Eh
 * total energy  :  -139.5778926 Eh     change       -0.1671354E-06 Eh
 * total energy  :  -139.5778927 Eh     change       -0.9203583E-07 Eh
   *** GEOMETRY OPTIMIZATION CONVERGED AFTER 40 ITERATIONS ***

 final structure:
================
90
 xtb: 6.7.1 (edcfbbe)
C           -1.75905865163966       -7.56994106779162        2.38784274999301
C           -2.39400840678973       -7.67178382038014        1.15998271742637
C           -2.67666164024262       -6.53836106563969        0.42238496581557
C           -2.33010838309153       -5.27809835894767        0.91113372339571
N           -2.61712775013435       -4.12574489009143        0.16974688465966
C           -3.81708735463017       -4.03463301162397       -0.54402471222163
C           -4.98999860816712       -4.58864820855896       -0.02883382230220
C           -6.17141555480118       -4.50144969393293       -0.73962704753637
C           -6.20761137416967       -3.85633337843513       -1.96581104357085
C           -5.04692626356176       -3.29983666205544       -2.47968953555809
C           -3.85866323391205       -3.38911941909059       -1.78101651301684
C           -1.70771493945127       -3.06396106662826        0.14697246846360
C           -0.32698412621431       -3.32580073543861        0.13734263112070
C            0.60316123777756       -2.31016468723202        0.10283208114399
C            0.14402691785987       -0.99859202381050        0.06125712401269
C           -1.24426014920965       -0.72005272511986        0.09412894135569
C           -2.16818692212439       -1.74891920251659        0.13840929069882
C           -1.36979391408826        0.71200351002741        0.08297511061765
C           -2.45934462495607        1.56493196416859        0.09066799937953
C           -2.23444865664001        2.93908152012521        0.04547874475324
N           -3.31401425575187        3.82824223829730        0.04757624082167
C           -3.22296428487500        5.03634505925237        0.74747222499215
C           -3.80510545971192        6.19698959996518        0.23601925575940
C           -3.71660861003904        7.38525692784040        0.93502415571746
C           -3.04323772300176        7.43982214127954        2.14531392612152
C           -2.45825522428907        6.29127353151454        2.65482537047888
C           -2.54747148898129        5.09642822805076        1.96737562428841
C           -4.48580444994259        3.50525456731083       -0.64595867213409
C           -4.42158198145187        2.82884948868468       -1.86525823270572
C           -5.58053888618511        2.50975090505019       -2.54576249419693
C           -6.81766403013121        2.86291743953022       -2.03021965895361
C           -6.88712774753197        3.53686190063771       -0.82109953601623
C           -5.73431005392457        3.85412794747421       -0.12891234244378
C           -0.92141433378631        3.43597095291918       -0.01708306105178
C            0.17163578369057        2.59777731530263       -0.01780799099002
C           -0.05101504287594        1.22697961127226        0.04741282138645
N            0.84798524018744        0.18436641294387        0.03493226695171
C            2.24703596374342        0.30705503937895       -0.00845260764155
C            2.98525811140730       -0.39528985661095       -0.95817165875454
C            4.35853121603571       -0.27927634364452       -0.99345072054036
C            5.03952263064781        0.54752375025651       -0.09436036041172
C            6.49520286839898        0.67042305054971       -0.13919190647401
C            7.12156369458745        1.88234433723022        0.15277234374976
C            8.49513108758506        2.01278674275307        0.09661028954489
C            9.31341178702536        0.93023988419386       -0.24145773094120
N           10.64192847953632        1.03194538740512       -0.29263944291815
C           11.37224545656217       -0.03731919245202       -0.61830328468833
C           10.77135382554879       -1.24499964210150       -0.90393290980124
N            9.45029071090690       -1.38717252062829       -0.86877879564299
C            8.67921250139007       -0.33419939948329       -0.54354081908013
C            7.29556241196711       -0.42657835359785       -0.48645105704868
C            4.28324240449729        1.25139784333651        0.84794637433397
C            2.91052724582524        1.13209262654219        0.89663080847569
C           -1.69295774058863       -5.18078856997196        2.14891349599774
C           -1.40940753305718       -6.32075035613480        2.87593750235472
H           -1.53774057870625       -8.45809502928309        2.96029881240088
H           -2.66417067485937       -8.64201579261074        0.76946957584361
H           -3.16166503844606       -6.62042659300656       -0.53928922905111
H           -4.96761120127056       -5.08121042239551        0.93227417379115
H           -7.07225267654908       -4.93322262436703       -0.32866315448331
H           -7.13341655380171       -3.78847539956736       -2.51689518824824
H           -5.06420989307356       -2.80055830775540       -3.43742621539246
H           -2.95297478846397       -2.96677135384306       -2.19075264903182
H            0.00682027303035       -4.35243670073445        0.15082834566171
H            1.65862296139600       -2.53329559045661        0.10494379343559
H           -3.22629582520975       -1.54011816691544        0.17362569940844
H           -3.46512213587722        1.17614322536675        0.13199193996603
H           -4.32007585067513        6.15969436944141       -0.71280997844135
H           -4.16938350258304        8.27723720524969        0.52740549634374
H           -2.97468219248575        8.37092834666215        2.68733368093857
H           -1.93592428696708        6.32370915900072        3.59984555001239
H           -2.10170724353196        4.19956074853871        2.37185657003209
H           -3.45832653589863        2.56332344946440       -2.27551554779447
H           -5.51624138487622        1.98981787972080       -3.49036126751143
H           -7.72100020114357        2.61512996347510       -2.56691446169043
H           -7.84718251297980        3.81119576074248       -0.40893163355578
H           -5.79265441083375        4.36922700155723        0.81867959563484
H           -0.77373804526271        4.50358463352718       -0.07989915510341
H            1.17061045191055        2.99875059416255       -0.08953090510860
H            2.47355252534262       -1.01596095796623       -1.67900693563559
H            4.91582730744803       -0.81277804806593       -1.74865169636049
H            6.52495618957904        2.74957733704102        0.39469453210874
H            8.97156972293284        2.95829406592602        0.30883758686659
H           12.44374819736408        0.08858817980157       -0.64521495251155
H           11.35166552537077       -2.11748546709306       -1.16583913123070
H            6.85119497643872       -1.38882244946742       -0.69036179653056
H            4.78461870223302        1.87639594117135        1.57158386778918
H            2.34595427542443        1.66083384729028        1.65042470371556
H           -1.42880049031317       -4.20732845501801        2.53553929048220
H           -0.91918993939302       -6.23236167677896        3.83443015309384

          :  Hamiltonian                  GFN2-xTB          :
         :: gradient norm              0.000038169666 Eh/a0 ::
         :: HOMO-LUMO gap              0.708562447522 eV    ::
         :: SCC energy              -142.156946258501 Eh    ::
         :: -> dispersion             -0.125137840310 Eh    ::
         :: -> Gsolv                  -0.063894164925 Eh    ::
         :: repulsion energy           2.579053535599 Eh    ::

    * Orbital Energies and Occupations

         #    Occupation            Energy/Eh            Energy/eV
      -------------------------------------------------------------
         1        2.0000           -0.6861129             -18.6701
       ...           ...                  ...                  ...
       119        2.0000           -0.4102536             -11.1636
       120        2.0000           -0.4101031             -11.1595
       121        2.0000           -0.4091928             -11.1347
       122        2.0000           -0.4088941             -11.1266
       123        2.0000           -0.4086289             -11.1194
       124        2.0000           -0.3957512             -10.7689
       125        2.0000           -0.3921785             -10.6717
       126        2.0000           -0.3849967             -10.4763
       127        2.0000           -0.3738236             -10.1723
       128        2.0000           -0.3567148              -9.7067
       129        1.6293           -0.3465591              -9.4304
       130        1.3707           -0.3455538              -9.4030
       131        1.0000           -0.2825162              -7.6877 (HOMO)
       132        0.0000           -0.2564772              -6.9791 (LUMO)
       133                         -0.2461497              -6.6981
       134                         -0.2386606              -6.4943
       135                         -0.2352135              -6.4005
       136                         -0.2351521              -6.3988
       137                         -0.2297366              -6.2515
       138                         -0.2293136              -6.2399
       139                         -0.2271716              -6.1817
       140                         -0.2260214              -6.1504
       141                         -0.2258378              -6.1454
       142                         -0.2237588              -6.0888
       ...                                ...                  ...
       255                          0.7347949              19.9948
      -------------------------------------------------------------
                  HL-Gap            0.0260390 Eh            0.7086 eV

     #   Z          covCN         q      C6AA      α(0)
     1   6 C        2.919    -0.036    28.893     8.815
     2   6 C        2.919    -0.029    28.715     8.787
     3   6 C        2.922    -0.045    29.128     8.851
     4   6 C        2.924     0.064    26.560     8.451
     5   7 N        2.753    -0.061    22.411     7.031
     6   6 C        2.924     0.064    26.558     8.451
     7   6 C        2.922    -0.046    29.139     8.852
     8   6 C        2.919    -0.029    28.715     8.787
     9   6 C        2.919    -0.036    28.900     8.816
    10   6 C        2.919    -0.029    28.714     8.787
    11   6 C        2.922    -0.046    29.142     8.853
    12   6 C        2.924     0.058    26.709     8.475
    13   6 C        2.925    -0.048    29.199     8.861
    14   6 C        2.908    -0.046    29.132     8.850
    15   6 C        3.079     0.042    26.979     8.516
    16   6 C        3.066    -0.014    28.286     8.721
    17   6 C        2.915    -0.048    29.193     8.860
    18   6 C        3.066    -0.014    28.286     8.721
    19   6 C        2.914    -0.048    29.193     8.860
    20   6 C        2.924     0.057    26.711     8.476
    21   7 N        2.753    -0.061    22.411     7.031
    22   6 C        2.924     0.064    26.559     8.451
    23   6 C        2.922    -0.046    29.136     8.852
    24   6 C        2.919    -0.029    28.716     8.788
    25   6 C        2.919    -0.036    28.899     8.815
    26   6 C        2.919    -0.029    28.716     8.788
    27   6 C        2.922    -0.046    29.142     8.853
    28   6 C        2.924     0.064    26.559     8.451
    29   6 C        2.922    -0.046    29.139     8.852
    30   6 C        2.919    -0.029    28.713     8.787
    31   6 C        2.919    -0.036    28.897     8.815
    32   6 C        2.919    -0.029    28.715     8.787
    33   6 C        2.922    -0.046    29.136     8.852
    34   6 C        2.925    -0.048    29.189     8.860
    35   6 C        2.908    -0.046    29.134     8.851
    36   6 C        3.079     0.042    26.976     8.515
    37   7 N        2.801    -0.023    21.689     6.917
    38   6 C        2.913     0.053    26.818     8.492
    39   6 C        2.919    -0.043    29.070     8.842
    40   6 C        2.925    -0.035    28.878     8.813
    41   6 C        2.974     0.009    27.812     8.651
    42   6 C        2.971    -0.006    28.175     8.707
    43   6 C        2.920    -0.043    29.070     8.842
    44   6 C        2.915    -0.070    29.739     8.943
    45   6 C        2.948     0.090    26.000     8.363
    46   7 N        1.844    -0.251    27.382     7.755
    47   6 C        2.878     0.028    27.364     8.576
    48   6 C        2.876     0.036    27.185     8.547
    49   7 N        1.844    -0.255    27.496     7.771
    50   6 C        2.944     0.086    26.083     8.376
    51   6 C        2.923    -0.076    29.896     8.966
    52   6 C        2.924    -0.036    28.893     8.815
    53   6 C        2.919    -0.043    29.077     8.843
    54   6 C        2.922    -0.046    29.134     8.851
    55   6 C        2.919    -0.029    28.715     8.787
    56   1 H        0.926     0.035     2.513     2.479
    57   1 H        0.926     0.037     2.489     2.467
    58   1 H        0.926     0.036     2.499     2.472
    59   1 H        0.926     0.036     2.509     2.477
    60   1 H        0.926     0.037     2.494     2.469
    61   1 H        0.926     0.035     2.510     2.478
    62   1 H        0.926     0.037     2.485     2.465
    63   1 H        0.926     0.036     2.501     2.473
    64   1 H        0.926     0.041     2.441     2.443
    65   1 H        0.926     0.042     2.421     2.433
    66   1 H        0.926     0.043     2.413     2.429
    67   1 H        0.926     0.043     2.414     2.430
    68   1 H        0.926     0.036     2.503     2.474
    69   1 H        0.926     0.037     2.493     2.469
    70   1 H        0.926     0.035     2.516     2.480
    71   1 H        0.926     0.037     2.493     2.469
    72   1 H        0.926     0.036     2.502     2.473
    73   1 H        0.926     0.036     2.502     2.473
    74   1 H        0.926     0.037     2.485     2.465
    75   1 H        0.926     0.036     2.509     2.477
    76   1 H        0.926     0.037     2.492     2.469
    77   1 H        0.926     0.036     2.506     2.475
    78   1 H        0.926     0.041     2.436     2.441
    79   1 H        0.926     0.042     2.416     2.431
    80   1 H        0.926     0.042     2.427     2.436
    81   1 H        0.926     0.038     2.479     2.462
    82   1 H        0.926     0.032     2.561     2.503
    83   1 H        0.926     0.033     2.544     2.494
    84   1 H        0.926     0.029     2.600     2.522
    85   1 H        0.926     0.030     2.584     2.514
    86   1 H        0.926     0.034     2.530     2.487
    87   1 H        0.926     0.039     2.468     2.457
    88   1 H        0.926     0.042     2.419     2.432
    89   1 H        0.926     0.036     2.499     2.472
    90   1 H        0.926     0.037     2.492     2.468

molecular dipole:
                 x           y           z       tot (Debye)
 q only:       -6.391      -0.063       0.313
   full:       -6.126      -0.101       0.293      15.590

 projected vibrational frequencies (cm⁻¹)
eigval :       -0.00    -0.00    -0.00    -0.00    -0.00     0.00
eigval :       12.47    13.37    14.46    16.32    22.53    29.23
eigval :       34.60    38.31    44.88    47.27    56.45    59.42
eigval :       59.88    70.00    75.77    79.84    82.42    85.51
eigval :       96.07   123.98   133.73   137.07   144.94   171.31
eigval :      193.74   194.64   202.06   220.50   227.46   231.44
eigval :      247.82   250.38   257.10   285.19   305.84   314.39
eigval :      317.07   321.79   329.83   342.97   353.75   375.05
eigval :      376.27   377.65   381.49   383.07   383.31   390.29
eigval :      403.51   405.29   410.56   427.83   436.89   446.91
eigval :      454.89   458.77   470.93   475.95   493.09   495.62
eigval :      501.87   506.43   519.70   551.55   552.02   558.59
eigval :      567.35   577.99   580.67   586.64   588.19   589.76
eigval :      592.88   595.35   601.89   613.56   626.75   634.10
eigval :      635.92   658.86   660.23   663.53   665.54   677.07
eigval :      682.83   687.66   690.36   702.38   708.18   735.38
eigval :      738.17   753.56   754.95   755.38   757.60   786.03
eigval :      790.41   796.33   801.97   818.14   821.05   824.38
eigval :      828.03   855.83   862.15   868.27   869.56   869.88
eigval :      870.74   871.91   873.30   879.78   882.56   885.48
eigval :      890.77   891.85   893.40   894.34   908.41   908.91
eigval :      911.59   914.87   924.10   924.44   924.98   926.15
eigval :      926.59   926.77   929.32   929.69   929.87   931.03
eigval :      939.12   947.49   969.89   988.84  1001.94  1003.39
eigval :     1010.50  1012.75  1033.36  1069.87  1081.10  1081.73
eigval :     1082.48  1082.69  1104.25  1112.24  1120.76  1122.16
eigval :     1122.97  1124.01  1128.08  1136.67  1149.22  1150.57
eigval :     1165.59  1177.50  1179.09  1179.19  1179.43  1180.19
eigval :     1180.38  1182.69  1193.46  1195.32  1198.36  1200.20
eigval :     1202.26  1225.85  1229.48  1239.74  1246.66  1264.40
eigval :     1268.02  1274.04  1276.11  1276.88  1280.90  1284.59
eigval :     1290.86  1303.24  1303.87  1306.20  1313.63  1316.21
eigval :     1316.98  1318.97  1320.84  1324.18  1324.44  1333.83
eigval :     1350.55  1355.27  1357.83  1371.68  1378.45  1399.19
eigval :     1411.65  1421.92  1429.46  1432.18  1432.40  1440.07
eigval :     1440.47  1457.98  1465.21  1465.62  1465.94  1467.01
eigval :     1478.43  1481.81  1501.20  1514.28  1527.24  1543.00
eigval :     1554.19  1565.21  1572.07  1572.92  1576.06  1576.18
eigval :     1583.06  1585.50  1586.67  1586.74  1591.96  1593.09
eigval :     1604.82  3059.03  3071.54  3073.18  3074.43  3075.20
eigval :     3075.31  3075.55  3075.70  3076.60  3076.63  3076.98
eigval :     3079.20  3080.76  3084.15  3084.28  3084.84  3085.47
eigval :     3085.55  3086.50  3086.94  3087.64  3088.24  3088.59
eigval :     3089.81  3090.41  3091.10  3094.06  3095.17  3095.47
eigval :     3095.70  3096.02  3096.32  3098.26  3101.06  3102.03

   temp. (K)  partition function   enthalpy   heat capacity  entropy
                                   cal/mol     cal/K/mol   cal/K/mol   J/K/mol
 298.15  VIB  0.437E+21            25877.629    163.127    161.707
         ROT  0.185E+09              888.752      2.981     40.814
         INT  0.811E+29            26766.381    166.108    202.522
         TR   0.181E+29             1481.254      4.968     45.522
         TOT                       28247.6349   171.0764   248.0441  1037.8166

       T/K    H(0)-H(T)+PV         H(T)/Eh          T*S/Eh         G(T)/Eh
   ------------------------------------------------------------------------
    298.15    0.450155E-01    0.734967E+00    0.117854E+00    0.617113E+00
   ------------------------------------------------------------------------

         :::::::::::::::::::::::::::::::::::::::::::::::::::::
         ::                  THERMODYNAMIC                  ::
         :::::::::::::::::::::::::::::::::::::::::::::::::::::
         :: total free energy        -138.960779709973 Eh   ::
         ::.................................................::
         :: total energy             -139.577892725097 Eh   ::
         :: zero point energy           0.689951313362 Eh   ::
         :: G(RRHO) w/o ZPVE           -0.072838298237 Eh   ::
         :: G(RRHO) contrib.            0.617113015124 Eh   ::
         :::::::::::::::::::::::::::::::::::::::::::::::::::::

           -------------------------------------------------
          | TOTAL ENERGY             -139.577892725097 Eh   |
          | TOTAL ENTHALPY           -138.842925940092 Eh   |
          | TOTAL FREE ENERGY        -138.960779709973 Eh   |
          | GRADIENT NORM               0.000039252789 Eh/α |
          | HOMO-LUMO GAP               0.708556042684 eV   |
           -------------------------------------------------

 * finished run on 2025/09/04 at 06:12:56.214
