   * xtb version 6.7.1 (edcfbbe) compiled by 'albert@albert-system' on 2024-07-22

   ID    Z sym.   atoms
    1    6 C      1-4, 6-20, 22-36, 38-45, 47, 48, 50-55
    2    7 N      5, 21, 37, 46, 49
    3    1 H      56-90

          program call               : xtb data2507/toluene/2F/2F_toluene_S0_crest.xyz --gfn 2 --gbsa toluene --ohess vtight --parallel 40 --molden --ceasefiles --namespace data2507/toluene/2F/2F_toluene_S0_finalOpt
      * Solvation model:               GBSA
        Solvent                        toluene
        Solvent mass                       9.2140E+01 g/mol
          :  Hamiltonian                  GFN2-xTB          :
 * total energy  :  -139.6341341 Eh     change       -0.1664858E-08 Eh
 * total energy  :  -139.6341715 Eh     change       -0.3746432E-04 Eh
 * total energy  :  -139.6341891 Eh     change       -0.1761862E-04 Eh
 * total energy  :  -139.6341959 Eh     change       -0.6779469E-05 Eh
 * total energy  :  -139.6342012 Eh     change       -0.5298921E-05 Eh
 * total energy  :  -139.6342033 Eh     change       -0.2100841E-05 Eh
 * total energy  :  -139.6342053 Eh     change       -0.2015219E-05 Eh
 * total energy  :  -139.6342067 Eh     change       -0.1330279E-05 Eh
 * total energy  :  -139.6342075 Eh     change       -0.8719805E-06 Eh
 * total energy  :  -139.6342085 Eh     change       -0.9662654E-06 Eh
 * total energy  :  -139.6342106 Eh     change       -0.5867531E-06 Eh
 * total energy  :  -139.6342110 Eh     change       -0.4247390E-06 Eh
 * total energy  :  -139.6342113 Eh     change       -0.2619043E-06 Eh
 * total energy  :  -139.6342115 Eh     change       -0.2371557E-06 Eh
 * total energy  :  -139.6342118 Eh     change       -0.2564412E-06 Eh
 * total energy  :  -139.6342121 Eh     change       -0.3412497E-06 Eh
 * total energy  :  -139.6342125 Eh     change       -0.4371935E-06 Eh
 * total energy  :  -139.6342129 Eh     change       -0.3539220E-06 Eh
 * total energy  :  -139.6342129 Eh     change       -0.5036190E-07 Eh
   *** GEOMETRY OPTIMIZATION CONVERGED AFTER 21 ITERATIONS ***

 final structure:
================
90
 xtb: 6.7.1 (edcfbbe)
C           -1.81157580435049       -7.52583737239910        2.48265259869859
C           -2.44186273799539       -7.65157440115994        1.25484559492214
C           -2.71303191934283       -6.53434872603651        0.48896430874222
C           -2.36314566013739       -5.26358115316065        0.94773712143633
N           -2.63141665640927       -4.12911632879287        0.17552178222918
C           -3.80947111825545       -4.04181224341550       -0.57227269327504
C           -4.99917593617956       -4.58880633766408       -0.08914273424885
C           -6.16068554619020       -4.50034989248923       -0.83186280294662
C           -6.16287963794252       -3.85852518376423       -2.05993894980713
C           -4.98658596555015       -3.30710749603057       -2.54202447847668
C           -3.81783284846396       -3.39969991742338       -1.81161444739377
C           -1.71348849707920       -3.06577299716362        0.15601711879359
C           -0.33683617488668       -3.33481482187219        0.12990716063737
C            0.60001790803266       -2.32300477354726        0.09581318626899
C            0.14869501183018       -1.01045211444004        0.05950540300914
C           -1.23526086817917       -0.72545724436036        0.10870510537725
C           -2.16522152055491       -1.75184960120407        0.16400100694883
C           -1.35768286358519        0.70539733790318        0.10303567572053
C           -2.45006871970917        1.55884329098920        0.12045269364488
C           -2.22890921663868        2.92919077569777        0.06333933695376
N           -3.31322087492102        3.82296031679909        0.06496152597970
C           -3.23058790585032        5.01018170326176        0.79793722369099
C           -3.81218351875658        6.18457417443325        0.31776693554649
C           -3.72524264356995        7.35465929321872        1.04685238296374
C           -3.05153411990649        7.38038378991469        2.25768266106895
C           -2.46559821816944        6.21944153668710        2.73618686863475
C           -2.55520526946690        5.04222274737584        2.01889760615028
C           -4.46956743221000        3.51160493235004       -0.65683629382368
C           -4.38329174705660        2.84461606187917       -1.87980730404909
C           -5.52828155783367        2.53128242507416       -2.58615714794809
C           -6.77569437013410        2.88226732990872       -2.09531269728945
C           -6.86807297635824        3.54669611294105       -0.88282289275308
C           -5.72928419082878        3.85556345399068       -0.16421840151462
C           -0.91960122435501        3.42682939556622       -0.01580660385842
C            0.17666618613888        2.59005744488735       -0.01673114917438
C           -0.04206952380488        1.22084103830274        0.05794780075969
N            0.86073396907211        0.17422666836830        0.03249530107244
C            2.25389347607172        0.29315763095747       -0.02593113561480
C            2.98593036954359       -0.44642807107914       -0.95288517591070
C            4.36013244628518       -0.33378801611198       -1.00161103087477
C            5.03872815864651        0.53215141671098       -0.14458787245412
C            6.50102633463935        0.65548763872099       -0.21149135095705
C            7.10704446434479        1.92985051095849       -0.09165475169046
C            8.46100653086502        2.08588839446860       -0.15943584742533
C            9.29090615102330        0.96137448016777       -0.34693142981424
N           10.63068878484329        1.10971156688080       -0.41355096925457
C           11.34305202606895        0.02738593620479       -0.58631811737123
C           10.75315703337799       -1.24866999578499       -0.70005371950389
N            9.46037340446369       -1.42624054748515       -0.64317442106023
C            8.69332906441498       -0.32629670581832       -0.46602435319355
C            7.29514823643397       -0.45348357085047       -0.39743605692636
C            4.29790983361285        1.27658757277206        0.77277338025412
C            2.92516956280967        1.15246581320883        0.84148447018882
C           -1.73093904614139       -5.14325770509582        2.18605418859046
C           -1.45647488479007       -6.26727297671337        2.94092729108616
H           -1.59831479991400       -8.40169984161447        3.07702841496902
H           -2.71700783562422       -8.62903475992439        0.88538853124774
H           -3.19480883168755       -6.63714813840097       -0.47264714473362
H           -5.00538402321084       -5.07984799415118        0.87330608200077
H           -7.07386871585007       -4.92782346922157       -0.44319213981402
H           -7.07369571533167       -3.78794133529819       -2.63554115680089
H           -4.97641667224729       -2.80762065827245       -3.50016757432314
H           -2.90153205520800       -2.97603896627618       -2.19628775328749
H           -0.00908772547669       -4.36386743117931        0.13858869068732
H            1.65348304324285       -2.55621598991166        0.09676591907937
H           -3.22213742944035       -1.53699874641791        0.20901049065032
H           -3.45508514012858        1.16734508502471        0.16490707226718
H           -4.32930290274665        6.17122005535860       -0.63083738933599
H           -4.17954348639693        8.25618329883492        0.66147037492952
H           -2.98354685833565        8.29779510915675        2.82301645331113
H           -1.94161812542743        6.22802564650958        3.68120969961370
H           -2.10596337742559        4.13640607760158        2.39956169624592
H           -3.41276756490138        2.57565906122902       -2.27089839817702
H           -5.44470433136101        2.01641903604976       -3.53244811445314
H           -7.66818146610640        2.63912611740150       -2.65231149021156
H           -7.83615670405467        3.81888137608291       -0.48729837982093
H           -5.80750014794994        4.36311713320242        0.78636874749854
H           -0.77462369993124        4.49489465745752       -0.08361175673215
H            1.17246478310740        2.99737316266389       -0.09792538403784
H            2.46900793635335       -1.09388935481536       -1.64496348167688
H            4.91506994688637       -0.89904702600916       -1.73520503135504
H            6.47317361030314        2.79485953553647        0.03427775870766
H            8.92731620747824        3.05561983973828       -0.07675115997407
H           12.41633281305547        0.15557741223536       -0.63901372674507
H           11.35899369632573       -2.13433960067746       -0.84197067732006
H            6.87326432748212       -1.44373249561445       -0.47441452733147
H            4.80550413956445        1.93277091719612        1.46387611155529
H            2.36614140244594        1.70864615952133        1.57869509914818
H           -1.45948598546573       -4.16286163965299        2.55010279029353
H           -0.96892089403826       -6.15845340359865        3.89906687006430

          :  Hamiltonian                  GFN2-xTB          :
         :: gradient norm              0.000128020082 Eh/a0 ::
         :: HOMO-LUMO gap              1.015309973095 eV    ::
         :: SCC energy              -142.215671591579 Eh    ::
         :: -> dispersion             -0.125302751522 Eh    ::
         :: -> Gsolv                  -0.058931530535 Eh    ::
         :: repulsion energy           2.581458653180 Eh    ::

    * Orbital Energies and Occupations

         #    Occupation            Energy/Eh            Energy/eV
      -------------------------------------------------------------
         1        2.0000           -0.6834919             -18.5988
       ...           ...                  ...                  ...
       118        2.0000           -0.4087606             -11.1229
       119        2.0000           -0.4051192             -11.0239
       120        2.0000           -0.4050696             -11.0225
       121        2.0000           -0.4036535             -10.9840
       122        2.0000           -0.4033345             -10.9753
       123        2.0000           -0.4026357             -10.9563
       124        2.0000           -0.4019916             -10.9387
       125        2.0000           -0.4009823             -10.9113
       126        2.0000           -0.3839068             -10.4466
       127        2.0000           -0.3752738             -10.2117
       128        2.0000           -0.3616274              -9.8404
       129        2.0000           -0.3480435              -9.4707
       130        2.0000           -0.3394353              -9.2365 (HOMO)
       131                         -0.3021233              -8.2212 (LUMO)
       132                         -0.2626500              -7.1471
       133                         -0.2487141              -6.7679
       134                         -0.2347112              -6.3868
       135                         -0.2340061              -6.3676
       136                         -0.2303096              -6.2670
       137                         -0.2280880              -6.2066
       138                         -0.2280149              -6.2046
       139                         -0.2231608              -6.0725
       140                         -0.2227602              -6.0616
       141                         -0.2195395              -5.9740
       ...                                ...                  ...
       255                          0.7411233              20.1670
      -------------------------------------------------------------
                  HL-Gap            0.0373120 Eh            1.0153 eV

     #   Z          covCN         q      C6AA      α(0)
     1   6 C        2.919    -0.041    29.010     8.832
     2   6 C        2.919    -0.031    28.771     8.796
     3   6 C        2.922    -0.049    29.218     8.864
     4   6 C        2.923     0.066    26.524     8.446
     5   7 N        2.752    -0.082    22.833     7.097
     6   6 C        2.922     0.066    26.523     8.446
     7   6 C        2.922    -0.050    29.231     8.866
     8   6 C        2.919    -0.031    28.773     8.796
     9   6 C        2.918    -0.041    29.017     8.833
    10   6 C        2.919    -0.031    28.767     8.795
    11   6 C        2.922    -0.049    29.226     8.865
    12   6 C        2.924     0.056    26.745     8.481
    13   6 C        2.926    -0.050    29.244     8.868
    14   6 C        2.909    -0.051    29.261     8.870
    15   6 C        3.074     0.040    27.021     8.523
    16   6 C        3.066    -0.017    28.356     8.732
    17   6 C        2.915    -0.051    29.273     8.872
    18   6 C        3.066    -0.017    28.355     8.732
    19   6 C        2.915    -0.051    29.277     8.873
    20   6 C        2.924     0.056    26.745     8.481
    21   7 N        2.752    -0.082    22.834     7.097
    22   6 C        2.923     0.066    26.524     8.446
    23   6 C        2.922    -0.049    29.225     8.865
    24   6 C        2.919    -0.031    28.772     8.796
    25   6 C        2.919    -0.041    29.017     8.833
    26   6 C        2.919    -0.031    28.772     8.796
    27   6 C        2.922    -0.050    29.230     8.866
    28   6 C        2.922     0.066    26.523     8.446
    29   6 C        2.922    -0.049    29.222     8.865
    30   6 C        2.919    -0.031    28.767     8.795
    31   6 C        2.918    -0.041    29.014     8.833
    32   6 C        2.919    -0.031    28.773     8.796
    33   6 C        2.922    -0.049    29.227     8.866
    34   6 C        2.926    -0.050    29.234     8.867
    35   6 C        2.909    -0.051    29.262     8.870
    36   6 C        3.074     0.040    27.017     8.522
    37   7 N        2.800    -0.038    21.981     6.963
    38   6 C        2.912     0.064    26.567     8.452
    39   6 C        2.920    -0.043    29.058     8.840
    40   6 C        2.924    -0.031    28.776     8.797
    41   6 C        2.977     0.008    27.838     8.655
    42   6 C        2.973     0.019    27.589     8.616
    43   6 C        2.921    -0.030    28.745     8.792
    44   6 C        2.914    -0.042    29.033     8.836
    45   6 C        2.976     0.081    26.186     8.394
    46   7 N        1.841    -0.232    26.938     7.692
    47   6 C        2.901     0.054    26.782     8.485
    48   6 C        2.900     0.056    26.748     8.480
    49   7 N        1.841    -0.234    26.974     7.697
    50   6 C        2.973     0.082    26.174     8.392
    51   6 C        2.923    -0.048    29.203     8.862
    52   6 C        2.924    -0.031    28.779     8.797
    53   6 C        2.920    -0.043    29.067     8.841
    54   6 C        2.922    -0.049    29.221     8.865
    55   6 C        2.919    -0.031    28.770     8.796
    56   1 H        0.926     0.030     2.586     2.515
    57   1 H        0.926     0.032     2.565     2.504
    58   1 H        0.926     0.030     2.584     2.514
    59   1 H        0.926     0.030     2.593     2.518
    60   1 H        0.926     0.031     2.573     2.508
    61   1 H        0.926     0.030     2.592     2.518
    62   1 H        0.926     0.031     2.567     2.506
    63   1 H        0.926     0.030     2.585     2.514
    64   1 H        0.926     0.034     2.524     2.484
    65   1 H        0.926     0.038     2.482     2.464
    66   1 H        0.926     0.033     2.544     2.494
    67   1 H        0.926     0.033     2.545     2.495
    68   1 H        0.926     0.030     2.589     2.516
    69   1 H        0.926     0.031     2.570     2.507
    70   1 H        0.926     0.030     2.589     2.516
    71   1 H        0.926     0.032     2.563     2.504
    72   1 H        0.926     0.030     2.583     2.513
    73   1 H        0.926     0.030     2.586     2.515
    74   1 H        0.926     0.031     2.566     2.505
    75   1 H        0.926     0.030     2.591     2.517
    76   1 H        0.926     0.031     2.571     2.507
    77   1 H        0.926     0.030     2.589     2.516
    78   1 H        0.926     0.035     2.521     2.483
    79   1 H        0.926     0.038     2.480     2.463
    80   1 H        0.926     0.047     2.358     2.401
    81   1 H        0.926     0.045     2.381     2.413
    82   1 H        0.926     0.057     2.235     2.338
    83   1 H        0.926     0.058     2.218     2.329
    84   1 H        0.925     0.040     2.453     2.449
    85   1 H        0.925     0.040     2.451     2.448
    86   1 H        0.926     0.058     2.220     2.330
    87   1 H        0.926     0.046     2.366     2.405
    88   1 H        0.926     0.047     2.354     2.399
    89   1 H        0.926     0.030     2.582     2.513
    90   1 H        0.926     0.032     2.562     2.503

molecular dipole:
                 x           y           z       tot (Debye)
 q only:       -0.056       0.315       0.067
   full:        0.111       0.254       0.047       0.715

 projected vibrational frequencies (cm⁻¹)
eigval :       -0.00    -0.00     0.00     0.00     0.00     0.00
eigval :       12.02    12.84    14.85    16.09    22.66    29.11
eigval :       34.02    39.20    45.58    47.06    57.61    59.04
eigval :       60.77    69.44    76.89    82.32    84.38    86.32
eigval :       97.40   122.33   133.11   134.76   143.81   159.22
eigval :      192.76   193.20   200.44   220.14   228.78   231.42
eigval :      246.41   250.52   258.58   288.54   306.53   314.96
eigval :      318.23   331.05   333.70   347.02   352.89   370.70
eigval :      377.53   377.69   383.60   384.35   384.68   388.92
eigval :      401.20   402.62   410.49   428.49   431.84   445.98
eigval :      449.24   459.68   472.64   488.09   489.96   497.67
eigval :      505.86   523.15   532.82   548.33   553.42   565.86
eigval :      573.11   582.22   584.84   587.84   588.72   590.10
eigval :      594.59   600.36   608.00   625.26   632.43   635.38
eigval :      645.53   658.72   660.35   664.01   666.07   675.70
eigval :      690.22   692.75   701.52   709.56   738.29   752.77
eigval :      754.50   755.56   758.39   762.90   791.48   801.26
eigval :      802.27   817.73   820.85   827.83   853.25   865.01
eigval :      868.98   871.45   871.80   872.51   873.44   874.48
eigval :      877.83   880.76   881.88   887.04   887.41   890.61
eigval :      891.31   907.49   908.43   908.98   909.79   912.31
eigval :      922.28   923.12   923.72   924.67   925.06   925.50
eigval :      925.98   927.65   927.92   928.32   929.00   934.43
eigval :      942.73   948.09   970.42   989.16  1002.42  1003.63
eigval :     1011.87  1012.14  1035.81  1064.41  1078.78  1082.21
eigval :     1082.56  1083.13  1083.43  1120.55  1122.06  1122.84
eigval :     1124.20  1128.52  1134.83  1140.41  1153.78  1166.92
eigval :     1176.91  1179.22  1179.40  1180.41  1180.62  1181.12
eigval :     1181.59  1194.17  1196.47  1198.88  1199.43  1200.51
eigval :     1202.62  1226.47  1228.53  1240.74  1251.09  1263.80
eigval :     1267.77  1273.63  1277.71  1277.95  1283.32  1286.91
eigval :     1297.56  1309.53  1311.82  1315.22  1317.84  1319.00
eigval :     1320.75  1325.36  1325.92  1327.34  1328.63  1347.79
eigval :     1350.42  1362.03  1380.57  1401.65  1411.63  1418.29
eigval :     1427.41  1433.32  1434.20  1437.12  1442.15  1442.61
eigval :     1465.59  1471.47  1471.71  1473.14  1474.46  1482.12
eigval :     1485.59  1497.59  1536.65  1551.98  1555.39  1563.30
eigval :     1570.30  1574.28  1576.03  1578.53  1578.63  1587.11
eigval :     1591.66  1591.79  1596.54  1598.24  1599.85  1602.76
eigval :     1614.38  3046.22  3054.30  3068.98  3069.28  3069.89
eigval :     3070.20  3070.38  3070.81  3070.95  3071.25  3080.38
eigval :     3080.42  3081.21  3081.56  3082.69  3082.95  3083.10
eigval :     3083.72  3083.79  3084.47  3084.83  3085.60  3087.32
eigval :     3090.05  3091.67  3091.80  3092.28  3092.82  3093.00
eigval :     3095.29  3096.79  3097.05  3097.91  3098.39  3099.66

   temp. (K)  partition function   enthalpy   heat capacity  entropy
                                   cal/mol     cal/K/mol   cal/K/mol   J/K/mol
 298.15  VIB  0.409E+21            25742.829    161.979    161.161
         ROT  0.185E+09              888.752      2.981     40.810
         INT  0.756E+29            26631.582    164.959    201.971
         TR   0.181E+29             1481.254      4.968     45.522
         TOT                       28112.8356   169.9276   247.4935  1035.5128

       T/K    H(0)-H(T)+PV         H(T)/Eh          T*S/Eh         G(T)/Eh
   ------------------------------------------------------------------------
    298.15    0.448007E-01    0.737334E+00    0.117592E+00    0.619741E+00
   ------------------------------------------------------------------------

         :::::::::::::::::::::::::::::::::::::::::::::::::::::
         ::                  THERMODYNAMIC                  ::
         :::::::::::::::::::::::::::::::::::::::::::::::::::::
         :: total free energy        -139.014471558089 Eh   ::
         ::.................................................::
         :: total energy             -139.634212940637 Eh   ::
         :: zero point energy           0.692532873399 Eh   ::
         :: G(RRHO) w/o ZPVE           -0.072791490851 Eh   ::
         :: G(RRHO) contrib.            0.619741382548 Eh   ::
         :::::::::::::::::::::::::::::::::::::::::::::::::::::

           -------------------------------------------------
          | TOTAL ENERGY             -139.634212940637 Eh   |
          | TOTAL ENTHALPY           -138.896879412026 Eh   |
          | TOTAL FREE ENERGY        -139.014471558089 Eh   |
          | GRADIENT NORM               0.000128038078 Eh/α |
          | HOMO-LUMO GAP               1.015311234457 eV   |
           -------------------------------------------------

 * finished run on 2025/09/04 at 06:12:45.974
