   * xtb version 6.7.1 (edcfbbe) compiled by 'albert@albert-system' on 2024-07-22

   ID    Z sym.   atoms
    1    6 C      1-4, 6-20, 22-36, 38-45, 47, 48, 50-55
    2    7 N      5, 21, 37, 46, 49
    3    1 H      56-90

          program call               : xtb data2507/toluene/2F/2F.xyz --gfn 2 --gbsa toluene --ohess vtight --parallel 40 --molden --ceasefiles --namespace data2507/toluene/2F/2F_toluene_S0_preOpt
      * Solvation model:               GBSA
        Solvent                        toluene
        Solvent mass                       9.2140E+01 g/mol
          :  Hamiltonian                  GFN2-xTB          :
 * total energy  :  -139.6022565 Eh     change       -0.1503935E-08 Eh
 * total energy  :  -139.6209557 Eh     change       -0.1869920E-01 Eh
 * total energy  :  -139.6284903 Eh     change       -0.7534546E-02 Eh
 * total energy  :  -139.6309094 Eh     change       -0.2419153E-02 Eh
 * total energy  :  -139.6321601 Eh     change       -0.1250706E-02 Eh
 * total energy  :  -139.6325686 Eh     change       -0.4085203E-03 Eh
 * total energy  :  -139.6327585 Eh     change       -0.1898512E-03 Eh
 * total energy  :  -139.6329095 Eh     change       -0.1509962E-03 Eh
 * total energy  :  -139.6330695 Eh     change       -0.1600454E-03 Eh
 * total energy  :  -139.6332388 Eh     change       -0.1692342E-03 Eh
 * total energy  :  -139.6340449 Eh     change       -0.4392387E-06 Eh
 * total energy  :  -139.6340453 Eh     change       -0.3276190E-06 Eh
 * total energy  :  -139.6340455 Eh     change       -0.2657366E-06 Eh
 * total energy  :  -139.6340458 Eh     change       -0.2806288E-06 Eh
 * total energy  :  -139.6340461 Eh     change       -0.2627268E-06 Eh
 * total energy  :  -139.6340463 Eh     change       -0.1843803E-06 Eh
 * total energy  :  -139.6340464 Eh     change       -0.1397607E-06 Eh
 * total energy  :  -139.6340465 Eh     change       -0.1162669E-06 Eh
 * total energy  :  -139.6340466 Eh     change       -0.9002375E-07 Eh
   *** GEOMETRY OPTIMIZATION CONVERGED AFTER 62 ITERATIONS ***

 final structure:
================
90
 xtb: 6.7.1 (edcfbbe)
C           -6.48203693030075       -2.56426196051938        2.58824605264351
C           -6.61533336551894       -3.34048965653821        1.44819348712205
C           -5.50052424874505       -3.73232832095181        0.73261528200108
C           -4.22350975380201       -3.36076500532557        1.15617194880517
N           -3.09207592062775       -3.75363251356342        0.43516011826277
C           -3.04824973134648       -5.00162576139666       -0.19394686083982
C           -2.41652017799076       -5.14983421051287       -1.42961680887223
C           -2.36431351147453       -6.38666843672818       -2.04273763393226
C           -2.94546389335631       -7.49304338176041       -1.44429044661888
C           -3.57656716330526       -7.35194018156771       -0.21858659469777
C           -3.62550917804586       -6.12126339784989        0.40692715181378
C           -1.99327451445966       -2.88403433294524        0.32889984896047
C           -0.69152015999172       -3.40061652631685        0.41402983464756
C            0.41951000894494       -2.59131629372055        0.30336481543027
C            0.22320755739961       -1.23022077136002        0.11201246047337
C           -1.08282919840184       -0.69066237449981        0.06633149920100
C           -2.19081892697653       -1.51942451332868        0.15760043101512
C           -0.93153893476586        0.73098245116921       -0.07391376666433
C           -1.84055421070313        1.77336404199747       -0.17403491563527
C           -1.35924075467226        3.06738975445671       -0.32883859838746
N           -2.24963397788799        4.14966896565323       -0.43693889462170
C           -1.95892381905657        5.34804625820718        0.22210929615015
C           -2.27167778446387        6.57634157369095       -0.36202714436948
C           -1.97891845634180        7.75572430960094        0.29502019355844
C           -1.36352079472135        7.73512983791951        1.53655841827626
C           -1.04382894245786        6.51889623404187        2.11844764251399
C           -1.34018305079412        5.33404280282372        1.47297655125143
C           -3.42104262523595        4.01571827302196       -1.18701173123806
C           -3.43377631051963        3.24414897889972       -2.35002718721438
C           -4.59601449162618        3.10731208114354       -3.08402373905566
C           -5.76114304772583        3.74016663304257       -2.68129128769409
C           -5.75435102746492        4.51040668860100       -1.52940474783536
C           -4.59971989848570        4.64485856616602       -0.78304212943270
C            0.02264444308859        3.30127931351232       -0.39220093539546
C            0.93836065074296        2.27657295745868       -0.27839080525455
C            0.45902188378120        0.98561425634281       -0.10104106765053
N            1.14684850236639       -0.20773825351658        0.00938631100261
C            2.53885807447464       -0.35605573062879        0.00479496420612
C            3.14416272446983       -1.29067978982087       -0.83247706480437
C            4.51616770423704       -1.43901776614380       -0.83089006599149
C            5.32059781941348       -0.64891547333153       -0.01019984957585
C            6.78207348290665       -0.79723664230782       -0.01981351690664
C            7.35962679700158       -2.08777788340306       -0.10136109524678
C            8.71250388016626       -2.26585347752798       -0.10901300452929
C            9.57013509841955       -1.14874186748070       -0.03922330256469
N           10.90890934296532       -1.31887040410055       -0.04780358815270
C           11.64758117670206       -0.24248025582638        0.01843426393962
C           11.08612126688964        1.04903569564679        0.09552904858963
N            9.79530460974173        1.24800806232114        0.10810550896617
C            9.00149114711321        0.15479084180833        0.04197095221403
C            7.60393017918555        0.30493710196995        0.05185533128312
C            4.70667352934117        0.28886161826176        0.81970190720791
C            3.33426125843976        0.43034749000137        0.83563219818717
C           -4.09595507884706       -2.58333637324060        2.30830868520370
C           -5.21737376779822       -2.18742142164508        3.01100424818297
H           -7.35592335236978       -2.25619615789548        3.14258698010131
H           -7.59695352439982       -3.63570794162511        1.10619166243526
H           -5.61138458911718       -4.32671370891996       -0.16277256141852
H           -1.97137313153482       -4.28728803727827       -1.90404428370365
H           -1.87426447456911       -6.48534148765796       -3.00072766848393
H           -2.90653421052200       -8.45726009915421       -1.92863891555316
H           -4.02721059606460       -8.20965799281771        0.25983458855630
H           -4.10892610654737       -6.01781373184595        1.36765610201328
H           -0.56483053200598       -4.46098058458881        0.57520960039860
H            1.41046379410486       -3.00988220080735        0.38737000170735
H           -3.18950664252292       -1.11282930516115        0.10659375729555
H           -2.90286058962973        1.58439454245048       -0.13990156688474
H           -2.74224749132983        6.59748835292142       -1.33439553621820
H           -2.22553589390228        8.69904584527108       -0.17077645886687
H           -1.13421034683659        8.65937404677825        2.04553327340448
H           -0.56770585698950        6.49169721682567        3.08811092194504
H           -1.09817192945731        4.38731722639580        1.93373903593205
H           -2.52579854362124        2.75616115338716       -2.67357662495886
H           -4.58944516958863        2.50770342741839       -3.98299879197360
H           -6.66662147631785        3.63392467839296       -3.25982262164705
H           -6.65895327839942        5.00283870839380       -1.20236588322525
H           -4.60287313503241        5.23669968177667        0.12091446267791
H            0.37018454293539        4.31357707898239       -0.53695889526341
H            1.99587134523896        2.47926210361510       -0.34750779170593
H            2.53359707910572       -1.88618063003193       -1.49443397600617
H            4.97228193886904       -2.15209725575718       -1.50111967481293
H            6.70603911519711       -2.94650106218072       -0.13661714462445
H            9.15730411914333       -3.24758011960913       -0.16394045762936
H           12.71989937227757       -0.38810786915986        0.01121352874605
H           11.71357778795629        1.92941617655260        0.14856155875597
H            7.20401771063626        1.30625107896218        0.09551728941830
H            5.31139217414906        0.89113661408892        1.48089267481541
H            2.86838682909656        1.13888422605017        1.50380421035282
H           -3.11204745134216       -2.29407422268693        2.64812971876770
H           -5.10168397647953       -1.58635156098839        3.90149481772296

          :  Hamiltonian                  GFN2-xTB          :
         :: gradient norm              0.000035543590 Eh/a0 ::
         :: HOMO-LUMO gap              1.019748955788 eV    ::
         :: SCC energy              -142.215463997738 Eh    ::
         :: -> dispersion             -0.125063888777 Eh    ::
         :: -> Gsolv                  -0.058957495829 Eh    ::
         :: repulsion energy           2.581417383720 Eh    ::

    * Orbital Energies and Occupations

         #    Occupation            Energy/Eh            Energy/eV
      -------------------------------------------------------------
         1        2.0000           -0.6835646             -18.6007
       ...           ...                  ...                  ...
       118        2.0000           -0.4088949             -11.1266
       119        2.0000           -0.4051516             -11.0247
       120        2.0000           -0.4049554             -11.0194
       121        2.0000           -0.4037046             -10.9854
       122        2.0000           -0.4034736             -10.9791
       123        2.0000           -0.4026014             -10.9553
       124        2.0000           -0.4019625             -10.9380
       125        2.0000           -0.4008610             -10.9080
       126        2.0000           -0.3838064             -10.4439
       127        2.0000           -0.3757274             -10.2241
       128        2.0000           -0.3616806              -9.8418
       129        2.0000           -0.3476372              -9.4597
       130        2.0000           -0.3396864              -9.2433 (HOMO)
       131                         -0.3022113              -8.2236 (LUMO)
       132                         -0.2629139              -7.1543
       133                         -0.2487745              -6.7695
       134                         -0.2347616              -6.3882
       135                         -0.2342353              -6.3739
       136                         -0.2303450              -6.2680
       137                         -0.2281231              -6.2075
       138                         -0.2279274              -6.2022
       139                         -0.2231594              -6.0725
       140                         -0.2227151              -6.0604
       141                         -0.2195370              -5.9739
       ...                                ...                  ...
       255                          0.7405351              20.1510
      -------------------------------------------------------------
                  HL-Gap            0.0374751 Eh            1.0197 eV

     #   Z          covCN         q      C6AA      α(0)
     1   6 C        2.918    -0.041    29.019     8.834
     2   6 C        2.919    -0.031    28.773     8.796
     3   6 C        2.922    -0.050    29.230     8.866
     4   6 C        2.922     0.066    26.523     8.445
     5   7 N        2.752    -0.082    22.834     7.097
     6   6 C        2.923     0.066    26.524     8.446
     7   6 C        2.922    -0.049    29.224     8.865
     8   6 C        2.919    -0.031    28.771     8.796
     9   6 C        2.919    -0.041    29.013     8.833
    10   6 C        2.919    -0.031    28.771     8.796
    11   6 C        2.922    -0.049    29.220     8.865
    12   6 C        2.923     0.056    26.747     8.481
    13   6 C        2.926    -0.050    29.233     8.867
    14   6 C        2.909    -0.051    29.260     8.870
    15   6 C        3.075     0.040    27.015     8.522
    16   6 C        3.066    -0.017    28.358     8.732
    17   6 C        2.915    -0.051    29.277     8.873
    18   6 C        3.066    -0.017    28.358     8.732
    19   6 C        2.915    -0.051    29.272     8.872
    20   6 C        2.924     0.056    26.746     8.481
    21   7 N        2.752    -0.082    22.838     7.098
    22   6 C        2.923     0.066    26.523     8.446
    23   6 C        2.922    -0.049    29.220     8.864
    24   6 C        2.919    -0.031    28.771     8.796
    25   6 C        2.919    -0.041    29.013     8.833
    26   6 C        2.919    -0.031    28.770     8.796
    27   6 C        2.922    -0.049    29.224     8.865
    28   6 C        2.922     0.066    26.522     8.445
    29   6 C        2.922    -0.050    29.232     8.866
    30   6 C        2.919    -0.031    28.772     8.796
    31   6 C        2.918    -0.041    29.023     8.834
    32   6 C        2.919    -0.031    28.774     8.796
    33   6 C        2.922    -0.050    29.234     8.867
    34   6 C        2.926    -0.049    29.227     8.866
    35   6 C        2.909    -0.051    29.261     8.870
    36   6 C        3.075     0.041    27.013     8.521
    37   7 N        2.800    -0.038    21.983     6.964
    38   6 C        2.912     0.064    26.566     8.452
    39   6 C        2.920    -0.043    29.059     8.840
    40   6 C        2.924    -0.031    28.778     8.797
    41   6 C        2.976     0.008    27.832     8.654
    42   6 C        2.973     0.019    27.589     8.616
    43   6 C        2.921    -0.030    28.745     8.792
    44   6 C        2.914    -0.042    29.033     8.836
    45   6 C        2.977     0.081    26.186     8.394
    46   7 N        1.841    -0.232    26.937     7.692
    47   6 C        2.901     0.054    26.782     8.485
    48   6 C        2.900     0.056    26.748     8.480
    49   7 N        1.841    -0.234    26.972     7.697
    50   6 C        2.973     0.082    26.175     8.392
    51   6 C        2.923    -0.048    29.202     8.862
    52   6 C        2.924    -0.031    28.775     8.797
    53   6 C        2.920    -0.042    29.049     8.838
    54   6 C        2.922    -0.049    29.228     8.866
    55   6 C        2.919    -0.031    28.772     8.796
    56   1 H        0.926     0.029     2.594     2.519
    57   1 H        0.926     0.031     2.572     2.508
    58   1 H        0.926     0.030     2.589     2.516
    59   1 H        0.926     0.030     2.582     2.513
    60   1 H        0.926     0.032     2.561     2.502
    61   1 H        0.926     0.030     2.587     2.515
    62   1 H        0.926     0.031     2.568     2.506
    63   1 H        0.926     0.030     2.588     2.516
    64   1 H        0.926     0.035     2.522     2.484
    65   1 H        0.926     0.037     2.484     2.465
    66   1 H        0.926     0.033     2.544     2.494
    67   1 H        0.926     0.033     2.543     2.494
    68   1 H        0.926     0.030     2.587     2.515
    69   1 H        0.926     0.031     2.568     2.506
    70   1 H        0.926     0.030     2.587     2.515
    71   1 H        0.926     0.032     2.561     2.503
    72   1 H        0.926     0.030     2.584     2.514
    73   1 H        0.926     0.030     2.590     2.516
    74   1 H        0.926     0.031     2.572     2.508
    75   1 H        0.926     0.029     2.596     2.519
    76   1 H        0.926     0.031     2.573     2.509
    77   1 H        0.926     0.030     2.591     2.517
    78   1 H        0.926     0.034     2.524     2.484
    79   1 H        0.926     0.037     2.483     2.464
    80   1 H        0.926     0.047     2.355     2.400
    81   1 H        0.926     0.047     2.362     2.403
    82   1 H        0.926     0.057     2.233     2.337
    83   1 H        0.926     0.058     2.217     2.329
    84   1 H        0.925     0.040     2.453     2.449
    85   1 H        0.925     0.040     2.450     2.448
    86   1 H        0.926     0.058     2.219     2.329
    87   1 H        0.926     0.046     2.376     2.410
    88   1 H        0.926     0.047     2.356     2.400
    89   1 H        0.926     0.030     2.587     2.515
    90   1 H        0.926     0.031     2.570     2.507

molecular dipole:
                 x           y           z       tot (Debye)
 q only:       -0.017      -0.346      -0.013
   full:        0.150      -0.287      -0.009       0.824

 projected vibrational frequencies (cm⁻¹)
eigval :       -0.00    -0.00    -0.00    -0.00     0.00     0.00
eigval :        8.89    12.81    13.86    14.81    23.24    26.92
eigval :       36.72    39.50    41.25    51.58    57.13    59.89
eigval :       62.62    66.27    80.75    82.81    86.12    88.10
eigval :       95.34   121.61   130.53   135.60   144.00   158.39
eigval :      188.82   197.40   199.83   217.86   224.32   231.25
eigval :      246.68   255.98   260.39   281.49   308.32   314.99
eigval :      319.46   325.83   337.70   348.55   358.46   365.46
eigval :      377.28   379.79   383.74   385.05   385.64   387.26
eigval :      390.37   401.84   414.94   427.96   435.07   447.30
eigval :      448.99   457.95   472.96   489.32   490.08   495.79
eigval :      505.95   522.29   531.48   545.50   556.00   566.57
eigval :      574.57   582.18   584.90   587.46   587.73   589.89
eigval :      594.40   596.92   608.74   628.88   628.94   635.74
eigval :      644.29   658.57   660.26   663.89   666.24   675.96
eigval :      690.33   692.63   704.24   709.42   738.44   754.68
eigval :      756.26   757.09   759.65   760.65   791.12   801.33
eigval :      802.38   815.44   821.57   827.36   853.79   869.02
eigval :      872.20   872.90   873.51   874.74   875.69   876.79
eigval :      878.27   880.56   882.03   887.41   889.67   891.37
eigval :      892.61   905.35   906.99   908.92   909.61   912.81
eigval :      922.80   923.28   924.75   927.65   927.87   928.35
eigval :      928.43   928.71   928.82   929.19   931.08   934.39
eigval :      942.75   948.10   970.27   989.01  1002.38  1003.50
eigval :     1011.63  1011.81  1035.79  1063.88  1079.43  1081.79
eigval :     1082.34  1082.63  1083.88  1119.73  1121.12  1121.79
eigval :     1123.92  1128.30  1134.51  1140.46  1153.59  1166.38
eigval :     1177.21  1178.03  1178.66  1178.78  1180.56  1180.98
eigval :     1181.58  1193.73  1195.35  1198.14  1199.84  1200.16
eigval :     1202.74  1226.61  1228.67  1240.79  1250.93  1264.06
eigval :     1267.55  1273.44  1276.75  1277.83  1282.78  1286.68
eigval :     1297.85  1308.89  1311.77  1315.38  1317.94  1319.03
eigval :     1320.85  1325.52  1326.02  1327.54  1328.90  1347.42
eigval :     1350.18  1361.88  1381.00  1401.42  1411.32  1418.27
eigval :     1427.41  1433.12  1433.91  1437.17  1441.95  1442.39
eigval :     1465.75  1471.16  1471.51  1473.09  1474.57  1482.00
eigval :     1485.42  1497.38  1536.63  1552.05  1555.39  1563.26
eigval :     1570.42  1574.24  1576.01  1578.49  1578.63  1586.94
eigval :     1591.60  1591.77  1596.48  1598.20  1599.61  1602.38
eigval :     1613.91  3046.51  3054.36  3069.05  3069.73  3069.96
eigval :     3070.32  3070.44  3071.06  3071.13  3071.53  3080.76
eigval :     3081.08  3081.62  3081.97  3083.08  3083.34  3083.41
eigval :     3084.07  3084.22  3084.36  3085.27  3085.69  3087.21
eigval :     3089.50  3091.82  3092.19  3092.61  3093.07  3093.43
eigval :     3094.89  3096.43  3097.00  3097.75  3098.43  3099.44

   temp. (K)  partition function   enthalpy   heat capacity  entropy
                                   cal/mol     cal/K/mol   cal/K/mol   J/K/mol
 298.15  VIB  0.610E+21            25747.794    162.007    161.580
         ROT  0.185E+09              888.752      2.981     40.810
         INT  0.113E+30            26636.546    164.988    202.390
         TR   0.181E+29             1481.254      4.968     45.522
         TOT                       28117.7999   169.9557   247.9125  1037.2657

       T/K    H(0)-H(T)+PV         H(T)/Eh          T*S/Eh         G(T)/Eh
   ------------------------------------------------------------------------
    298.15    0.448086E-01    0.737381E+00    0.117791E+00    0.619589E+00
   ------------------------------------------------------------------------

         :::::::::::::::::::::::::::::::::::::::::::::::::::::
         ::                  THERMODYNAMIC                  ::
         :::::::::::::::::::::::::::::::::::::::::::::::::::::
         :: total free energy        -139.014457311464 Eh   ::
         ::.................................................::
         :: total energy             -139.634046610562 Eh   ::
         :: zero point energy           0.692571942852 Eh   ::
         :: G(RRHO) w/o ZPVE           -0.072982643754 Eh   ::
         :: G(RRHO) contrib.            0.619589299098 Eh   ::
         :::::::::::::::::::::::::::::::::::::::::::::::::::::

           -------------------------------------------------
          | TOTAL ENERGY             -139.634046610562 Eh   |
          | TOTAL ENTHALPY           -138.896666101343 Eh   |
          | TOTAL FREE ENERGY        -139.014457311464 Eh   |
          | GRADIENT NORM               0.000035546729 Eh/α |
          | HOMO-LUMO GAP               1.019748871336 eV   |
           -------------------------------------------------

 * finished run on 2025/09/04 at 06:05:17.671
