   * xtb version 6.7.1 (edcfbbe) compiled by 'albert@albert-system' on 2024-07-22

   ID    Z sym.   atoms
    1    6 C      1-4, 6-20, 22-36, 38-45, 47, 48, 50-55
    2    7 N      5, 21, 37, 46, 49
    3    1 H      56-90

          program call               : xtb data2507/toluene/2F/2F_toluene_T1_crest.xyz --gfn 2 --uhf 2 --gbsa toluene --ohess vtight --parallel 40 --molden --ceasefiles --namespace data2507/toluene/2F/2F_toluene_T1_finalOpt
      * Solvation model:               GBSA
        Solvent                        toluene
        Solvent mass                       9.2140E+01 g/mol
          :  Hamiltonian                  GFN2-xTB          :
 * total energy  :  -139.5776236 Eh     change       -0.9129707E-08 Eh
 * total energy  :  -139.5777675 Eh     change       -0.1438591E-03 Eh
 * total energy  :  -139.5778460 Eh     change       -0.7848632E-04 Eh
 * total energy  :  -139.5778532 Eh     change       -0.7261467E-05 Eh
 * total energy  :  -139.5778595 Eh     change       -0.6301058E-05 Eh
 * total energy  :  -139.5778635 Eh     change       -0.3922193E-05 Eh
 * total energy  :  -139.5778700 Eh     change       -0.6592778E-05 Eh
 * total energy  :  -139.5778734 Eh     change       -0.3346288E-05 Eh
 * total energy  :  -139.5778749 Eh     change       -0.1517055E-05 Eh
 * total energy  :  -139.5778758 Eh     change       -0.8649601E-06 Eh
 * total energy  :  -139.5778877 Eh     change       -0.3825658E-06 Eh
 * total energy  :  -139.5778881 Eh     change       -0.3279643E-06 Eh
 * total energy  :  -139.5778884 Eh     change       -0.2967996E-06 Eh
 * total energy  :  -139.5778886 Eh     change       -0.2914223E-06 Eh
 * total energy  :  -139.5778889 Eh     change       -0.2706150E-06 Eh
 * total energy  :  -139.5778891 Eh     change       -0.2226625E-06 Eh
 * total energy  :  -139.5778893 Eh     change       -0.1787213E-06 Eh
 * total energy  :  -139.5778895 Eh     change       -0.1627972E-06 Eh
 * total energy  :  -139.5778895 Eh     change       -0.1713829E-08 Eh
   *** GEOMETRY OPTIMIZATION CONVERGED AFTER 44 ITERATIONS ***

 final structure:
================
90
 xtb: 6.7.1 (edcfbbe)
C           -1.66549517141655       -7.58670069200998        2.38250703030669
C           -2.30638210754496       -7.69149438580894        1.15798314711305
C           -2.60570013790053       -6.55882176120104        0.42581395202678
C           -2.26999287751842       -5.29653026058608        0.91679571962523
N           -2.57405242245029       -4.14491298479592        0.18087904886751
C           -3.78075761229536       -4.06413305361296       -0.52272707034557
C           -4.94338716499335       -4.63201653508239        0.00061750898894
C           -6.13164622276038       -4.55503482317702       -0.69986186250665
C           -6.18507374658779       -3.90645157243039       -1.92357781983147
C           -5.03466993292688       -3.33630406870386       -2.44554618135457
C           -3.83958835418606       -3.41547541697349       -1.75736337235604
C           -1.67530667603634       -3.07436812745765        0.15396666824389
C           -0.29209165667148       -3.32255261294973        0.13697605978754
C            0.62791820185466       -2.29786809857819        0.09785637819936
C            0.15585861382817       -0.99081539389833        0.05862880927346
C           -1.23488294709497       -0.72608067236453        0.09902515306022
C           -2.14849757192156       -1.76381838532023        0.14845548551378
C           -1.37474574156207        0.70458344518265        0.08740282252590
C           -2.47296243488006        1.54614519706480        0.09992474671268
C           -2.26273956982668        2.92251157566697        0.05061316241752
N           -3.35140589834015        3.80023203323534        0.05645681749279
C           -3.26847902344758        5.01290137537738        0.74959710633324
C           -3.86690105296409        6.16426683752811        0.23598779871839
C           -3.78696557704567        7.35714263269162        0.92813268308581
C           -3.10633229061749        7.42551942679791        2.13365042585119
C           -2.50520278072223        6.28624696589388        2.64520398716297
C           -2.58566863904233        5.08684658305281        1.96460990366532
C           -4.52641946545914        3.46042577426158       -0.62374494718247
C           -4.46690916744431        2.77888757221462       -1.84040402049103
C           -5.62907506298102        2.44217907558978       -2.50681532296504
C           -6.86485072582010        2.78285419951195       -1.97974005182346
C           -6.92967820818583        3.46229987656982       -0.77346350801757
C           -5.77349205801907        3.79715216830638       -0.09532724721424
C           -0.95509972918668        3.43257476327516       -0.01982970710234
C            0.14657449302184        2.60569408052442       -0.02449442450459
C           -0.06144628235507        1.23274667564526        0.04400303147622
N            0.84786409053373        0.19914564687155        0.02769496131413
C            2.24557170221206        0.33458317410601       -0.02088610440614
C            2.98639352024267       -0.36191652010976       -0.97288927382947
C            4.35872316881382       -0.23629527276309       -1.01136301196620
C            5.03607499097339        0.59456847277753       -0.11326859893163
C            6.49102786567916        0.72546278165490       -0.16010805422209
C            7.11146510915270        1.94080091268459        0.13015055460703
C            8.48431018879490        2.07820975976311        0.07215961846903
C            9.30773512998858        0.99960674407221       -0.26602346259234
N           10.63567084045699        1.10814730176787       -0.31904438891440
C           11.37102206677542        0.04231609509972       -0.64471243644140
C           10.77601050767910       -1.16869642062202       -0.92844316860169
N            9.45572262662147       -1.31771202895319       -0.89138221330536
C            8.67969777340817       -0.26836179612060       -0.56616917826214
C            7.29660211956473       -0.36774483045973       -0.50730428332580
C            4.27703044821354        1.29383043185448        0.83023594391163
C            2.90527197901584        1.16489478649583        0.88212779198661
C           -1.62681374244658       -5.19623217444646        2.15116034215267
C           -1.32669159248569       -6.33538291304292        2.87280186017254
H           -1.43105391206046       -8.47425746809673        2.95063971686231
H           -2.56798915936345       -8.66335667512835        0.76571904679110
H           -3.09551863095383       -6.64302963147295       -0.53323043341994
H           -4.90773578021086       -5.12730873488074        0.95991329816985
H           -7.02436593165365       -4.99753066278411       -0.28263768433620
H           -7.11619321041810       -3.84650084424285       -2.46655295849078
H           -5.06531435026582       -2.83432301341383       -3.40152730280980
H           -2.94183356423412       -2.98259934223960       -2.17352513129004
H            0.05198960032052       -4.34580878853274        0.14853581299756
H            1.68546618746511       -2.51085830169557        0.09445889969691
H           -3.20832651303655       -1.56509474144322        0.18955522286638
H           -3.47426238902356        1.14674030711652        0.14780596856283
H           -4.38798483172147        6.11615120654486       -0.70900792053594
H           -4.25247662681773        8.24184825090638        0.51898680006219
H           -3.04461435853292        8.36013083677470        2.67042570761325
H           -1.97703581312270        6.32949621979837        3.58652723935052
H           -2.12733012416672        4.19707780800540        2.37075906300769
H           -3.50488692840321        2.52306991312859       -2.25962748263722
H           -5.56859288436165        1.91812793697837       -3.44938894123216
H           -7.77078876932180        2.52104742063728       -2.50527112485289
H           -7.88855986919425        3.72706039912878       -0.35240075999322
H           -5.82806330078498        4.31652448687570        0.85016127046145
H           -0.81857237407010        4.50148468575243       -0.08562423648791
H            1.14093519503578        3.01695292767809       -0.10184231345689
H            2.47727774650759       -0.98601702580173       -1.69259479352443
H            4.91805440562893       -0.76575729130610       -1.76790468698576
H            6.51067935873055        2.80511277584719        0.37220020800581
H            8.95616680983849        3.02633279838383        0.28294859033827
H           12.44184319064848        0.17366150544485       -0.67317019788823
H           11.36050367514165       -2.03841741545983       -1.19028878848386
H            6.85689444712414       -1.33245031481877       -0.70969910774011
H            4.77568572979133        1.92255476492649        1.55253202062128
H            2.33870303276985        1.68991236630766        1.63702747759650
H           -1.37108231012287       -4.22116999203742        2.53942489139154
H           -0.83201229176285       -6.24475289543914        3.82878322129422

          :  Hamiltonian                  GFN2-xTB          :
         :: gradient norm              0.000031794559 Eh/a0 ::
         :: HOMO-LUMO gap              0.708750771259 eV    ::
         :: SCC energy              -142.156935075722 Eh    ::
         :: -> dispersion             -0.125149813015 Eh    ::
         :: -> Gsolv                  -0.063903010171 Eh    ::
         :: repulsion energy           2.579045597139 Eh    ::

    * Orbital Energies and Occupations

         #    Occupation            Energy/Eh            Energy/eV
      -------------------------------------------------------------
         1        2.0000           -0.6860769             -18.6691
       ...           ...                  ...                  ...
       119        2.0000           -0.4102619             -11.1638
       120        2.0000           -0.4101082             -11.1596
       121        2.0000           -0.4091513             -11.1336
       122        2.0000           -0.4089124             -11.1271
       123        2.0000           -0.4086425             -11.1197
       124        2.0000           -0.3957350             -10.7685
       125        2.0000           -0.3921493             -10.6709
       126        2.0000           -0.3850059             -10.4765
       127        2.0000           -0.3738242             -10.1723
       128        2.0000           -0.3567215              -9.7069
       129        1.6288           -0.3465208              -9.4293
       130        1.3712           -0.3455191              -9.4021
       131        1.0000           -0.2824855              -7.6868 (HOMO)
       132        0.0000           -0.2564394              -6.9781 (LUMO)
       133                         -0.2461182              -6.6972
       134                         -0.2386438              -6.4938
       135                         -0.2352370              -6.4011
       136                         -0.2351681              -6.3992
       137                         -0.2297623              -6.2521
       138                         -0.2293386              -6.2406
       139                         -0.2271669              -6.1815
       140                         -0.2260429              -6.1509
       141                         -0.2258550              -6.1458
       142                         -0.2237769              -6.0893
       ...                                ...                  ...
       255                          0.7348871              19.9973
      -------------------------------------------------------------
                  HL-Gap            0.0260461 Eh            0.7088 eV

     #   Z          covCN         q      C6AA      α(0)
     1   6 C        2.919    -0.036    28.892     8.814
     2   6 C        2.919    -0.029    28.715     8.787
     3   6 C        2.922    -0.045    29.127     8.850
     4   6 C        2.924     0.064    26.560     8.452
     5   7 N        2.753    -0.060    22.410     7.031
     6   6 C        2.924     0.064    26.558     8.451
     7   6 C        2.922    -0.046    29.139     8.852
     8   6 C        2.919    -0.029    28.715     8.787
     9   6 C        2.919    -0.036    28.900     8.816
    10   6 C        2.919    -0.029    28.714     8.787
    11   6 C        2.922    -0.046    29.142     8.853
    12   6 C        2.924     0.058    26.709     8.475
    13   6 C        2.925    -0.048    29.200     8.862
    14   6 C        2.908    -0.046    29.132     8.850
    15   6 C        3.079     0.042    26.980     8.516
    16   6 C        3.066    -0.014    28.286     8.721
    17   6 C        2.915    -0.048    29.195     8.860
    18   6 C        3.066    -0.014    28.286     8.721
    19   6 C        2.914    -0.048    29.195     8.860
    20   6 C        2.924     0.058    26.710     8.475
    21   7 N        2.753    -0.060    22.410     7.031
    22   6 C        2.924     0.064    26.559     8.451
    23   6 C        2.922    -0.046    29.135     8.852
    24   6 C        2.919    -0.029    28.716     8.788
    25   6 C        2.919    -0.036    28.898     8.815
    26   6 C        2.919    -0.029    28.716     8.788
    27   6 C        2.922    -0.046    29.141     8.853
    28   6 C        2.924     0.064    26.559     8.451
    29   6 C        2.922    -0.046    29.138     8.852
    30   6 C        2.919    -0.029    28.713     8.787
    31   6 C        2.919    -0.036    28.897     8.815
    32   6 C        2.919    -0.029    28.715     8.787
    33   6 C        2.922    -0.046    29.135     8.852
    34   6 C        2.925    -0.048    29.191     8.860
    35   6 C        2.908    -0.046    29.133     8.850
    36   6 C        3.079     0.042    26.977     8.515
    37   7 N        2.801    -0.023    21.690     6.917
    38   6 C        2.913     0.053    26.817     8.492
    39   6 C        2.919    -0.043    29.070     8.842
    40   6 C        2.925    -0.035    28.878     8.813
    41   6 C        2.974     0.009    27.812     8.650
    42   6 C        2.971    -0.006    28.176     8.707
    43   6 C        2.920    -0.043    29.070     8.842
    44   6 C        2.915    -0.070    29.739     8.943
    45   6 C        2.948     0.090    26.000     8.363
    46   7 N        1.844    -0.251    27.385     7.755
    47   6 C        2.878     0.028    27.364     8.576
    48   6 C        2.876     0.036    27.185     8.547
    49   7 N        1.844    -0.255    27.499     7.772
    50   6 C        2.944     0.086    26.083     8.376
    51   6 C        2.923    -0.076    29.896     8.967
    52   6 C        2.924    -0.036    28.893     8.815
    53   6 C        2.919    -0.043    29.076     8.842
    54   6 C        2.922    -0.046    29.133     8.851
    55   6 C        2.919    -0.029    28.715     8.787
    56   1 H        0.926     0.035     2.512     2.479
    57   1 H        0.926     0.037     2.489     2.467
    58   1 H        0.926     0.036     2.498     2.472
    59   1 H        0.926     0.035     2.510     2.477
    60   1 H        0.926     0.037     2.494     2.469
    61   1 H        0.926     0.035     2.510     2.477
    62   1 H        0.926     0.037     2.485     2.465
    63   1 H        0.926     0.036     2.500     2.473
    64   1 H        0.926     0.041     2.441     2.443
    65   1 H        0.926     0.042     2.421     2.433
    66   1 H        0.926     0.043     2.413     2.429
    67   1 H        0.926     0.043     2.414     2.430
    68   1 H        0.926     0.036     2.503     2.474
    69   1 H        0.926     0.037     2.493     2.469
    70   1 H        0.926     0.035     2.515     2.480
    71   1 H        0.926     0.037     2.492     2.469
    72   1 H        0.926     0.036     2.501     2.473
    73   1 H        0.926     0.036     2.501     2.473
    74   1 H        0.926     0.037     2.484     2.465
    75   1 H        0.926     0.036     2.509     2.477
    76   1 H        0.926     0.037     2.492     2.469
    77   1 H        0.926     0.036     2.506     2.476
    78   1 H        0.926     0.041     2.436     2.441
    79   1 H        0.926     0.042     2.417     2.431
    80   1 H        0.926     0.042     2.427     2.436
    81   1 H        0.926     0.038     2.479     2.462
    82   1 H        0.926     0.032     2.561     2.503
    83   1 H        0.926     0.033     2.544     2.494
    84   1 H        0.926     0.029     2.601     2.522
    85   1 H        0.926     0.030     2.584     2.514
    86   1 H        0.926     0.034     2.530     2.487
    87   1 H        0.926     0.039     2.468     2.457
    88   1 H        0.926     0.042     2.419     2.432
    89   1 H        0.926     0.036     2.499     2.472
    90   1 H        0.926     0.037     2.491     2.468

molecular dipole:
                 x           y           z       tot (Debye)
 q only:       -6.403      -0.111       0.331
   full:       -6.137      -0.147       0.311      15.624

 projected vibrational frequencies (cm⁻¹)
eigval :       -0.00    -0.00    -0.00     0.00     0.00     0.00
eigval :       11.74    12.27    14.37    15.64    23.87    28.76
eigval :       35.90    39.99    45.19    47.48    57.00    57.98
eigval :       59.79    69.93    76.83    80.69    83.77    86.24
eigval :       95.61   125.00   134.13   136.89   144.88   170.86
eigval :      194.09   194.60   202.10   221.17   227.63   230.99
eigval :      248.95   250.40   256.99   285.42   305.85   314.35
eigval :      317.22   321.88   330.00   343.14   353.72   374.96
eigval :      376.58   377.79   382.03   383.19   383.65   390.38
eigval :      404.16   405.34   410.63   428.56   436.73   447.09
eigval :      455.22   458.82   471.14   475.74   493.06   495.88
eigval :      501.85   506.42   519.60   551.59   552.37   558.71
eigval :      567.50   577.84   580.59   586.51   588.15   589.67
eigval :      592.77   595.24   601.82   613.57   626.62   634.03
eigval :      635.91   658.87   660.44   663.72   665.65   677.15
eigval :      682.98   687.70   690.45   702.33   708.14   735.37
eigval :      739.57   752.98   754.73   754.93   757.32   786.07
eigval :      790.16   796.84   802.06   818.28   821.89   825.15
eigval :      828.08   855.87   864.66   867.95   869.89   870.20
eigval :      870.99   871.87   873.04   879.68   882.27   885.49
eigval :      890.65   891.52   892.84   894.07   908.46   908.91
eigval :      911.68   915.10   923.93   924.16   925.58   925.83
eigval :      926.42   926.47   928.23   928.63   929.64   931.03
eigval :      939.15   947.51   969.87   988.74  1001.77  1003.26
eigval :     1010.53  1012.77  1033.42  1069.75  1080.88  1081.65
eigval :     1082.03  1082.73  1104.46  1112.30  1120.25  1121.82
eigval :     1122.32  1123.86  1128.03  1136.66  1149.04  1150.68
eigval :     1165.50  1177.46  1178.07  1179.22  1179.27  1179.55
eigval :     1180.50  1182.79  1192.49  1194.66  1197.59  1199.91
eigval :     1202.31  1225.71  1229.25  1239.74  1246.54  1264.17
eigval :     1267.91  1273.95  1275.95  1276.51  1280.59  1284.48
eigval :     1290.78  1303.08  1303.73  1305.98  1313.59  1316.15
eigval :     1316.91  1318.93  1320.82  1324.20  1324.42  1334.01
eigval :     1350.61  1355.23  1357.84  1371.70  1378.46  1399.18
eigval :     1411.59  1421.97  1429.46  1432.04  1432.31  1439.96
eigval :     1440.40  1457.97  1464.97  1465.56  1465.90  1466.92
eigval :     1478.43  1481.85  1501.18  1514.32  1527.14  1543.01
eigval :     1554.19  1565.19  1572.11  1572.95  1576.11  1576.24
eigval :     1583.13  1585.46  1586.58  1586.75  1591.91  1593.03
eigval :     1604.96  3058.98  3071.48  3073.09  3074.51  3075.02
eigval :     3075.12  3075.56  3075.74  3076.07  3076.30  3076.93
eigval :     3079.23  3080.77  3084.18  3084.40  3084.70  3085.18
eigval :     3085.38  3086.54  3087.07  3087.43  3088.11  3088.39
eigval :     3089.98  3090.23  3091.13  3094.04  3095.27  3095.49
eigval :     3095.63  3095.95  3096.27  3098.26  3101.02  3101.98

   temp. (K)  partition function   enthalpy   heat capacity  entropy
                                   cal/mol     cal/K/mol   cal/K/mol   J/K/mol
 298.15  VIB  0.451E+21            25867.160    163.192    161.754
         ROT  0.185E+09              888.752      2.981     40.814
         INT  0.836E+29            26755.912    166.172    202.567
         TR   0.181E+29             1481.254      4.968     45.522
         TOT                       28237.1658   171.1406   248.0897  1038.0073

       T/K    H(0)-H(T)+PV         H(T)/Eh          T*S/Eh         G(T)/Eh
   ------------------------------------------------------------------------
    298.15    0.449988E-01    0.734949E+00    0.117875E+00    0.617074E+00
   ------------------------------------------------------------------------

         :::::::::::::::::::::::::::::::::::::::::::::::::::::
         ::                  THERMODYNAMIC                  ::
         :::::::::::::::::::::::::::::::::::::::::::::::::::::
         :: total free energy        -138.960815723787 Eh   ::
         ::.................................................::
         :: total energy             -139.577889480944 Eh   ::
         :: zero point energy           0.689950390633 Eh   ::
         :: G(RRHO) w/o ZPVE           -0.072876633476 Eh   ::
         :: G(RRHO) contrib.            0.617073757157 Eh   ::
         :::::::::::::::::::::::::::::::::::::::::::::::::::::

           -------------------------------------------------
          | TOTAL ENERGY             -139.577889480944 Eh   |
          | TOTAL ENTHALPY           -138.842940302280 Eh   |
          | TOTAL FREE ENERGY        -138.960815723787 Eh   |
          | GRADIENT NORM               0.000031507323 Eh/α |
          | HOMO-LUMO GAP               0.708751805019 eV   |
           -------------------------------------------------

 * finished run on 2025/09/04 at 06:24:57.353
