   * xtb version 6.7.1 (edcfbbe) compiled by 'albert@albert-system' on 2024-07-22

   ID    Z sym.   atoms
    1    8 O      1, 3
    2    5 B      2
    3    6 C      4-9, 11-28
    4   14 Si     10
    5    1 H      29-49

          program call               : xtb data2507/toluene/s-triazine/s-triazine_toluene_T1_crest.xyz --gfn 2 --uhf 2 --gbsa toluene --ohess vtight --parallel 40 --molden --ceasefiles --namespace data2507/toluene/s-triazine/s-triazine_toluene_T1_finalOpt
      * Solvation model:               GBSA
        Solvent                        toluene
        Solvent mass                       9.2140E+01 g/mol
          :  Hamiltonian                  GFN2-xTB          :
 * total energy  :   -73.1123875 Eh     change       -0.2187804E-08 Eh
 * total energy  :   -73.1124899 Eh     change       -0.1024475E-03 Eh
 * total energy  :   -73.1125564 Eh     change       -0.6646623E-04 Eh
 * total energy  :   -73.1125691 Eh     change       -0.1271373E-04 Eh
 * total energy  :   -73.1125841 Eh     change       -0.1503230E-04 Eh
 * total energy  :   -73.1125917 Eh     change       -0.7552769E-05 Eh
 * total energy  :   -73.1126055 Eh     change       -0.1385005E-04 Eh
 * total energy  :   -73.1126110 Eh     change       -0.5517065E-05 Eh
 * total energy  :   -73.1126170 Eh     change       -0.5955580E-05 Eh
 * total energy  :   -73.1126216 Eh     change       -0.4568517E-05 Eh
 * total energy  :   -73.1126456 Eh     change       -0.7759873E-06 Eh
 * total energy  :   -73.1126461 Eh     change       -0.5186458E-06 Eh
 * total energy  :   -73.1126465 Eh     change       -0.4125315E-06 Eh
 * total energy  :   -73.1126471 Eh     change       -0.5235698E-06 Eh
 * total energy  :   -73.1126475 Eh     change       -0.4373276E-06 Eh
 * total energy  :   -73.1126478 Eh     change       -0.3164008E-06 Eh
 * total energy  :   -73.1126481 Eh     change       -0.2643549E-06 Eh
 * total energy  :   -73.1126483 Eh     change       -0.2105962E-06 Eh
 * total energy  :   -73.1126483 Eh     change       -0.1404450E-07 Eh
   *** GEOMETRY OPTIMIZATION CONVERGED AFTER 34 ITERATIONS ***

 final structure:
================
49
 xtb: 6.7.1 (edcfbbe)
O            2.96692317552935        1.19970102468591       -0.86913619983244
B            3.02184298747734       -0.14696111454119       -1.12011471771740
O            4.24831732513248       -0.74415500413566       -1.03848341565861
C            1.79626675563717       -1.02417301689090       -1.49007254660884
C            1.97595802689721       -2.36891690825739       -1.84180538995819
C            1.02082311476172       -3.04410009289413       -2.56701714271648
C           -0.18080327308850       -2.38713737041145       -2.96898592904305
C           -0.45016559813087       -1.13219214463748       -2.52310239291583
C            0.42283192795847       -0.56378727044383       -1.54957914111335
Si          -0.38886614639893        0.06962260067126        0.04892716923440
C           -2.27134852037718       -0.03522100926954       -0.11845257559586
C           -3.07313697676266        1.09940243330569       -0.04206675339143
C           -4.44876284103093        1.01270173134792       -0.16600774331030
C           -5.05125839302397       -0.21764888445591       -0.36939986569702
C           -4.26846133160193       -1.35854212289695       -0.44856877934783
C           -2.89427322054636       -1.26388966878813       -0.32609948976014
C            0.19040807587213       -0.82364638107782        1.60620660760826
C            1.54169384118432       -0.80199256070222        1.95864226236283
C            2.00380304385319       -1.49622259792726        3.06102333537580
C            1.12403485621606       -2.22843075436792        3.84234130280910
C           -0.22142099741079       -2.26161988940584        3.50781968512208
C           -0.67908332998479       -1.57127671168706        2.40176479447838
C            0.10915361891131        1.91489696546680        0.13198873050430
C            0.06712848118264        2.72366985910059       -1.00310845331669
C            0.36538016415369        4.07342295109552       -0.92577563830437
C            0.71827481431455        4.63549476560555        0.29003085097079
C            0.76611032948869        3.84314957663661        1.42546125473466
C            0.46382645562772        2.49481498938889        1.34535137918087
H            2.10258205341081        1.61049595987705       -0.93772330682625
H            4.94620607373247       -0.13057500502965       -0.80325891489039
H            2.94696970006872       -2.80959440574719       -1.66625080162977
H            1.23522849255999       -4.02810311188026       -2.95582564318181
H           -0.85751257891218       -2.88407890063426       -3.64840425836672
H           -1.36819658449737       -0.62989456112613       -2.78889836355696
H           -2.61236473623455        2.06364760957347        0.11766730396799
H           -5.05330327559656        1.90687721925937       -0.10422176492655
H           -6.12528029982572       -0.28773962825469       -0.46709952705651
H           -4.73204806694988       -2.32204976523902       -0.60838998569875
H           -2.28794510314805       -2.15584291169545       -0.39743012362008
H            2.23655898339143       -0.23348777743654        1.35891845520641
H            3.05458777117063       -1.46591045743279        3.31387475974035
H            1.48330788659366       -2.76803698681802        4.70692297733397
H           -0.91419908857672       -2.82768342553251        4.11488002463272
H           -1.73027832825382       -1.59882515502126        2.15314077186041
H           -0.20908624732936        2.29062118857576       -1.95423251970089
H            0.32218377215595        4.68659807643074       -1.81448664712914
H            0.95483728254464        5.68774556482576        0.35302369746934
H            1.03867851905409        4.27696900681956        2.37691959025899
H            0.49837462850059        1.88313026347248        2.23465877122042

          :  Hamiltonian                  GFN2-xTB          :
         :: gradient norm              0.000163599872 Eh/a0 ::
         :: HOMO-LUMO gap              0.809038925728 eV    ::
         :: SCC energy               -74.376044130211 Eh    ::
         :: -> dispersion             -0.064312239638 Eh    ::
         :: -> Gsolv                  -0.030690050282 Eh    ::
         :: repulsion energy           1.263395833448 Eh    ::

    * Orbital Energies and Occupations

         #    Occupation            Energy/Eh            Energy/eV
      -------------------------------------------------------------
         1        2.0000           -0.7544093             -20.5285
       ...           ...                  ...                  ...
        57        2.0000           -0.4144638             -11.2781
        58        2.0000           -0.4118353             -11.2066
        59        2.0000           -0.4085741             -11.1179
        60        2.0000           -0.4059242             -11.0458
        61        2.0000           -0.4017138             -10.9312
        62        2.0000           -0.4007202             -10.9042
        63        2.0000           -0.3990299             -10.8582
        64        2.0000           -0.3958816             -10.7725
        65        2.0000           -0.3921112             -10.6699
        66        2.0000           -0.3887574             -10.5786
        67        2.0000           -0.3841612             -10.4536
        68        1.0000           -0.3569488              -9.7131
        69        1.0000           -0.2703741              -7.3573 (HOMO)
        70        0.0000           -0.2406424              -6.5482 (LUMO)
        71                         -0.2349800              -6.3941
        72                         -0.2342223              -6.3735
        73                         -0.2269574              -6.1758
        74                         -0.2250849              -6.1249
        75                         -0.2193737              -5.9695
        76                         -0.2165719              -5.8932
        77                         -0.1484913              -4.0407
        78                         -0.1427932              -3.8856
        79                         -0.1357575              -3.6941
        80                         -0.1344480              -3.6585
       ...                                ...                  ...
       138                          0.6745236              18.3547
      -------------------------------------------------------------
                  HL-Gap            0.0297317 Eh            0.8090 eV

     #   Z          covCN         q      C6AA      α(0)
     1   8 O        1.593    -0.518    23.326     6.518
     2   5 B        2.479     0.424    17.463     7.370
     3   8 O        1.593    -0.492    22.752     6.437
     4   6 C        2.892    -0.102    30.558     9.063
     5   6 C        2.916    -0.022    28.551     8.762
     6   6 C        2.913    -0.044    29.083     8.843
     7   6 C        2.916    -0.036    28.907     8.817
     8   6 C        2.925    -0.026    28.664     8.780
     9   6 C        2.870    -0.095    30.377     9.035
    10  14 Si       3.612     0.488    98.234    19.027
    11   6 C        2.862    -0.097    30.436     9.043
    12   6 C        2.936    -0.035    28.862     8.811
    13   6 C        2.917    -0.032    28.790     8.799
    14   6 C        2.920    -0.031    28.768     8.796
    15   6 C        2.917    -0.032    28.787     8.798
    16   6 C        2.938    -0.034    28.838     8.807
    17   6 C        2.863    -0.094    30.366     9.033
    18   6 C        2.939    -0.039    28.963     8.826
    19   6 C        2.917    -0.031    28.784     8.798
    20   6 C        2.920    -0.033    28.827     8.805
    21   6 C        2.917    -0.032    28.804     8.801
    22   6 C        2.934    -0.034    28.851     8.809
    23   6 C        2.860    -0.094    30.344     9.029
    24   6 C        2.932    -0.041    29.017     8.834
    25   6 C        2.917    -0.030    28.756     8.794
    26   6 C        2.920    -0.028    28.690     8.784
    27   6 C        2.918    -0.028    28.697     8.785
    28   6 C        2.934    -0.031    28.771     8.797
    29   1 H        0.805     0.302     0.713     1.327
    30   1 H        0.806     0.309     0.695     1.309
    31   1 H        0.926     0.041     2.439     2.442
    32   1 H        0.926     0.039     2.458     2.452
    33   1 H        0.926     0.041     2.429     2.437
    34   1 H        0.926     0.039     2.463     2.454
    35   1 H        0.926     0.021     2.722     2.580
    36   1 H        0.926     0.028     2.613     2.528
    37   1 H        0.926     0.029     2.598     2.521
    38   1 H        0.926     0.029     2.605     2.524
    39   1 H        0.926     0.022     2.700     2.570
    40   1 H        0.926     0.017     2.774     2.605
    41   1 H        0.926     0.026     2.646     2.544
    42   1 H        0.926     0.028     2.617     2.530
    43   1 H        0.926     0.028     2.610     2.526
    44   1 H        0.926     0.027     2.632     2.537
    45   1 H        0.926     0.033     2.550     2.497
    46   1 H        0.926     0.037     2.492     2.468
    47   1 H        0.926     0.037     2.495     2.470
    48   1 H        0.926     0.035     2.510     2.477
    49   1 H        0.926     0.030     2.591     2.517

molecular dipole:
                 x           y           z       tot (Debye)
 q only:       -0.640       0.482      -0.108
   full:       -0.630       0.639      -0.054       2.286

 projected vibrational frequencies (cm⁻¹)
eigval :       -0.00    -0.00     0.00     0.00     0.00     0.00
eigval :       20.46    24.35    30.97    37.99    40.29    45.48
eigval :       48.13    49.94    60.38    68.99    86.07    94.71
eigval :      127.21   160.88   166.33   172.04   183.47   212.43
eigval :      217.73   222.76   238.94   301.98   331.43   353.43
eigval :      357.71   359.86   365.30   388.84   412.62   420.67
eigval :      430.04   447.77   466.77   475.26   491.76   511.25
eigval :      516.33   565.01   583.95   587.49   588.67   589.92
eigval :      627.25   656.20   657.48   661.22   664.59   688.34
eigval :      695.35   705.43   710.33   727.97   732.52   736.01
eigval :      787.66   865.62   872.99   876.66   880.89   881.99
eigval :      892.99   903.51   906.55   909.07   924.71   926.62
eigval :      927.63   929.18   932.57   933.03   934.49   939.66
eigval :      966.85   973.24   975.70  1022.22  1029.03  1080.99
eigval :     1082.58  1083.95  1115.33  1118.91  1120.21  1121.92
eigval :     1126.37  1134.69  1145.74  1151.07  1174.75  1176.01
eigval :     1179.21  1180.07  1201.60  1206.62  1209.23  1218.62
eigval :     1226.50  1281.14  1286.24  1286.84  1288.75  1290.55
eigval :     1306.42  1310.46  1312.28  1369.95  1411.68  1413.55
eigval :     1416.19  1417.90  1452.63  1455.85  1461.72  1492.02
eigval :     1558.00  1568.98  1571.95  1576.71  1578.05  1587.03
eigval :     3058.80  3059.63  3061.55  3062.16  3062.49  3064.99
eigval :     3065.12  3066.92  3069.60  3072.63  3073.09  3073.82
eigval :     3074.20  3079.97  3081.45  3082.51  3084.97  3088.01
eigval :     3091.38  3546.34  3610.86

   temp. (K)  partition function   enthalpy   heat capacity  entropy
                                   cal/mol     cal/K/mol   cal/K/mol   J/K/mol
 298.15  VIB  0.130E+13            15097.335     90.496     95.523
         ROT  0.133E+08              888.752      2.981     35.576
         INT  0.173E+20            15986.087     93.477    131.099
         TR   0.718E+28             1481.254      4.968     43.680
         TOT                       17467.3412    98.4453   174.7790   731.2752

       T/K    H(0)-H(T)+PV         H(T)/Eh          T*S/Eh         G(T)/Eh
   ------------------------------------------------------------------------
    298.15    0.278360E-01    0.398245E+00    0.830431E-01    0.315202E+00
   ------------------------------------------------------------------------

         :::::::::::::::::::::::::::::::::::::::::::::::::::::
         ::                  THERMODYNAMIC                  ::
         :::::::::::::::::::::::::::::::::::::::::::::::::::::
         :: total free energy         -72.797446146212 Eh   ::
         ::.................................................::
         :: total energy              -73.112648298688 Eh   ::
         :: zero point energy           0.370409302225 Eh   ::
         :: G(RRHO) w/o ZPVE           -0.055207149750 Eh   ::
         :: G(RRHO) contrib.            0.315202152475 Eh   ::
         :::::::::::::::::::::::::::::::::::::::::::::::::::::

           -------------------------------------------------
          | TOTAL ENERGY              -73.112648298688 Eh   |
          | TOTAL ENTHALPY            -72.714403016469 Eh   |
          | TOTAL FREE ENERGY         -72.797446146212 Eh   |
          | GRADIENT NORM               0.000163010196 Eh/α |
          | HOMO-LUMO GAP               0.809041029596 eV   |
           -------------------------------------------------

 * finished run on 2025/09/10 at 07:24:01.464
