   * xtb version 6.7.1 (edcfbbe) compiled by 'albert@albert-system' on 2024-07-22

   ID    Z sym.   atoms
    1    8 O      1, 3
    2    5 B      2
    3    6 C      4-9, 11-28
    4   14 Si     10
    5    1 H      29-49

          program call               : xtb data2507/toluene/s-triazine/s-triazine.xyz --gfn 2 --gbsa toluene --ohess vtight --parallel 40 --molden --ceasefiles --namespace data2507/toluene/s-triazine/s-triazine_toluene_S0_preOpt
      * Solvation model:               GBSA
        Solvent                        toluene
        Solvent mass                       9.2140E+01 g/mol
          :  Hamiltonian                  GFN2-xTB          :
 * total energy  :   -73.1455177 Eh     change       -0.2672564E-08 Eh
 * total energy  :   -73.1752293 Eh     change       -0.2971160E-01 Eh
 * total energy  :   -73.1909404 Eh     change       -0.1571114E-01 Eh
 * total energy  :   -73.1975082 Eh     change       -0.6567752E-02 Eh
 * total energy  :   -73.2012999 Eh     change       -0.3791738E-02 Eh
 * total energy  :   -73.2070700 Eh     change       -0.5770074E-02 Eh
 * total energy  :   -73.2113064 Eh     change       -0.4236382E-02 Eh
 * total energy  :   -73.2154162 Eh     change       -0.4109816E-02 Eh
 * total energy  :   -73.2204375 Eh     change       -0.5021335E-02 Eh
 * total energy  :   -73.2223817 Eh     change       -0.1944212E-02 Eh
 * total energy  :   -73.2365362 Eh     change       -0.6219000E-06 Eh
 * total energy  :   -73.2365365 Eh     change       -0.3264208E-06 Eh
 * total energy  :   -73.2365367 Eh     change       -0.1620295E-06 Eh
 * total energy  :   -73.2365368 Eh     change       -0.1421351E-06 Eh
 * total energy  :   -73.2365370 Eh     change       -0.2067872E-06 Eh
 * total energy  :   -73.2365372 Eh     change       -0.2154297E-06 Eh
 * total energy  :   -73.2365374 Eh     change       -0.1822551E-06 Eh
 * total energy  :   -73.2365375 Eh     change       -0.1378245E-06 Eh
 * total energy  :   -73.2365376 Eh     change       -0.9119204E-07 Eh
   *** GEOMETRY OPTIMIZATION CONVERGED AFTER 183 ITERATIONS ***

 final structure:
================
49
 xtb: 6.7.1 (edcfbbe)
O            2.15363570003971        0.74628378127660        2.03315101656581
B            2.83525949589118        0.23857227907084        0.97131294967630
O            3.97243783458495        0.87265634374904        0.60081255208168
C            2.44261027962816       -1.08200895138107        0.18545787618030
C            3.43141649276746       -2.04079212437455       -0.03262957992447
C            3.16225460425252       -3.22296856054239       -0.69902547602369
C            1.88492028141228       -3.46293392719052       -1.17631367712715
C            0.89569454561460       -2.51628878654076       -0.98210234322485
C            1.14902005136906       -1.32716011151502       -0.30293096642848
Si          -0.24262688712477       -0.05217341762454       -0.10579662157144
C           -1.02048134679013       -0.22209921220923        1.62225881882826
C           -2.15766931464197        0.50781527428083        1.96193804212660
C           -2.73375828060286        0.39565911188292        3.21467444632164
C           -2.18583013484431       -0.46095157485463        4.15593930459165
C           -1.06643298458943       -1.20909256936532        3.83196001045175
C           -0.49273605099878       -1.08928283702220        2.57740609845775
C            0.47420147326106        1.67818749602124       -0.39717278008258
C            0.13893367252994        2.77167681420346        0.39443708444579
C            0.69000159218063        4.01909412072675        0.16056947083297
C            1.58901451951842        4.19687253276273       -0.87784609163798
C            1.93496798222281        3.11913396612682       -1.67633627042736
C            1.38354149847433        1.87403319286646       -1.43356197652760
C           -1.61809896982733       -0.38877568788936       -1.37078251205602
C           -1.67409416712578        0.28488234485807       -2.58725414275443
C           -2.67163834628148        0.01675780472222       -3.50821329000060
C           -3.63782480878242       -0.93489542370246       -3.22684358260504
C           -3.60082601244530       -1.61226323581648       -2.01892306081726
C           -2.60076893176477       -1.33864112940223       -1.10320241634554
H            1.35649587891134        0.28901543084968        2.30518702059612
H            4.16709886030828        1.65280954522596        1.12438097222972
H            4.43002495170968       -1.84555660628003        0.33217385493208
H            3.94701344791067       -3.95078728834378       -0.85025918394747
H            1.66279197468567       -4.38047519982459       -1.70309108275375
H           -0.09709593153812       -2.69854670942323       -1.36880015284511
H           -2.60028950112748        1.16480610417198        1.22689657172604
H           -3.61400302263258        0.97372557713428        3.45818785170921
H           -2.63421937417899       -0.55084226845630        5.13484587843344
H           -0.64136722598187       -1.88912351810211        4.55648369195808
H            0.36864667029046       -1.69459702716340        2.32676859902604
H           -0.55494376540369        2.64247910340945        1.21203336473157
H            0.42000679326832        4.85518838206948        0.79054020251230
H            2.02144973408870        5.17023815035793       -1.06186895331253
H            2.64011338273882        3.24872678404316       -2.48543272735519
H            1.66974066408756        1.03525419365345       -2.05254962139346
H           -0.92715652983378        1.03266698062328       -2.81219228664586
H           -2.69734357721210        0.55141761720326       -4.44747729882484
H           -4.41767231633012       -1.14643998313395       -3.94462869824918
H           -4.35374560084744       -2.35416555559901       -1.79174164251361
H           -2.58067130080655       -1.86709322551458       -0.16043724304351

          :  Hamiltonian                  GFN2-xTB          :
         :: gradient norm              0.000066560209 Eh/a0 ::
         :: HOMO-LUMO gap              3.730757924028 eV    ::
         :: SCC energy               -74.516418531933 Eh    ::
         :: -> dispersion             -0.064831560032 Eh    ::
         :: -> Gsolv                  -0.030012192370 Eh    ::
         :: repulsion energy           1.279880905800 Eh    ::

    * Orbital Energies and Occupations

         #    Occupation            Energy/Eh            Energy/eV
      -------------------------------------------------------------
         1        2.0000           -0.7560304             -20.5726
       ...           ...                  ...                  ...
        56        2.0000           -0.4176885             -11.3659
        57        2.0000           -0.4077068             -11.0943
        58        2.0000           -0.4055958             -11.0368
        59        2.0000           -0.4032924             -10.9741
        60        2.0000           -0.4021400             -10.9428
        61        2.0000           -0.4007106             -10.9039
        62        2.0000           -0.3998920             -10.8816
        63        2.0000           -0.3990549             -10.8588
        64        2.0000           -0.3980185             -10.8306
        65        2.0000           -0.3968988             -10.8002
        66        2.0000           -0.3850590             -10.4780
        67        2.0000           -0.3822050             -10.4003
        68        2.0000           -0.3796079             -10.3297 (HOMO)
        69                         -0.2425052              -6.5989 (LUMO)
        70                         -0.2374523              -6.4614
        71                         -0.2350248              -6.3954
        72                         -0.2280507              -6.2056
        73                         -0.2245203              -6.1095
        74                         -0.2228945              -6.0653
        75                         -0.2188349              -5.9548
        76                         -0.2176070              -5.9214
        77                         -0.1452712              -3.9530
        78                         -0.1434569              -3.9037
        79                         -0.1385388              -3.7698
       ...                                ...                  ...
       138                          0.6755121              18.3816
      -------------------------------------------------------------
                  HL-Gap            0.1371027 Eh            3.7308 eV

     #   Z          covCN         q      C6AA      α(0)
     1   8 O        1.593    -0.503    22.987     6.470
     2   5 B        2.476     0.432    17.418     7.370
     3   8 O        1.593    -0.478    22.464     6.396
     4   6 C        2.896    -0.093    30.330     9.030
     5   6 C        2.922    -0.031    28.769     8.796
     6   6 C        2.917    -0.030    28.756     8.793
     7   6 C        2.917    -0.031    28.768     8.795
     8   6 C        2.936    -0.034    28.852     8.809
     9   6 C        2.864    -0.101    30.541     9.059
    10  14 Si       3.608     0.493    98.146    19.021
    11   6 C        2.860    -0.099    30.488     9.051
    12   6 C        2.936    -0.030    28.759     8.795
    13   6 C        2.917    -0.029    28.731     8.790
    14   6 C        2.920    -0.028    28.711     8.787
    15   6 C        2.917    -0.031    28.764     8.795
    16   6 C        2.934    -0.044    29.088     8.845
    17   6 C        2.862    -0.098    30.453     9.045
    18   6 C        2.934    -0.033    28.834     8.806
    19   6 C        2.917    -0.032    28.797     8.800
    20   6 C        2.920    -0.031    28.777     8.797
    21   6 C        2.917    -0.032    28.787     8.798
    22   6 C        2.941    -0.033    28.832     8.806
    23   6 C        2.862    -0.095    30.379     9.034
    24   6 C        2.935    -0.033    28.825     8.805
    25   6 C        2.917    -0.031    28.773     8.796
    26   6 C        2.920    -0.030    28.744     8.792
    27   6 C        2.917    -0.031    28.783     8.798
    28   6 C        2.938    -0.033    28.825     8.805
    29   1 H        0.806     0.310     0.691     1.306
    30   1 H        0.806     0.313     0.682     1.297
    31   1 H        0.926     0.025     2.654     2.548
    32   1 H        0.926     0.029     2.596     2.520
    33   1 H        0.926     0.029     2.595     2.519
    34   1 H        0.926     0.025     2.665     2.553
    35   1 H        0.926     0.028     2.620     2.531
    36   1 H        0.926     0.033     2.543     2.493
    37   1 H        0.926     0.034     2.535     2.490
    38   1 H        0.926     0.032     2.552     2.498
    39   1 H        0.925     0.022     2.700     2.569
    40   1 H        0.926     0.028     2.616     2.529
    41   1 H        0.926     0.030     2.587     2.515
    42   1 H        0.926     0.030     2.586     2.515
    43   1 H        0.926     0.029     2.606     2.525
    44   1 H        0.926     0.019     2.744     2.590
    45   1 H        0.926     0.024     2.673     2.556
    46   1 H        0.926     0.029     2.603     2.523
    47   1 H        0.926     0.030     2.586     2.515
    48   1 H        0.926     0.029     2.598     2.521
    49   1 H        0.926     0.022     2.709     2.574

molecular dipole:
                 x           y           z       tot (Debye)
 q only:       -0.607       0.037       0.381
   full:       -0.583       0.064       0.468       1.906

 projected vibrational frequencies (cm⁻¹)
eigval :       -0.00    -0.00    -0.00    -0.00     0.00     0.00
eigval :       16.75    28.72    31.01    36.43    39.12    44.34
eigval :       46.31    48.39    61.45    76.20   102.72   118.23
eigval :      158.18   161.84   166.86   192.59   204.31   207.32
eigval :      218.53   224.99   228.70   313.16   322.10   357.83
eigval :      361.24   363.86   405.47   412.84   417.51   425.17
eigval :      465.55   470.87   480.63   493.89   522.70   569.72
eigval :      575.09   588.26   589.19   589.67   629.96   646.93
eigval :      662.21   663.90   665.07   676.84   691.73   702.05
eigval :      707.64   729.71   735.29   738.53   738.96   767.43
eigval :      880.83   884.07   887.04   889.54   904.24   906.79
eigval :      909.96   920.38   930.38   931.09   932.57   933.27
eigval :      933.76   935.95   938.43   949.26   953.04   973.84
eigval :      975.48   976.09  1020.42  1082.71  1084.10  1084.39
eigval :     1095.16  1117.39  1119.92  1122.07  1135.58  1140.77
eigval :     1146.19  1149.61  1159.00  1179.07  1180.28  1180.59
eigval :     1181.20  1203.24  1206.22  1209.48  1242.37  1255.78
eigval :     1275.10  1282.57  1286.26  1289.45  1293.71  1306.91
eigval :     1309.32  1310.85  1406.16  1415.13  1417.65  1419.25
eigval :     1446.45  1459.92  1462.61  1463.78  1557.56  1572.29
eigval :     1574.61  1576.02  1582.38  1589.37  1591.62  1593.33
eigval :     3052.31  3058.07  3059.03  3059.51  3061.57  3061.72
eigval :     3063.01  3063.44  3068.05  3068.34  3068.50  3069.98
eigval :     3073.07  3073.84  3076.23  3078.31  3081.58  3083.03
eigval :     3084.23  3573.38  3590.57

   temp. (K)  partition function   enthalpy   heat capacity  entropy
                                   cal/mol     cal/K/mol   cal/K/mol   J/K/mol
 298.15  VIB  0.592E+12            14631.598     87.983     92.274
         ROT  0.132E+08              888.752      2.981     35.565
         INT  0.782E+19            15520.350     90.964    127.839
         TR   0.718E+28             1481.254      4.968     43.680
         TOT                       17001.6043    95.9320   171.5193   717.6368

       T/K    H(0)-H(T)+PV         H(T)/Eh          T*S/Eh         G(T)/Eh
   ------------------------------------------------------------------------
    298.15    0.270938E-01    0.402275E+00    0.814944E-01    0.320781E+00
   ------------------------------------------------------------------------

         :::::::::::::::::::::::::::::::::::::::::::::::::::::
         ::                  THERMODYNAMIC                  ::
         :::::::::::::::::::::::::::::::::::::::::::::::::::::
         :: total free energy         -72.915756681102 Eh   ::
         ::.................................................::
         :: total energy              -73.236537627869 Eh   ::
         :: zero point energy           0.375181530470 Eh   ::
         :: G(RRHO) w/o ZPVE           -0.054400583703 Eh   ::
         :: G(RRHO) contrib.            0.320780946767 Eh   ::
         :::::::::::::::::::::::::::::::::::::::::::::::::::::

           -------------------------------------------------
          | TOTAL ENERGY              -73.236537627869 Eh   |
          | TOTAL ENTHALPY            -72.834262316353 Eh   |
          | TOTAL FREE ENERGY         -72.915756681102 Eh   |
          | GRADIENT NORM               0.000066592920 Eh/α |
          | HOMO-LUMO GAP               3.730754702904 eV   |
           -------------------------------------------------

 * finished run on 2025/09/10 at 07:18:47.249
