   * xtb version 6.7.1 (edcfbbe) compiled by 'albert@albert-system' on 2024-07-22

   ID    Z sym.   atoms
    1    8 O      1, 3
    2    5 B      2
    3    6 C      4-9, 11-28
    4   14 Si     10
    5    1 H      29-49

          program call               : xtb data2507/toluene/s-triazine/s-triazine_toluene_S0_finalOpt.xtbopt.xyz --gfn 2 --uhf 2 --gbsa toluene --ohess vtight --parallel 40 --molden --ceasefiles --namespace data2507/toluene/s-triazine/s-triazine_toluene_T1_preOpt
      * Solvation model:               GBSA
        Solvent                        toluene
        Solvent mass                       9.2140E+01 g/mol
          :  Hamiltonian                  GFN2-xTB          :
 * total energy  :   -73.0980104 Eh     change       -0.1330832E-08 Eh
 * total energy  :   -73.1006278 Eh     change       -0.2617403E-02 Eh
 * total energy  :   -73.1019498 Eh     change       -0.1321914E-02 Eh
 * total energy  :   -73.1029469 Eh     change       -0.9970913E-03 Eh
 * total energy  :   -73.1039578 Eh     change       -0.1010922E-02 Eh
 * total energy  :   -73.1046879 Eh     change       -0.7301090E-03 Eh
 * total energy  :   -73.1051479 Eh     change       -0.4600248E-03 Eh
 * total energy  :   -73.1054735 Eh     change       -0.3256307E-03 Eh
 * total energy  :   -73.1056056 Eh     change       -0.1320133E-03 Eh
 * total energy  :   -73.1056863 Eh     change       -0.8077303E-04 Eh
 * total energy  :   -73.1130008 Eh     change       -0.1587457E-05 Eh
 * total energy  :   -73.1130023 Eh     change       -0.1520435E-05 Eh
 * total energy  :   -73.1130038 Eh     change       -0.1571748E-05 Eh
 * total energy  :   -73.1130056 Eh     change       -0.1762594E-05 Eh
 * total energy  :   -73.1130076 Eh     change       -0.2041185E-05 Eh
 * total energy  :   -73.1130099 Eh     change       -0.2285092E-05 Eh
 * total energy  :   -73.1130123 Eh     change       -0.2345413E-05 Eh
 * total energy  :   -73.1130144 Eh     change       -0.2143892E-05 Eh
 * total energy  :   -73.1130144 Eh     change       -0.1617965E-07 Eh
   *** GEOMETRY OPTIMIZATION CONVERGED AFTER 94 ITERATIONS ***

 final structure:
================
49
 xtb: 6.7.1 (edcfbbe)
O            2.92606099026429       -1.25037644327071       -0.33783823955045
B            3.12151852907052       -0.15522941334559        0.46523643639733
O            4.33019156317274        0.47341991857180        0.37909854534619
C            2.06679393542748        0.38247188385309        1.46927548522224
C            2.39360237089078        1.38012455552875        2.39759776415074
C            1.62486058620440        1.57487111469353        3.52150491478308
C            0.46360967865190        0.77597022480500        3.75393030018967
C            0.04795730162707       -0.11313418413929        2.81318861576038
C            0.71192276923111       -0.12143036459042        1.55679813934942
Si          -0.39451353904428       -0.07163480456586        0.01761985374378
C            0.63463070201460        0.57317971067120       -1.43133945157842
C            1.36954113616665        1.74642815416542       -1.29346492673688
C            2.13842727191408        2.23332812106064       -2.33564310292775
C            2.18692093423118        1.54772222927860       -3.53797626244841
C            1.46088887672194        0.37817531627596       -3.69115536929593
C            0.69282811201277       -0.10222365511168       -2.64518425953011
C           -0.89076728085351       -1.90200360884604       -0.23693162198223
C           -1.91814811643023       -2.19835633692181       -1.12720562054949
C           -2.28900986124621       -3.50826275492264       -1.37486486669412
C           -1.63908237823372       -4.54751857030874       -0.72896042520098
C           -0.61998181147293       -4.26748781295733        0.16568780635344
C           -0.24952250649082       -2.95551412338264        0.40693583653403
C           -1.98890215064944        0.93327229146431        0.16585180438270
C           -2.08737889594308        2.23601780842458       -0.32763231311429
C           -3.23517761352328        2.98350933456850       -0.14776728950415
C           -4.31634099039951        2.44861609665400        0.53690291928650
C           -4.23683238320582        1.15789707237226        1.03669660407029
C           -3.08771003951286        0.41337407955800        0.85439648985545
H            2.07749558914056       -1.68470260263570       -0.25748186042704
H            4.90764124038778        0.07723596169731       -0.27508431410011
H            3.34232073950625        1.88511181961315        2.28193297463057
H            1.96407190890976        2.24342440828517        4.29835642686975
H           -0.06914545961750        0.87290497314760        4.68820698244446
H           -0.84696286664826       -0.69961705194446        2.95624996268633
H            1.34090891076346        2.28294907696668       -0.35608717450972
H            2.70387174428083        3.14579635764335       -2.20859515946641
H            2.79020968586130        1.92299726724482       -4.35250159818721
H            1.49735847333669       -0.16248232582490       -4.62657752701769
H            0.13407516853337       -1.01871955746097       -2.77110534288982
H           -2.43413638866170       -1.39145692849295       -1.62720134084855
H           -3.08834687852433       -3.71852803431846       -2.07136755055779
H           -1.92830266742081       -5.57086740015640       -0.92028676768483
H           -0.11149548598456       -5.07228657481325        0.67729415933866
H            0.54008472084378       -2.74650942195466        1.11587555329181
H           -1.25384913691168        2.65911307604379       -0.86997770073975
H           -3.29216581366476        3.98772051406317       -0.54453841985505
H           -5.21478650018846        3.03237662957947        0.67698822135889
H           -5.07683954492982        0.73234614462829        1.56821627643091
H           -3.03982862508512       -0.59574513883112        1.23840197041371

          :  Hamiltonian                  GFN2-xTB          :
         :: gradient norm              0.000064720996 Eh/a0 ::
         :: HOMO-LUMO gap              0.745242277227 eV    ::
         :: SCC energy               -74.378933260029 Eh    ::
         :: -> dispersion             -0.064681471937 Eh    ::
         :: -> Gsolv                  -0.030662511312 Eh    ::
         :: repulsion energy           1.265918820148 Eh    ::

    * Orbital Energies and Occupations

         #    Occupation            Energy/Eh            Energy/eV
      -------------------------------------------------------------
         1        2.0000           -0.7549033             -20.5420
       ...           ...                  ...                  ...
        57        2.0000           -0.4133505             -11.2478
        58        2.0000           -0.4089733             -11.1287
        59        2.0000           -0.4078734             -11.0988
        60        2.0000           -0.4066517             -11.0656
        61        2.0000           -0.4017769             -10.9329
        62        2.0000           -0.4008848             -10.9086
        63        2.0000           -0.3988827             -10.8541
        64        2.0000           -0.3965011             -10.7893
        65        2.0000           -0.3909584             -10.6385
        66        2.0000           -0.3885435             -10.5728
        67        2.0000           -0.3839035             -10.4465
        68        1.0000           -0.3595945              -9.7851
        69        1.0000           -0.2681800              -7.2975 (HOMO)
        70        0.0000           -0.2407932              -6.5523 (LUMO)
        71                         -0.2347273              -6.3873
        72                         -0.2298622              -6.2549
        73                         -0.2280567              -6.2057
        74                         -0.2254007              -6.1335
        75                         -0.2184916              -5.9455
        76                         -0.2162779              -5.8852
        77                         -0.1520430              -4.1373
        78                         -0.1430336              -3.8921
        79                         -0.1317728              -3.5857
        80                         -0.1298829              -3.5343
       ...                                ...                  ...
       138                          0.6775250              18.4364
      -------------------------------------------------------------
                  HL-Gap            0.0273868 Eh            0.7452 eV

     #   Z          covCN         q      C6AA      α(0)
     1   8 O        1.593    -0.513    23.209     6.501
     2   5 B        2.479     0.423    17.481     7.375
     3   8 O        1.593    -0.490    22.712     6.431
     4   6 C        2.891    -0.100    30.525     9.058
     5   6 C        2.914    -0.022    28.555     8.763
     6   6 C        2.913    -0.044    29.091     8.844
     7   6 C        2.916    -0.037    28.926     8.820
     8   6 C        2.927    -0.028    28.697     8.785
     9   6 C        2.870    -0.095    30.397     9.038
    10  14 Si       3.615     0.485    98.253    19.026
    11   6 C        2.864    -0.099    30.478     9.049
    12   6 C        2.940    -0.035    28.866     8.812
    13   6 C        2.917    -0.031    28.784     8.798
    14   6 C        2.920    -0.031    28.763     8.795
    15   6 C        2.918    -0.032    28.790     8.799
    16   6 C        2.936    -0.034    28.847     8.809
    17   6 C        2.860    -0.089    30.238     9.013
    18   6 C        2.939    -0.031    28.776     8.798
    19   6 C        2.918    -0.029    28.719     8.788
    20   6 C        2.920    -0.028    28.708     8.786
    21   6 C        2.918    -0.030    28.741     8.791
    22   6 C        2.930    -0.038    28.939     8.822
    23   6 C        2.862    -0.092    30.316     9.025
    24   6 C        2.933    -0.035    28.865     8.811
    25   6 C        2.917    -0.032    28.787     8.798
    26   6 C        2.920    -0.034    28.847     8.808
    27   6 C        2.916    -0.032    28.789     8.799
    28   6 C        2.937    -0.036    28.890     8.815
    29   1 H        0.806     0.306     0.703     1.317
    30   1 H        0.806     0.309     0.694     1.309
    31   1 H        0.926     0.039     2.462     2.454
    32   1 H        0.926     0.039     2.465     2.455
    33   1 H        0.926     0.041     2.437     2.441
    34   1 H        0.926     0.037     2.482     2.464
    35   1 H        0.926     0.021     2.715     2.577
    36   1 H        0.926     0.029     2.606     2.524
    37   1 H        0.926     0.030     2.581     2.512
    38   1 H        0.926     0.030     2.584     2.514
    39   1 H        0.926     0.024     2.676     2.558
    40   1 H        0.926     0.028     2.619     2.531
    41   1 H        0.926     0.034     2.528     2.487
    42   1 H        0.926     0.035     2.520     2.482
    43   1 H        0.926     0.035     2.517     2.481
    44   1 H        0.925     0.028     2.611     2.527
    45   1 H        0.926     0.024     2.679     2.559
    46   1 H        0.925     0.027     2.632     2.537
    47   1 H        0.926     0.027     2.629     2.535
    48   1 H        0.925     0.027     2.625     2.534
    49   1 H        0.926     0.018     2.764     2.600

molecular dipole:
                 x           y           z       tot (Debye)
 q only:       -0.593      -0.528       0.005
   full:       -0.581      -0.615      -0.127       2.176

 projected vibrational frequencies (cm⁻¹)
eigval :       -0.00    -0.00    -0.00    -0.00     0.00     0.00
eigval :       15.03    26.60    32.41    37.93    43.79    44.32
eigval :       47.60    51.75    59.78    74.90    88.85    95.72
eigval :      116.33   156.55   160.62   169.97   189.31   204.65
eigval :      216.19   225.45   235.93   299.49   330.45   350.63
eigval :      359.02   359.80   362.79   391.90   412.11   414.64
eigval :      430.03   445.50   465.33   474.66   493.62   511.93
eigval :      512.52   564.69   584.57   587.16   587.82   591.79
eigval :      631.04   654.49   656.68   659.12   663.61   687.01
eigval :      692.33   704.65   708.03   731.18   733.44   737.20
eigval :      785.45   865.49   873.86   876.74   880.43   883.56
eigval :      895.12   901.73   907.07   908.65   925.40   926.06
eigval :      927.27   929.10   932.05   932.48   933.99   938.25
eigval :      966.04   971.13   974.46  1016.38  1026.43  1080.13
eigval :     1081.04  1083.98  1115.92  1117.76  1120.12  1121.47
eigval :     1123.42  1128.51  1146.58  1148.90  1170.22  1178.45
eigval :     1178.89  1181.18  1199.06  1202.28  1207.07  1214.69
eigval :     1231.99  1279.62  1283.67  1285.39  1287.95  1293.02
eigval :     1307.48  1312.47  1313.20  1372.12  1413.98  1414.88
eigval :     1416.71  1418.56  1451.95  1453.62  1463.14  1486.02
eigval :     1554.03  1572.01  1573.36  1574.83  1579.98  1587.22
eigval :     3054.80  3056.52  3059.16  3060.27  3062.77  3063.36
eigval :     3064.53  3065.25  3067.57  3069.69  3070.36  3070.78
eigval :     3074.10  3074.13  3076.28  3081.02  3082.76  3084.22
eigval :     3085.39  3613.29  3623.56

   temp. (K)  partition function   enthalpy   heat capacity  entropy
                                   cal/mol     cal/K/mol   cal/K/mol   J/K/mol
 298.15  VIB  0.150E+13            15126.026     90.734     95.960
         ROT  0.132E+08              888.752      2.981     35.562
         INT  0.198E+20            16014.778     93.715    131.521
         TR   0.718E+28             1481.254      4.968     43.680
         TOT                       17496.0320    98.6835   175.2015   733.0432

       T/K    H(0)-H(T)+PV         H(T)/Eh          T*S/Eh         G(T)/Eh
   ------------------------------------------------------------------------
    298.15    0.278817E-01    0.398190E+00    0.832439E-01    0.314946E+00
   ------------------------------------------------------------------------

         :::::::::::::::::::::::::::::::::::::::::::::::::::::
         ::                  THERMODYNAMIC                  ::
         :::::::::::::::::::::::::::::::::::::::::::::::::::::
         :: total free energy         -72.798067959853 Eh   ::
         ::.................................................::
         :: total energy              -73.113014439469 Eh   ::
         :: zero point energy           0.370308679562 Eh   ::
         :: G(RRHO) w/o ZPVE           -0.055362199947 Eh   ::
         :: G(RRHO) contrib.            0.314946479615 Eh   ::
         :::::::::::::::::::::::::::::::::::::::::::::::::::::

           -------------------------------------------------
          | TOTAL ENERGY              -73.113014439469 Eh   |
          | TOTAL ENTHALPY            -72.714824058197 Eh   |
          | TOTAL FREE ENERGY         -72.798067959853 Eh   |
          | GRADIENT NORM               0.000065039554 Eh/α |
          | HOMO-LUMO GAP               0.745232706064 eV   |
           -------------------------------------------------

 * finished run on 2025/09/10 at 07:21:12.818
