   * xtb version 6.7.1 (edcfbbe) compiled by 'albert@albert-system' on 2024-07-22

   ID    Z sym.   atoms
    1    8 O      1, 3
    2    5 B      2
    3    6 C      4-9, 11-28
    4   14 Si     10
    5    1 H      29-49

          program call               : xtb data2507/toluene/s-triazine/s-triazine_toluene_S0_crest.xyz --gfn 2 --gbsa toluene --ohess vtight --parallel 40 --molden --ceasefiles --namespace data2507/toluene/s-triazine/s-triazine_toluene_S0_finalOpt
      * Solvation model:               GBSA
        Solvent                        toluene
        Solvent mass                       9.2140E+01 g/mol
          :  Hamiltonian                  GFN2-xTB          :
 * total energy  :   -73.2362704 Eh     change       -0.1636209E-08 Eh
 * total energy  :   -73.2363955 Eh     change       -0.1250653E-03 Eh
 * total energy  :   -73.2364613 Eh     change       -0.6578243E-04 Eh
 * total energy  :   -73.2364749 Eh     change       -0.1365243E-04 Eh
 * total energy  :   -73.2364904 Eh     change       -0.1553463E-04 Eh
 * total energy  :   -73.2364973 Eh     change       -0.6871318E-05 Eh
 * total energy  :   -73.2365093 Eh     change       -0.1201370E-04 Eh
 * total energy  :   -73.2365153 Eh     change       -0.5939658E-05 Eh
 * total energy  :   -73.2365217 Eh     change       -0.6468729E-05 Eh
 * total energy  :   -73.2365267 Eh     change       -0.4991441E-05 Eh
 * total energy  :   -73.2365331 Eh     change       -0.3008750E-05 Eh
 * total energy  :   -73.2365359 Eh     change       -0.2764706E-05 Eh
 * total energy  :   -73.2365379 Eh     change       -0.1976641E-05 Eh
 * total energy  :   -73.2365391 Eh     change       -0.1221088E-05 Eh
 * total energy  :   -73.2365398 Eh     change       -0.6591819E-06 Eh
 * total energy  :   -73.2365401 Eh     change       -0.3872018E-06 Eh
 * total energy  :   -73.2365404 Eh     change       -0.2338148E-06 Eh
 * total energy  :   -73.2365406 Eh     change       -0.2082542E-06 Eh
 * total energy  :   -73.2365406 Eh     change       -0.2284942E-07 Eh
   *** GEOMETRY OPTIMIZATION CONVERGED AFTER 20 ITERATIONS ***

 final structure:
================
49
 xtb: 6.7.1 (edcfbbe)
O            2.54658531126162       -1.43130310370240       -0.39760688636841
B            2.84952593931958       -0.33524655057628        0.34874326321699
O            3.98936121342651        0.32909395176253        0.04467655297451
C            2.01275599914576        0.17614014046395        1.59513050477158
C            2.69677585320884        0.46979553627530        2.77432867227184
C            2.03509361744198        0.90416657604920        3.90897870451703
C            0.66053447324668        1.06689694306898        3.87828539549803
C           -0.03175342970200        0.79715869492701        2.71192772327178
C            0.61931314431331        0.34848123811257        1.56551890659170
Si          -0.38519207353541        0.04554930595012       -0.01587023743912
C            0.60132775390401        0.70386200401020       -1.49479814024359
C            1.28247606213540        1.91269999108417       -1.37615502578897
C            2.01534463264743        2.42790277596685       -2.43012649613006
C            2.08594541303232        1.73571683157727       -3.62785568442466
C            1.41973559791196        0.52887525535251       -3.76147360640599
C            0.68519486568085        0.02182265961528       -2.70421656385721
C           -0.77130759991265       -1.80989859536572       -0.18373183336185
C           -1.62283206808458       -2.26751438531489       -1.18720883066659
C           -1.90987262445463       -3.61374811421542       -1.32508853078390
C           -1.35440722346720       -4.53458168249155       -0.45127750752579
C           -0.52077295297085       -4.09819381353179        0.56476472906662
C           -0.23521482737314       -2.74955128327225        0.69520088375110
C           -2.04904757024433        0.95534089940939        0.08458512141858
C           -2.22116192863790        2.22302926754619       -0.46324734091868
C           -3.43330573116410        2.88426063194788       -0.37048735951755
C           -4.50208939159961        2.28566777309136        0.27582214717310
C           -4.35064875704389        1.02227425298122        0.82363204738528
C           -3.13596676244686        0.36740056192379        0.72673090676475
H            1.74843319729124       -1.91164397935777       -0.17246321470352
H            4.46160478026580       -0.03886071034268       -0.70512736238182
H            3.77104410782211        0.35150790962978        2.79162745873604
H            2.59025400774733        1.11976393508646        4.81104130984866
H            0.13186092489394        1.40914920036045        4.75691059759493
H           -1.10267497328015        0.94089690502027        2.68502168846890
H            1.24468352577891        2.45251223488739       -0.44040126917434
H            2.53753250520055        3.36753069535266       -2.31603410865828
H            2.66115191970037        2.13367341977101       -4.45188071788803
H            1.47543076765009       -0.01879027134460       -4.69195890684776
H            0.17663894100764       -0.92435676320809       -2.81668725819427
H           -2.07297144651115       -1.55313153280143       -1.86172725739094
H           -2.57091365713369       -3.94716781586726       -2.11253384849738
H           -1.57683851094050       -5.58655855174773       -0.55710428541794
H           -0.09509012543987       -4.80898258592574        1.25878005760748
H            0.39950816362264       -2.41688005934513        1.50608144876200
H           -1.39393516862502        2.69496924334863       -0.97374556499244
H           -3.54589226723070        3.86861886171652       -0.80306977320620
H           -5.44970889340730        2.80008135348920        0.34997964363064
H           -5.18161691894404        0.54778830495233        1.32681189516112
H           -3.02632931459945       -0.61997926942026        1.15275349419751

          :  Hamiltonian                  GFN2-xTB          :
         :: gradient norm              0.000179629706 Eh/a0 ::
         :: HOMO-LUMO gap              3.730220762943 eV    ::
         :: SCC energy               -74.516404497601 Eh    ::
         :: -> dispersion             -0.064814027562 Eh    ::
         :: -> Gsolv                  -0.030025640052 Eh    ::
         :: repulsion energy           1.279863890508 Eh    ::

    * Orbital Energies and Occupations

         #    Occupation            Energy/Eh            Energy/eV
      -------------------------------------------------------------
         1        2.0000           -0.7560754             -20.5739
       ...           ...                  ...                  ...
        56        2.0000           -0.4177046             -11.3663
        57        2.0000           -0.4077434             -11.0953
        58        2.0000           -0.4056037             -11.0370
        59        2.0000           -0.4033381             -10.9754
        60        2.0000           -0.4021712             -10.9436
        61        2.0000           -0.4007423             -10.9048
        62        2.0000           -0.3998990             -10.8818
        63        2.0000           -0.3990493             -10.8587
        64        2.0000           -0.3980869             -10.8325
        65        2.0000           -0.3969035             -10.8003
        66        2.0000           -0.3850848             -10.4787
        67        2.0000           -0.3822614             -10.4019
        68        2.0000           -0.3796571             -10.3310 (HOMO)
        69                         -0.2425741              -6.6008 (LUMO)
        70                         -0.2376613              -6.4671
        71                         -0.2351622              -6.3991
        72                         -0.2279179              -6.2020
        73                         -0.2245182              -6.1095
        74                         -0.2230488              -6.0695
        75                         -0.2188322              -5.9547
        76                         -0.2176200              -5.9217
        77                         -0.1450102              -3.9459
        78                         -0.1434458              -3.9034
        79                         -0.1386214              -3.7721
       ...                                ...                  ...
       138                          0.6754201              18.3791
      -------------------------------------------------------------
                  HL-Gap            0.1370830 Eh            3.7302 eV

     #   Z          covCN         q      C6AA      α(0)
     1   8 O        1.593    -0.503    22.992     6.471
     2   5 B        2.476     0.431    17.419     7.370
     3   8 O        1.593    -0.478    22.465     6.396
     4   6 C        2.896    -0.093    30.330     9.030
     5   6 C        2.922    -0.031    28.768     8.796
     6   6 C        2.917    -0.030    28.756     8.793
     7   6 C        2.917    -0.031    28.767     8.795
     8   6 C        2.936    -0.034    28.852     8.809
     9   6 C        2.864    -0.101    30.542     9.059
    10  14 Si       3.608     0.493    98.152    19.022
    11   6 C        2.862    -0.098    30.451     9.045
    12   6 C        2.941    -0.033    28.833     8.807
    13   6 C        2.917    -0.032    28.788     8.798
    14   6 C        2.920    -0.031    28.777     8.797
    15   6 C        2.917    -0.032    28.796     8.800
    16   6 C        2.934    -0.033    28.834     8.806
    17   6 C        2.860    -0.099    30.492     9.051
    18   6 C        2.936    -0.030    28.759     8.795
    19   6 C        2.917    -0.029    28.731     8.790
    20   6 C        2.920    -0.028    28.711     8.787
    21   6 C        2.917    -0.031    28.762     8.795
    22   6 C        2.934    -0.044    29.087     8.845
    23   6 C        2.862    -0.095    30.378     9.034
    24   6 C        2.935    -0.033    28.825     8.805
    25   6 C        2.917    -0.031    28.772     8.796
    26   6 C        2.920    -0.030    28.743     8.792
    27   6 C        2.917    -0.031    28.783     8.798
    28   6 C        2.937    -0.033    28.824     8.805
    29   1 H        0.806     0.310     0.692     1.306
    30   1 H        0.806     0.313     0.682     1.298
    31   1 H        0.926     0.026     2.650     2.546
    32   1 H        0.926     0.029     2.596     2.520
    33   1 H        0.926     0.029     2.595     2.519
    34   1 H        0.926     0.025     2.666     2.553
    35   1 H        0.926     0.019     2.746     2.591
    36   1 H        0.926     0.029     2.607     2.525
    37   1 H        0.926     0.030     2.586     2.515
    38   1 H        0.926     0.030     2.587     2.515
    39   1 H        0.926     0.028     2.616     2.529
    40   1 H        0.926     0.028     2.621     2.532
    41   1 H        0.926     0.033     2.542     2.493
    42   1 H        0.926     0.034     2.534     2.489
    43   1 H        0.926     0.032     2.552     2.498
    44   1 H        0.925     0.022     2.699     2.569
    45   1 H        0.926     0.024     2.674     2.557
    46   1 H        0.926     0.029     2.603     2.523
    47   1 H        0.926     0.030     2.586     2.515
    48   1 H        0.926     0.029     2.597     2.520
    49   1 H        0.926     0.022     2.708     2.573

molecular dipole:
                 x           y           z       tot (Debye)
 q only:       -0.487      -0.488      -0.210
   full:       -0.438      -0.561      -0.239       1.908

 projected vibrational frequencies (cm⁻¹)
eigval :       -0.00    -0.00    -0.00     0.00     0.00     0.00
eigval :       21.13    25.50    30.70    36.97    37.53    44.30
eigval :       45.31    49.06    64.45    74.03    98.23   117.26
eigval :      158.62   162.78   167.53   193.11   205.11   207.45
eigval :      218.19   225.31   228.02   312.72   322.22   358.05
eigval :      359.64   365.84   403.00   412.54   417.23   424.93
eigval :      464.59   470.61   480.29   492.74   522.49   566.18
eigval :      572.01   588.56   589.38   589.72   628.25   646.76
eigval :      662.74   663.08   665.55   676.86   690.07   701.75
eigval :      707.38   729.46   734.70   736.10   739.51   764.54
eigval :      878.78   881.82   887.60   889.54   903.76   906.33
eigval :      912.13   918.53   928.95   930.72   931.45   933.35
eigval :      934.00   934.40   936.84   948.40   952.07   974.03
eigval :      975.56   976.13  1020.19  1083.06  1083.95  1084.42
eigval :     1095.39  1118.08  1119.74  1122.55  1136.26  1141.08
eigval :     1145.99  1149.67  1159.46  1179.88  1180.00  1182.71
eigval :     1182.96  1204.10  1205.50  1209.27  1242.11  1256.67
eigval :     1275.00  1283.84  1286.04  1289.66  1293.84  1307.02
eigval :     1309.39  1310.75  1406.39  1415.28  1417.84  1419.72
eigval :     1446.59  1459.82  1462.43  1463.89  1557.45  1572.31
eigval :     1574.80  1576.33  1582.50  1589.41  1591.60  1593.25
eigval :     3052.02  3058.42  3059.52  3059.89  3061.43  3061.82
eigval :     3062.92  3063.80  3068.30  3069.05  3069.25  3070.03
eigval :     3073.82  3074.31  3076.85  3078.81  3081.84  3083.62
eigval :     3085.05  3573.47  3591.60

   temp. (K)  partition function   enthalpy   heat capacity  entropy
                                   cal/mol     cal/K/mol   cal/K/mol   J/K/mol
 298.15  VIB  0.565E+12            14643.589     87.999     92.254
         ROT  0.132E+08              888.752      2.981     35.567
         INT  0.747E+19            15532.341     90.980    127.820
         TR   0.718E+28             1481.254      4.968     43.680
         TOT                       17013.5952    95.9484   171.5004   717.5577

       T/K    H(0)-H(T)+PV         H(T)/Eh          T*S/Eh         G(T)/Eh
   ------------------------------------------------------------------------
    298.15    0.271129E-01    0.402255E+00    0.814854E-01    0.320770E+00
   ------------------------------------------------------------------------

         :::::::::::::::::::::::::::::::::::::::::::::::::::::
         ::                  THERMODYNAMIC                  ::
         :::::::::::::::::::::::::::::::::::::::::::::::::::::
         :: total free energy         -72.915770756715 Eh   ::
         ::.................................................::
         :: total energy              -73.236540610222 Eh   ::
         :: zero point energy           0.375142338960 Eh   ::
         :: G(RRHO) w/o ZPVE           -0.054372485453 Eh   ::
         :: G(RRHO) contrib.            0.320769853507 Eh   ::
         :::::::::::::::::::::::::::::::::::::::::::::::::::::

           -------------------------------------------------
          | TOTAL ENERGY              -73.236540610222 Eh   |
          | TOTAL ENTHALPY            -72.834285381521 Eh   |
          | TOTAL FREE ENERGY         -72.915770756715 Eh   |
          | GRADIENT NORM               0.000179561519 Eh/α |
          | HOMO-LUMO GAP               3.730219020068 eV   |
           -------------------------------------------------

 * finished run on 2025/09/10 at 07:21:07.120
