   * xtb version 6.7.1 (edcfbbe) compiled by 'albert@albert-system' on 2024-07-22

   ID    Z sym.   atoms
    1    8 O      1
    2    6 C      2-12, 14-17, 19-35, 37-53
    3    7 N      13, 18, 36
    4    1 H      54-88

          program call               : xtb data2507/toluene/CCDD/CCDD_toluene_S0_crest.xyz --gfn 2 --gbsa toluene --ohess vtight --parallel 40 --molden --ceasefiles --namespace data2507/toluene/CCDD/CCDD_toluene_S0_finalOpt
      * Solvation model:               GBSA
        Solvent                        toluene
        Solvent mass                       9.2140E+01 g/mol
          :  Hamiltonian                  GFN2-xTB          :
 * total energy  :  -135.6949613 Eh     change       -0.7278345E-08 Eh
 * total energy  :  -135.6950358 Eh     change       -0.7452824E-04 Eh
 * total energy  :  -135.6950567 Eh     change       -0.2086643E-04 Eh
 * total energy  :  -135.6950626 Eh     change       -0.5930364E-05 Eh
 * total energy  :  -135.6950683 Eh     change       -0.5702802E-05 Eh
 * total energy  :  -135.6950731 Eh     change       -0.4773943E-05 Eh
 * total energy  :  -135.6950766 Eh     change       -0.3552489E-05 Eh
 * total energy  :  -135.6950805 Eh     change       -0.3912844E-05 Eh
 * total energy  :  -135.6950852 Eh     change       -0.4668665E-05 Eh
 * total energy  :  -135.6950905 Eh     change       -0.5335930E-05 Eh
 * total energy  :  -135.6951427 Eh     change       -0.3538339E-06 Eh
 * total energy  :  -135.6951431 Eh     change       -0.3222088E-06 Eh
 * total energy  :  -135.6951434 Eh     change       -0.3324488E-06 Eh
 * total energy  :  -135.6951438 Eh     change       -0.4006245E-06 Eh
 * total energy  :  -135.6951442 Eh     change       -0.3932746E-06 Eh
 * total energy  :  -135.6951446 Eh     change       -0.3856343E-06 Eh
 * total energy  :  -135.6951449 Eh     change       -0.3505634E-06 Eh
 * total energy  :  -135.6951453 Eh     change       -0.3354423E-06 Eh
 * total energy  :  -135.6951453 Eh     change       -0.2512593E-08 Eh
   *** GEOMETRY OPTIMIZATION CONVERGED AFTER 44 ITERATIONS ***

 final structure:
================
88
 xtb: 6.7.1 (edcfbbe)
O            6.68313727124632       -3.83811780135110       -1.12228158770519
C            6.49586877502449       -2.68796124799688       -0.74883569571489
C            7.63021460609807       -1.78745901673488       -0.42858688384216
C            8.78597387776150       -2.33061975594370        0.13050717122604
C            9.86775909277988       -1.52138442527081        0.42179396366526
C            9.81518907953902       -0.16587034764366        0.13602431471616
C            8.68014321672455        0.37685471336345       -0.44586531222189
C            7.58855245580320       -0.42541552325366       -0.72415963900351
C            5.13122113082880       -2.13801350385943       -0.60067868811218
C            4.82286044729673       -1.16362261913366        0.35047290792863
C            3.53032981407642       -0.70289588908685        0.48423829041353
C            2.51575956734429       -1.19345295487978       -0.34013533950479
N            1.21283553505406       -0.71538563083127       -0.20943583729603
C            0.84413349274595        0.61599851442306       -0.11080058634159
C            1.61888756218601        1.76516928990802       -0.19157047234411
C            0.98428336767588        2.98737250464516       -0.11167756224821
C           -0.40525958745182        3.08997202734539        0.05232089835869
N           -1.00227518665576        4.35730791382591        0.13806555904723
C           -2.23128395600920        4.59324442743486       -0.48679949126153
C           -3.18232880613894        5.42343950695635        0.10795275718389
C           -4.39378811260826        5.65472564832594       -0.51457035461250
C           -4.68490742634883        5.05693064610357       -1.73027428141284
C           -3.74720979555071        4.22644308759065       -2.32283226094713
C           -2.52880207437951        3.99779733334539       -1.71337362224573
C           -0.36973804481743        5.37345903334267        0.86194437222354
C           -0.41742512360840        6.69604848627711        0.41938571245803
C            0.21022380321520        7.69485026490327        1.13834230025815
C            0.90184691097752        7.39547294983120        2.30135802794023
C            0.95772403833292        6.08318423526532        2.74266569886048
C            0.32628890812012        5.07867876430193        2.03498729582889
C           -1.18403970942866        1.94002440318389        0.10990235118263
C           -0.56041763759297        0.70615240926674        0.01311348056787
C           -1.05998608857166       -0.64106983692221       -0.00435791644102
C           -2.33449199287501       -1.17252778680309        0.10859788486439
C           -2.49204225418963       -2.55312036589738        0.06452273412880
N           -3.77229637394595       -3.12099122767498        0.14927271839751
C           -4.85253261550145       -2.49282060289452       -0.48062961918128
C           -6.11344348922685       -2.48021823111744        0.11694770673273
C           -7.17636192732608       -1.85825512556920       -0.50928127842624
C           -7.00217018307409       -1.23018536551610       -1.73205065369719
C           -5.75100438565803       -1.23401673014074       -2.32764942960265
C           -4.68474130086534       -1.86262234887620       -1.71436061201558
C           -3.96979040274287       -4.29571748615759        0.88269698226878
C           -4.87796924285608       -5.26036909290058        0.44430407613730
C           -5.07129029283136       -6.41827046970044        1.17248454702847
C           -4.35909491716964       -6.64136793278687        2.34015654954865
C           -3.45117015307826       -5.69019842703542        2.77710915764063
C           -3.25795555471905       -4.52474054078224        2.06086638655325
C           -1.36670229578777       -3.38154091928777       -0.06025022495395
C           -0.09023836230432       -2.86569483299476       -0.15183389046642
C            0.06345110425791       -1.48613239646497       -0.14972495837824
C            2.81921212602500       -2.17143543274025       -1.28937757778624
C            4.10756252571213       -2.64624131630176       -1.40268889249332
H            8.81216587705259       -3.39059268646967        0.33911108148045
H           10.75436505535692       -1.94797788958852        0.86697680276423
H           10.66223233337173        0.46584548035799        0.35935466307268
H            8.64551389881542        1.42982575974736       -0.68358203335571
H            6.71216796831473       -0.00454419259393       -1.19449090007822
H            5.59287260186936       -0.79299142694769        1.01013843607077
H            3.29083521231363        0.02428871455610        1.24493501792189
H            2.68650086887123        1.71628776784288       -0.33881662887888
H            1.56585456923003        3.89462046199518       -0.18185337343288
H           -2.96501643051310        5.88266602019171        1.06151756382333
H           -5.12005410477846        6.29950203221972       -0.04090274789727
H           -5.63469398225369        5.23637104677505       -2.21146383928190
H           -3.96235379667960        3.75872564815106       -3.27283314603916
H           -1.79702342905191        3.35774197529954       -2.18436194562750
H           -0.94748762846959        6.93202491263439       -0.49202744011353
H            0.16598484301657        8.71418541300355        0.78254869378624
H            1.39304961264091        8.17884438340588        2.85896437645232
H            1.49003527667677        5.84034096171370        3.65108575912980
H            0.36386480698917        4.05786280789626        2.38671493235435
H           -2.25581341397966        2.00870185089465        0.21701187340331
H           -3.19143050428045       -0.52743064131232        0.22890987122881
H           -6.25160080635003       -2.95802390440210        1.07606570991462
H           -8.14622218062470       -1.85611647416164       -0.03290068588621
H           -7.83411863985423       -0.74117483120673       -2.21635321772613
H           -5.60540124231616       -0.75138176033600       -3.28332020533064
H           -3.71360620365597       -1.87127806554785       -2.18743643213626
H           -5.42787293669057       -5.09468771745182       -0.47086734069841
H           -5.77696645421750       -7.15669384334561        0.81987371704989
H           -4.51040716872377       -7.54915910914090        2.90479969288419
H           -2.89425170743975       -5.85273598286401        3.68871622323169
H           -2.55625181815283       -3.78099015985467        2.40970052681773
H           -1.50902530035802       -4.45175254556418       -0.08060704828971
H            0.75827024126378       -3.52846817067286       -0.22128789041486
H            2.04384122091359       -2.53957108007850       -1.94347289765563
H            4.35233497749125       -3.40491251643995       -2.13183166225002

          :  Hamiltonian                  GFN2-xTB          :
         :: gradient norm              0.000040006253 Eh/a0 ::
         :: HOMO-LUMO gap              1.340102931317 eV    ::
         :: SCC energy              -138.197783761779 Eh    ::
         :: -> dispersion             -0.121256551195 Eh    ::
         :: -> Gsolv                  -0.059096053873 Eh    ::
         :: repulsion energy           2.502638491676 Eh    ::

    * Orbital Energies and Occupations

         #    Occupation            Energy/Eh            Energy/eV
      -------------------------------------------------------------
         1        2.0000           -0.7091538             -19.2971
       ...           ...                  ...                  ...
       114        2.0000           -0.4157062             -11.3119
       115        2.0000           -0.4103747             -11.1669
       116        2.0000           -0.4060115             -11.0481
       117        2.0000           -0.4059082             -11.0453
       118        2.0000           -0.4045139             -11.0074
       119        2.0000           -0.4041470             -10.9974
       120        2.0000           -0.4031292             -10.9697
       121        2.0000           -0.4028251             -10.9614
       122        2.0000           -0.3945733             -10.7369
       123        2.0000           -0.3861199             -10.5069
       124        2.0000           -0.3792682             -10.3204
       125        2.0000           -0.3493221              -9.5055
       126        2.0000           -0.3412836              -9.2868 (HOMO)
       127                         -0.2920357              -7.9467 (LUMO)
       128                         -0.2515041              -6.8438
       129                         -0.2418770              -6.5818
       130                         -0.2400447              -6.5319
       131                         -0.2337680              -6.3612
       132                         -0.2321650              -6.3175
       133                         -0.2289306              -6.2295
       134                         -0.2288128              -6.2263
       135                         -0.2239982              -6.0953
       136                         -0.2235763              -6.0838
       137                         -0.2202978              -5.9946
       ...                                ...                  ...
       247                          0.7386436              20.0995
      -------------------------------------------------------------
                  HL-Gap            0.0492479 Eh            1.3401 eV

     #   Z          covCN         q      C6AA      α(0)
     1   8 O        0.858    -0.426    22.204     6.318
     2   6 C        2.829     0.226    23.257     7.902
     3   6 C        2.972    -0.013    28.343     8.733
     4   6 C        2.924    -0.017    28.446     8.746
     5   6 C        2.917    -0.026    28.653     8.778
     6   6 C        2.920    -0.022    28.554     8.763
     7   6 C        2.918    -0.026    28.659     8.779
     8   6 C        2.921    -0.026    28.655     8.778
     9   6 C        2.971    -0.018    28.464     8.751
    10   6 C        2.920    -0.025    28.620     8.773
    11   6 C        2.920    -0.042    29.051     8.839
    12   6 C        2.912     0.071    26.405     8.426
    13   7 N        2.800    -0.034    21.897     6.950
    14   6 C        3.071     0.039    27.050     8.528
    15   6 C        2.909    -0.050    29.246     8.868
    16   6 C        2.926    -0.049    29.229     8.866
    17   6 C        2.923     0.057    26.718     8.477
    18   7 N        2.752    -0.081    22.806     7.093
    19   6 C        2.922     0.066    26.531     8.447
    20   6 C        2.922    -0.049    29.220     8.865
    21   6 C        2.919    -0.031    28.768     8.796
    22   6 C        2.919    -0.040    29.005     8.832
    23   6 C        2.919    -0.031    28.762     8.795
    24   6 C        2.922    -0.049    29.220     8.864
    25   6 C        2.923     0.066    26.532     8.447
    26   6 C        2.922    -0.049    29.211     8.863
    27   6 C        2.919    -0.031    28.766     8.795
    28   6 C        2.919    -0.040    29.003     8.831
    29   6 C        2.919    -0.031    28.767     8.795
    30   6 C        2.922    -0.049    29.221     8.865
    31   6 C        2.915    -0.051    29.272     8.872
    32   6 C        3.065    -0.015    28.313     8.725
    33   6 C        3.066    -0.015    28.315     8.726
    34   6 C        2.915    -0.051    29.273     8.872
    35   6 C        2.923     0.057    26.716     8.476
    36   7 N        2.752    -0.080    22.805     7.092
    37   6 C        2.923     0.066    26.530     8.447
    38   6 C        2.922    -0.049    29.215     8.864
    39   6 C        2.919    -0.031    28.766     8.795
    40   6 C        2.919    -0.040    29.001     8.831
    41   6 C        2.919    -0.031    28.761     8.795
    42   6 C        2.922    -0.049    29.213     8.863
    43   6 C        2.922     0.066    26.532     8.447
    44   6 C        2.922    -0.049    29.211     8.863
    45   6 C        2.919    -0.031    28.766     8.795
    46   6 C        2.919    -0.040    29.002     8.831
    47   6 C        2.919    -0.031    28.767     8.795
    48   6 C        2.922    -0.049    29.221     8.865
    49   6 C        2.926    -0.050    29.238     8.867
    50   6 C        2.909    -0.050    29.241     8.867
    51   6 C        3.070     0.039    27.051     8.528
    52   6 C        2.919    -0.042    29.045     8.838
    53   6 C        2.923    -0.016    28.412     8.741
    54   1 H        0.926     0.043     2.412     2.429
    55   1 H        0.926     0.044     2.391     2.418
    56   1 H        0.926     0.047     2.362     2.403
    57   1 H        0.926     0.046     2.365     2.405
    58   1 H        0.926     0.043     2.410     2.428
    59   1 H        0.926     0.051     2.309     2.376
    60   1 H        0.926     0.055     2.259     2.350
    61   1 H        0.926     0.039     2.462     2.454
    62   1 H        0.926     0.037     2.493     2.469
    63   1 H        0.926     0.030     2.583     2.513
    64   1 H        0.926     0.031     2.565     2.505
    65   1 H        0.926     0.030     2.585     2.514
    66   1 H        0.926     0.032     2.560     2.502
    67   1 H        0.926     0.031     2.578     2.511
    68   1 H        0.926     0.030     2.580     2.512
    69   1 H        0.926     0.032     2.562     2.503
    70   1 H        0.926     0.030     2.581     2.512
    71   1 H        0.926     0.032     2.554     2.499
    72   1 H        0.926     0.031     2.574     2.509
    73   1 H        0.926     0.035     2.514     2.479
    74   1 H        0.926     0.035     2.512     2.478
    75   1 H        0.926     0.030     2.584     2.514
    76   1 H        0.926     0.032     2.562     2.503
    77   1 H        0.926     0.030     2.580     2.512
    78   1 H        0.926     0.032     2.555     2.500
    79   1 H        0.926     0.031     2.575     2.509
    80   1 H        0.926     0.031     2.577     2.510
    81   1 H        0.926     0.032     2.559     2.501
    82   1 H        0.926     0.030     2.581     2.512
    83   1 H        0.926     0.032     2.559     2.502
    84   1 H        0.926     0.031     2.577     2.510
    85   1 H        0.926     0.036     2.504     2.475
    86   1 H        0.926     0.038     2.479     2.462
    87   1 H        0.926     0.053     2.282     2.362
    88   1 H        0.926     0.051     2.309     2.376

molecular dipole:
                 x           y           z       tot (Debye)
 q only:        0.038       1.453       0.475
   full:        0.062       1.467       0.488       3.932

 projected vibrational frequencies (cm⁻¹)
eigval :       -0.00    -0.00    -0.00     0.00     0.00     0.00
eigval :       11.13    13.34    14.48    17.04    23.35    25.45
eigval :       33.68    40.57    43.18    49.59    53.92    57.67
eigval :       60.44    67.75    70.99    84.60    85.48    91.22
eigval :       99.96   110.98   124.18   135.22   160.20   165.09
eigval :      180.41   194.81   209.32   222.63   225.20   234.19
eigval :      244.06   248.05   261.56   280.71   309.30   313.32
eigval :      316.54   325.75   333.53   354.81   359.73   367.39
eigval :      371.75   378.27   378.47   384.00   384.89   386.63
eigval :      400.64   403.62   405.51   430.26   439.21   452.66
eigval :      470.02   473.89   480.77   489.29   491.83   506.48
eigval :      546.55   549.95   554.38   566.30   581.70   585.88
eigval :      586.15   588.12   589.93   593.44   599.61   607.55
eigval :      617.14   625.42   632.84   641.29   657.22   659.19
eigval :      661.12   664.36   668.93   675.81   676.80   702.36
eigval :      704.29   706.93   717.09   752.42   754.84   755.94
eigval :      757.00   759.38   774.41   802.79   817.76   820.76
eigval :      831.64   868.28   872.13   873.44   874.41   874.84
eigval :      876.47   876.57   879.37   881.26   889.88   890.67
eigval :      892.16   892.95   901.72   907.93   908.97   910.41
eigval :      911.00   913.20   925.39   926.34   927.10   927.35
eigval :      927.82   928.92   929.06   929.86   930.12   930.80
eigval :      933.26   936.26   948.10   948.32   970.61   989.12
eigval :      994.01  1002.80  1003.66  1012.64  1022.59  1036.77
eigval :     1079.36  1082.12  1082.29  1083.02  1083.27  1117.18
eigval :     1120.61  1121.25  1122.43  1123.22  1127.71  1134.38
eigval :     1155.25  1167.77  1175.18  1177.86  1178.15  1178.71
eigval :     1178.87  1179.34  1179.66  1181.07  1191.31  1194.39
eigval :     1195.63  1198.67  1199.93  1206.10  1228.49  1241.75
eigval :     1250.10  1259.78  1264.29  1272.95  1275.59  1277.31
eigval :     1277.85  1282.98  1285.65  1308.81  1312.77  1317.36
eigval :     1318.16  1319.14  1320.04  1322.81  1324.88  1325.58
eigval :     1327.21  1348.33  1360.82  1377.11  1406.12  1418.54
eigval :     1426.27  1426.52  1433.05  1434.01  1441.75  1442.15
eigval :     1459.29  1465.18  1470.86  1471.01  1472.71  1474.14
eigval :     1481.30  1487.84  1549.06  1561.69  1568.96  1574.53
eigval :     1574.65  1577.01  1578.03  1578.76  1578.88  1588.00
eigval :     1591.63  1591.80  1596.04  1597.99  1600.00  1613.51
eigval :     1645.23  3069.91  3070.50  3070.56  3070.98  3071.42
eigval :     3071.66  3071.73  3072.56  3075.92  3077.82  3080.87
eigval :     3081.41  3081.86  3082.59  3083.04  3083.94  3084.19
eigval :     3084.80  3085.36  3085.86  3085.94  3086.43  3086.96
eigval :     3088.65  3092.02  3092.77  3093.03  3093.77  3094.14
eigval :     3094.67  3095.24  3097.83  3098.82  3100.05  3102.62

   temp. (K)  partition function   enthalpy   heat capacity  entropy
                                   cal/mol     cal/K/mol   cal/K/mol   J/K/mol
 298.15  VIB  0.385E+21            25339.132    157.760    159.382
         ROT  0.149E+09              888.752      2.981     40.380
         INT  0.574E+29            26227.884    160.741    199.762
         TR   0.172E+29             1481.254      4.968     45.419
         TOT                       27709.1384   165.7091   245.1812  1025.8380

       T/K    H(0)-H(T)+PV         H(T)/Eh          T*S/Eh         G(T)/Eh
   ------------------------------------------------------------------------
    298.15    0.441573E-01    0.724563E+00    0.116493E+00    0.608070E+00
   ------------------------------------------------------------------------

         :::::::::::::::::::::::::::::::::::::::::::::::::::::
         ::                  THERMODYNAMIC                  ::
         :::::::::::::::::::::::::::::::::::::::::::::::::::::
         :: total free energy        -135.087075267247 Eh   ::
         ::.................................................::
         :: total energy             -135.695145272661 Eh   ::
         :: zero point energy           0.680406169730 Eh   ::
         :: G(RRHO) w/o ZPVE           -0.072336164316 Eh   ::
         :: G(RRHO) contrib.            0.608070005414 Eh   ::
         :::::::::::::::::::::::::::::::::::::::::::::::::::::

           -------------------------------------------------
          | TOTAL ENERGY             -135.695145272661 Eh   |
          | TOTAL ENTHALPY           -134.970581780145 Eh   |
          | TOTAL FREE ENERGY        -135.087075267247 Eh   |
          | GRADIENT NORM               0.000040006733 Eh/α |
          | HOMO-LUMO GAP               1.340102906212 eV   |
           -------------------------------------------------

 * finished run on 2025/09/12 at 20:10:15.381
