   * xtb version 6.7.1 (edcfbbe) compiled by 'albert@albert-system' on 2024-07-22

   ID    Z sym.   atoms
    1    8 O      1
    2    6 C      2-12, 14-17, 19-35, 37-53
    3    7 N      13, 18, 36
    4    1 H      54-88

          program call               : xtb data2507/toluene/CCDD/CCDD_toluene_T1_crest.xyz --gfn 2 --uhf 2 --gbsa toluene --ohess vtight --parallel 40 --molden --ceasefiles --namespace data2507/toluene/CCDD/CCDD_toluene_T1_finalOpt
      * Solvation model:               GBSA
        Solvent                        toluene
        Solvent mass                       9.2140E+01 g/mol
          :  Hamiltonian                  GFN2-xTB          :
 * total energy  :  -135.6224132 Eh     change       -0.7971636E-08 Eh
 * total energy  :  -135.6226500 Eh     change       -0.2367924E-03 Eh
 * total energy  :  -135.6227397 Eh     change       -0.8967854E-04 Eh
 * total energy  :  -135.6227520 Eh     change       -0.1231025E-04 Eh
 * total energy  :  -135.6227623 Eh     change       -0.1025480E-04 Eh
 * total energy  :  -135.6227697 Eh     change       -0.7429636E-05 Eh
 * total energy  :  -135.6227818 Eh     change       -0.1214203E-04 Eh
 * total energy  :  -135.6227879 Eh     change       -0.6095323E-05 Eh
 * total energy  :  -135.6227920 Eh     change       -0.4079115E-05 Eh
 * total energy  :  -135.6227962 Eh     change       -0.4150951E-05 Eh
 * total energy  :  -135.6228274 Eh     change       -0.6016604E-06 Eh
 * total energy  :  -135.6228279 Eh     change       -0.4723342E-06 Eh
 * total energy  :  -135.6228283 Eh     change       -0.4162613E-06 Eh
 * total energy  :  -135.6228288 Eh     change       -0.4926022E-06 Eh
 * total energy  :  -135.6228293 Eh     change       -0.5715503E-06 Eh
 * total energy  :  -135.6228299 Eh     change       -0.5983925E-06 Eh
 * total energy  :  -135.6228304 Eh     change       -0.4553165E-06 Eh
 * total energy  :  -135.6228306 Eh     change       -0.2399873E-06 Eh
 * total energy  :  -135.6228306 Eh     change       -0.2497501E-08 Eh
   *** GEOMETRY OPTIMIZATION CONVERGED AFTER 44 ITERATIONS ***

 final structure:
================
88
 xtb: 6.7.1 (edcfbbe)
O            6.83957709850901       -3.59389729110663        0.66908692441756
C            6.58590850948961       -2.46051962277358        0.15873752990274
C            7.67536272971313       -1.67363717361124       -0.43481634125804
C            7.72522916206711       -0.27612383990595       -0.35356888821286
C            8.79018555039259        0.42035276466888       -0.88744045051179
C            9.83370112379467       -0.25266272651403       -1.50770081600550
C            9.81247309532671       -1.63930952170044       -1.56651196596920
C            8.75467586149943       -2.34091344915024       -1.02833500284087
C            5.23853028292517       -1.94486662730586        0.14160092844122
C            4.27253388151102       -2.52357947078792        1.00008887232815
C            2.97271999885286       -2.09778978271400        1.00841134710026
C            2.55726024580918       -1.07717378984971        0.13835918090300
N            1.23072584719839       -0.63364617015442        0.14019647891705
C            0.82311231662150        0.67910356212438        0.16703014945091
C            1.57280405191493        1.84722995892677        0.23978863929174
C            0.90813135486278        3.05435843321862        0.26357753039383
C           -0.49900085383912        3.12305347451584        0.21842827698618
N           -1.13575681056607        4.35843478762689        0.21910275664107
C           -2.33529184054387        4.53250182891160       -0.48293502947169
C           -3.34649690305338        5.34094652743017        0.03869839540833
C           -4.52533401945875        5.51484355014474       -0.66047575571319
C           -4.71741473067515        4.88533816629199       -1.88057157533757
C           -3.71607631090519        4.08092096091599       -2.40234015645514
C           -2.53101637648875        3.90525564012894       -1.71480531995768
C           -0.58472293601116        5.44142010529764        0.91720596907059
C           -0.63199419482700        6.72646992040172        0.37545622903196
C           -0.09210716481657        7.79169001265950        1.07007254894469
C            0.50297847763029        7.59359678608431        2.30637421327796
C            0.55135830658774        6.31860018043669        2.84850776685794
C            0.01055501524690        5.24713463795361        2.16454942310345
C           -1.25586076424405        1.94884827568419        0.17994237750176
C           -0.59946586472727        0.73203958917663        0.16222218255311
C           -1.05291335240639       -0.62771475991926        0.13632556099797
C           -2.30809450295384       -1.20728739401706        0.11386498838101
C           -2.40634460629429       -2.59978773212081        0.04539892468044
N           -3.65558486715946       -3.20679123198689        0.01394624823665
C           -3.85222290608476       -4.45927878573105        0.60962797335256
C           -3.22741757291906       -4.77247459946260        1.81786911990584
C           -3.42932430929827       -6.00760676392760        2.40253348219670
C           -4.25615781865896       -6.94263612321515        1.79922449475960
C           -4.88192517144215       -6.63411342810260        0.60122501336637
C           -4.68299858946443       -5.40377258238435        0.00532196629112
C           -4.73391132151156       -2.56800778340944       -0.61307661740485
C           -6.01309204308585       -2.63928191102398       -0.05964403493776
C           -7.07354097295971       -2.00857126585672       -0.68142863117771
C           -6.87680804830364       -1.29815429571549       -1.85546666566459
C           -5.60803211841782       -1.22610844676003       -2.40953560598764
C           -4.54163881044859       -1.85726236003120       -1.79906474490850
C           -1.23880563880647       -3.38822570654154       -0.00965654069240
C            0.01686196340016       -2.82176907689507        0.02090965488566
C            0.11705518470278       -1.43839959483361        0.11423425052305
C            3.48928785974826       -0.52414547026598       -0.75352932262771
C            4.79064846767780       -0.95184263269006       -0.75993120954791
H            6.93781993283000        0.25551777540045        0.16175715350633
H            8.81509553227240        1.49889463900563       -0.81217459632538
H           10.66231050556853        0.29763588170926       -1.92903365053583
H           10.62830723688321       -2.17358708567639       -2.03378874639083
H            8.73024728013433       -3.42171905909920       -1.06050709166847
H            4.60715870464432       -3.30316092744319        1.66983348259169
H            2.26607178696235       -2.51880600417705        1.70916466969573
H            2.65037561285213        1.81578466411945        0.27200042635337
H            1.47455248064837        3.97185877513981        0.29861744784153
H           -3.20364397556686        5.82161645979585        0.99517303913215
H           -5.30233179931248        6.13969338154520       -0.24584102746660
H           -5.64073968111691        5.02274510993543       -2.42248618249113
H           -3.85410017079205        3.59460584394266       -3.35656328713488
H           -1.74437304225544        3.29297747931981       -2.13015479287325
H           -1.08354354179238        6.87954853243517       -0.59356295233935
H           -0.12876301540354        8.78142134692449        0.63969739216012
H            0.92658319610324        8.42779807271353        2.84470722693041
H            1.00668607349149        6.15801645721037        3.81451539542653
H            0.03669714228727        4.25613910434436        2.59296605552156
H           -2.33368098185825        1.99367598994605        0.18544618429017
H           -3.19702995153220       -0.59804979503742        0.16127580302098
H           -2.59512431795158       -4.03875579223849        2.29539812055520
H           -2.94385500177110       -6.23869990209059        3.33913678758222
H           -4.41207385187291       -7.90601417422753        2.26043443919504
H           -5.52265771056885       -7.35994823332703        0.12303674240128
H           -5.16050802177376       -5.16906031641168       -0.93447888084942
H           -6.16476157658061       -3.18208992252688        0.86152293540272
H           -8.05828320480651       -2.06632229695630       -0.24209081524722
H           -7.70773532119017       -0.80524676648171       -2.33681039451788
H           -5.44878100478108       -0.68262191860009       -3.32890232485733
H           -3.55651278758383       -1.81543375746474       -2.23983200516648
H           -1.33700510037568       -4.45856682980135       -0.10355088108976
H            0.89846001482424       -3.43897613323364       -0.05465782345025
H            3.15943818892859        0.21338358394577       -1.47138536489852
H            5.47717318363317       -0.55413013028038       -1.49237051462318

          :  Hamiltonian                  GFN2-xTB          :
         :: gradient norm              0.000045630753 Eh/a0 ::
         :: HOMO-LUMO gap              0.242125647064 eV    ::
         :: SCC energy              -138.110625702862 Eh    ::
         :: -> dispersion             -0.121162029919 Eh    ::
         :: -> Gsolv                  -0.077457029587 Eh    ::
         :: repulsion energy           2.487795060226 Eh    ::

    * Orbital Energies and Occupations

         #    Occupation            Energy/Eh            Energy/eV
      -------------------------------------------------------------
         1        2.0000           -0.6898851             -18.7727
       ...           ...                  ...                  ...
       115        2.0000           -0.4146051             -11.2820
       116        2.0000           -0.4140710             -11.2674
       117        2.0000           -0.4106867             -11.1754
       118        2.0000           -0.4014693             -10.9245
       119        2.0000           -0.4001516             -10.8887
       120        2.0000           -0.3962268             -10.7819
       121        2.0000           -0.3929528             -10.6928
       122        2.0000           -0.3877750             -10.5519
       123        2.0000           -0.3814132             -10.3788
       124        2.0000           -0.3637224              -9.8974
       125        1.9068           -0.3561166              -9.6904
       126        1.0932           -0.3517931              -9.5728
       127        0.9908           -0.2680128              -7.2930 (HOMO)
       128        0.0092           -0.2591148              -7.0509 (LUMO)
       129                         -0.2446594              -6.6575
       130                         -0.2417708              -6.5789
       131                         -0.2416633              -6.5760
       132                         -0.2357218              -6.4143
       133                         -0.2352868              -6.4025
       134                         -0.2322830              -6.3207
       135                         -0.2317217              -6.3055
       136                         -0.2310590              -6.2874
       137                         -0.2175907              -5.9209
       138                         -0.2145181              -5.8373
       ...                                ...                  ...
       247                          0.7318825              19.9155
      -------------------------------------------------------------
                  HL-Gap            0.0088980 Eh            0.2421 eV

     #   Z          covCN         q      C6AA      α(0)
     1   8 O        0.857    -0.546    24.834     6.681
     2   6 C        2.832     0.166    24.420     8.098
     3   6 C        2.969    -0.018    28.462     8.751
     4   6 C        2.921    -0.041    29.013     8.833
     5   6 C        2.917    -0.035    28.877     8.812
     6   6 C        2.919    -0.042    29.042     8.837
     7   6 C        2.916    -0.035    28.873     8.811
     8   6 C        2.924    -0.030    28.755     8.794
     9   6 C        2.966    -0.029    28.709     8.789
    10   6 C        2.922    -0.033    28.823     8.804
    11   6 C        2.914    -0.046    29.150     8.853
    12   6 C        2.913     0.031    27.301     8.568
    13   7 N        2.798     0.002    21.219     6.842
    14   6 C        3.078     0.039    27.040     8.525
    15   6 C        2.907    -0.040    28.987     8.828
    16   6 C        2.923    -0.053    29.319     8.880
    17   6 C        2.923     0.061    26.643     8.465
    18   7 N        2.753    -0.038    21.983     6.964
    19   6 C        2.926     0.063    26.593     8.457
    20   6 C        2.921    -0.042    29.048     8.838
    21   6 C        2.919    -0.026    28.659     8.779
    22   6 C        2.919    -0.032    28.787     8.798
    23   6 C        2.919    -0.026    28.663     8.779
    24   6 C        2.921    -0.042    29.051     8.839
    25   6 C        2.925     0.063    26.592     8.457
    26   6 C        2.921    -0.042    29.044     8.838
    27   6 C        2.919    -0.027    28.666     8.780
    28   6 C        2.919    -0.031    28.786     8.798
    29   6 C        2.919    -0.026    28.664     8.780
    30   6 C        2.921    -0.042    29.045     8.838
    31   6 C        2.913    -0.047    29.163     8.855
    32   6 C        3.061    -0.013    28.280     8.721
    33   6 C        3.061    -0.013    28.280     8.721
    34   6 C        2.913    -0.047    29.168     8.856
    35   6 C        2.923     0.061    26.640     8.464
    36   7 N        2.753    -0.038    21.970     6.961
    37   6 C        2.925     0.063    26.592     8.457
    38   6 C        2.921    -0.042    29.043     8.838
    39   6 C        2.919    -0.026    28.661     8.779
    40   6 C        2.919    -0.031    28.783     8.798
    41   6 C        2.919    -0.026    28.664     8.780
    42   6 C        2.921    -0.042    29.046     8.838
    43   6 C        2.926     0.063    26.596     8.457
    44   6 C        2.921    -0.042    29.039     8.837
    45   6 C        2.919    -0.026    28.657     8.779
    46   6 C        2.919    -0.031    28.781     8.797
    47   6 C        2.919    -0.026    28.661     8.779
    48   6 C        2.921    -0.042    29.043     8.838
    49   6 C        2.923    -0.053    29.307     8.878
    50   6 C        2.907    -0.039    28.978     8.827
    51   6 C        3.078     0.040    27.031     8.524
    52   6 C        2.915    -0.046    29.148     8.853
    53   6 C        2.917    -0.044    29.104     8.847
    54   1 H        0.926     0.023     2.687     2.563
    55   1 H        0.925     0.026     2.641     2.541
    56   1 H        0.926     0.025     2.657     2.549
    57   1 H        0.925     0.023     2.692     2.566
    58   1 H        0.925     0.019     2.744     2.590
    59   1 H        0.926     0.026     2.642     2.542
    60   1 H        0.926     0.033     2.545     2.495
    61   1 H        0.926     0.045     2.385     2.415
    62   1 H        0.926     0.044     2.401     2.423
    63   1 H        0.926     0.041     2.433     2.439
    64   1 H        0.926     0.042     2.417     2.431
    65   1 H        0.926     0.041     2.429     2.437
    66   1 H        0.926     0.043     2.408     2.427
    67   1 H        0.926     0.042     2.422     2.434
    68   1 H        0.926     0.042     2.422     2.434
    69   1 H        0.926     0.042     2.417     2.431
    70   1 H        0.926     0.040     2.443     2.444
    71   1 H        0.926     0.042     2.429     2.437
    72   1 H        0.926     0.042     2.425     2.435
    73   1 H        0.926     0.050     2.323     2.383
    74   1 H        0.926     0.050     2.318     2.381
    75   1 H        0.926     0.042     2.427     2.436
    76   1 H        0.926     0.042     2.429     2.437
    77   1 H        0.926     0.041     2.441     2.443
    78   1 H        0.926     0.043     2.414     2.430
    79   1 H        0.926     0.042     2.420     2.432
    80   1 H        0.926     0.041     2.429     2.437
    81   1 H        0.926     0.043     2.411     2.428
    82   1 H        0.926     0.042     2.423     2.434
    83   1 H        0.926     0.044     2.401     2.423
    84   1 H        0.926     0.042     2.419     2.432
    85   1 H        0.926     0.043     2.405     2.425
    86   1 H        0.926     0.044     2.394     2.419
    87   1 H        0.926     0.034     2.530     2.487
    88   1 H        0.926     0.026     2.643     2.542

molecular dipole:
                 x           y           z       tot (Debye)
 q only:       -9.391       3.897      -0.448
   full:       -9.147       3.850      -0.465      25.253

 projected vibrational frequencies (cm⁻¹)
eigval :       -0.00    -0.00    -0.00    -0.00     0.00     0.00
eigval :        9.99    12.48    14.53    15.35    21.89    24.60
eigval :       36.92    39.23    47.07    49.66    52.09    58.83
eigval :       60.60    66.64    71.40    79.75    83.03    94.60
eigval :      101.87   113.80   129.23   136.72   158.98   168.35
eigval :      193.04   197.67   217.10   222.29   227.18   233.75
eigval :      244.94   250.22   258.41   282.98   309.36   310.70
eigval :      314.85   321.35   328.31   341.38   361.32   372.04
eigval :      376.16   376.61   378.33   380.81   381.39   391.38
eigval :      398.51   402.56   406.85   425.48   432.01   447.46
eigval :      464.54   468.83   470.79   500.96   504.20   509.16
eigval :      536.18   549.77   557.68   566.78   573.58   582.95
eigval :      584.45   586.54   587.12   588.81   594.42   600.17
eigval :      604.06   613.70   621.66   633.71   641.02   656.79
eigval :      659.24   660.34   663.77   667.18   670.17   673.32
eigval :      694.53   703.99   705.31   741.82   754.39   755.29
eigval :      756.29   756.70   758.46   800.54   803.82   818.00
eigval :      821.04   848.89   855.27   858.35   869.27   870.52
eigval :      870.62   871.99   872.63   878.75   882.54   893.80
eigval :      896.05   896.79   898.06   898.64   901.45   904.49
eigval :      908.56   908.62   915.71   919.76   924.08   926.82
eigval :      927.50   928.02   928.70   928.93   929.10   929.25
eigval :      931.08   931.20   937.17   943.57   968.42   982.99
eigval :      987.25   999.89  1002.42  1002.56  1007.97  1028.99
eigval :     1077.02  1079.01  1079.99  1080.33  1081.12  1118.22
eigval :     1118.60  1120.21  1120.54  1122.02  1124.62  1134.85
eigval :     1142.96  1164.88  1168.14  1170.95  1173.59  1176.30
eigval :     1176.30  1176.44  1176.82  1177.98  1188.38  1189.99
eigval :     1192.49  1195.98  1199.20  1209.92  1222.49  1229.39
eigval :     1238.89  1259.66  1264.60  1272.06  1273.41  1275.02
eigval :     1275.92  1277.07  1280.31  1295.66  1297.60  1302.25
eigval :     1305.89  1315.51  1316.08  1322.90  1322.94  1325.47
eigval :     1330.62  1345.82  1349.78  1368.58  1383.41  1416.23
eigval :     1421.55  1424.16  1429.10  1430.51  1431.99  1437.46
eigval :     1437.83  1447.00  1450.58  1451.78  1458.55  1459.40
eigval :     1459.68  1460.15  1461.53  1479.17  1523.59  1535.95
eigval :     1545.70  1546.43  1550.95  1561.67  1569.20  1569.37
eigval :     1573.19  1573.29  1581.82  1581.92  1587.71  1587.95
eigval :     1593.70  3056.53  3058.25  3067.21  3068.76  3069.38
eigval :     3071.23  3078.67  3078.77  3079.71  3079.75  3079.80
eigval :     3080.17  3080.19  3080.73  3081.15  3081.50  3085.42
eigval :     3087.36  3087.99  3088.65  3088.85  3090.97  3091.08
eigval :     3092.05  3092.38  3094.33  3096.67  3098.09  3098.72
eigval :     3098.99  3099.20  3099.71  3101.85  3104.82  3107.51

   temp. (K)  partition function   enthalpy   heat capacity  entropy
                                   cal/mol     cal/K/mol   cal/K/mol   J/K/mol
 298.15  VIB  0.489E+21            25437.688    158.892    159.983
         ROT  0.151E+09              888.752      2.981     40.405
         INT  0.738E+29            26326.440    161.873    200.388
         TR   0.172E+29             1481.254      4.968     45.419
         TOT                       27807.6941   166.8411   245.8070  1028.4564

       T/K    H(0)-H(T)+PV         H(T)/Eh          T*S/Eh         G(T)/Eh
   ------------------------------------------------------------------------
    298.15    0.443144E-01    0.721578E+00    0.116791E+00    0.604788E+00
   ------------------------------------------------------------------------

         :::::::::::::::::::::::::::::::::::::::::::::::::::::
         ::                  THERMODYNAMIC                  ::
         :::::::::::::::::::::::::::::::::::::::::::::::::::::
         :: total free energy        -135.018043051017 Eh   ::
         ::.................................................::
         :: total energy             -135.622830642394 Eh   ::
         :: zero point energy           0.677264036037 Eh   ::
         :: G(RRHO) w/o ZPVE           -0.072476444660 Eh   ::
         :: G(RRHO) contrib.            0.604787591376 Eh   ::
         :::::::::::::::::::::::::::::::::::::::::::::::::::::

           -------------------------------------------------
          | TOTAL ENERGY             -135.622830642394 Eh   |
          | TOTAL ENTHALPY           -134.901252225136 Eh   |
          | TOTAL FREE ENERGY        -135.018043051017 Eh   |
          | GRADIENT NORM               0.000045817725 Eh/α |
          | HOMO-LUMO GAP               0.242127494043 eV   |
           -------------------------------------------------

 * finished run on 2025/09/12 at 20:24:48.190
