   * xtb version 6.7.1 (edcfbbe) compiled by 'albert@albert-system' on 2024-07-22

   ID    Z sym.   atoms
    1    8 O      1
    2    6 C      2-12, 14-17, 19-35, 37-53
    3    7 N      13, 18, 36
    4    1 H      54-88

          program call               : xtb data2507/toluene/CCDD/CCDD.xyz --gfn 2 --gbsa toluene --ohess vtight --parallel 40 --molden --ceasefiles --namespace data2507/toluene/CCDD/CCDD_toluene_S0_preOpt
      * Solvation model:               GBSA
        Solvent                        toluene
        Solvent mass                       9.2140E+01 g/mol
          :  Hamiltonian                  GFN2-xTB          :
 * total energy  :  -135.6680347 Eh     change       -0.6025488E-08 Eh
 * total energy  :  -135.6837562 Eh     change       -0.1572146E-01 Eh
 * total energy  :  -135.6904085 Eh     change       -0.6652350E-02 Eh
 * total energy  :  -135.6925923 Eh     change       -0.2183793E-02 Eh
 * total energy  :  -135.6935779 Eh     change       -0.9856112E-03 Eh
 * total energy  :  -135.6939292 Eh     change       -0.3512442E-03 Eh
 * total energy  :  -135.6941182 Eh     change       -0.1890613E-03 Eh
 * total energy  :  -135.6943099 Eh     change       -0.1916903E-03 Eh
 * total energy  :  -135.6945184 Eh     change       -0.2084958E-03 Eh
 * total energy  :  -135.6946987 Eh     change       -0.1802836E-03 Eh
 * total energy  :  -135.6950107 Eh     change       -0.9661163E-06 Eh
 * total energy  :  -135.6950117 Eh     change       -0.9767641E-06 Eh
 * total energy  :  -135.6950124 Eh     change       -0.7924684E-06 Eh
 * total energy  :  -135.6950131 Eh     change       -0.6380249E-06 Eh
 * total energy  :  -135.6950136 Eh     change       -0.5608159E-06 Eh
 * total energy  :  -135.6950141 Eh     change       -0.4941064E-06 Eh
 * total energy  :  -135.6950146 Eh     change       -0.4200981E-06 Eh
 * total energy  :  -135.6950149 Eh     change       -0.3553340E-06 Eh
 * total energy  :  -135.6950149 Eh     change       -0.4475964E-08 Eh
   *** GEOMETRY OPTIMIZATION CONVERGED AFTER 44 ITERATIONS ***

 final structure:
================
88
 xtb: 6.7.1 (edcfbbe)
O            6.48141462536914       -4.55780170341826       -0.56156228998738
C            6.38304328222296       -3.36200119408287       -0.32097765382141
C            7.58365373976229       -2.52042410373112       -0.09701789364912
C            8.69449277047067       -3.08401852151041        0.52892172038263
C            9.83614901566608       -2.33290982793684        0.73474875494621
C            9.88890904692197       -1.01932716113760        0.29474645093466
C            8.79848867527999       -0.46030459659938       -0.35332865656633
C            7.64727467249030       -1.20209830701712       -0.54651507186215
C            5.06454564505283       -2.69722975515682       -0.24390746234043
C            4.83310612465682       -1.59943820895409        0.58681066416541
C            3.57994786835151       -1.02807714090250        0.65582765721065
C            2.53051902311594       -1.53041012396593       -0.11591081653720
N            1.26944252941826       -0.93787009853575       -0.06104148258694
C            1.00549624044101        0.41906176709919       -0.14315889624943
C            1.87191558982168        1.48617611355658       -0.33704718838590
C            1.33619875167873        2.75410278050919       -0.42529485463111
C           -0.04410571306271        2.98215470237569       -0.32238876931368
N           -0.53979144819819        4.29270344652836       -0.41143206181585
C           -1.71706885682571        4.54424448037282       -1.12354504887793
C           -2.62195296482785        5.51034714934214       -0.68157337238625
C           -3.77987157610495        5.75906746825096       -1.39291187117252
C           -4.06319559753711        5.04574757586736       -2.54662803384956
C           -3.17272438591218        4.07914040318112       -2.98585568382049
C           -2.00778505016569        3.82977889554297       -2.28650146574812
C            0.14783754107304        5.33776070742694        0.21369727118414
C            0.21908614927357        6.59840903544936       -0.38068069464076
C            0.89909382222014        7.62633169075505        0.24330920961590
C            1.52812491078175        7.41651519606497        1.46018794422970
C            1.46766836698952        6.16486904238703        2.05153984067320
C            0.78154510086129        5.13338462031956        1.44015115721691
C           -0.91443907104490        1.91172843468959       -0.15219548955859
C           -0.39022903518349        0.63064841922127       -0.07747072791856
C           -0.99487121863578       -0.66628843980725        0.05842637642216
C           -2.31120586762026       -1.08497094244435        0.17568299017533
C           -2.57048544483669       -2.44224223609618        0.32628099877194
N           -3.89006955746898       -2.90492816160392        0.44857674117916
C           -4.81859989881301       -2.17922304812157        1.20158479970337
C           -4.42532243270939       -1.51475625734084        2.36405566716755
C           -5.34623183662385       -0.79708501040419        3.10258525593696
C           -6.67187756860017       -0.73423408295422        2.70401032682227
C           -7.06888123785559       -1.39312789918688        1.55143085433600
C           -6.15339787589783       -2.10535734719397        0.80098894388399
C           -4.26554772549237       -4.09504213126084       -0.18343299548950
C           -3.74347794328272       -4.42546977249805       -1.43473679053048
C           -4.10461972059441       -5.60769879816493       -2.05142629710486
C           -4.99570063292721       -6.47522626520733       -1.44034197221657
C           -5.52068650270709       -6.15074175246874       -0.19958578580946
C           -5.15874791080718       -4.97501564581927        0.42901037029838
C           -1.50868779265242       -3.35810040090887        0.37256545422655
C           -0.19588326475891       -2.95658689517788        0.24067088540570
C            0.06183581763697       -1.60446691762018        0.06012077658090
C            2.75574937866352       -2.63479118001749       -0.94008214354502
C            4.00351841615741       -3.21632327305945       -0.98838098877551
H            8.63803617381163       -4.11232389210957        0.85633109443073
H           10.68763341826950       -2.77317504415067        1.23220738244104
H           10.78294684403225       -0.43376306686006        0.45034504073609
H            8.84630844515598        0.55797231483069       -0.71013127004887
H            6.80515676469050       -0.77130163364890       -1.06778041692656
H            5.63023389575808       -1.21631090044265        1.20589054720156
H            3.39778243546382       -0.20125109644906        1.32511856807894
H            2.93524935520767        1.33751740533333       -0.44104215987199
H            1.99035759120575        3.59854677020257       -0.58400674165893
H           -2.41093663323066        6.06165121722591        0.22332821753255
H           -4.47068928728735        6.51030585355632       -1.03789499705543
H           -4.97035490954190        5.24140891949234       -3.09860976225894
H           -3.38213051536020        3.51987644008448       -3.88640549234660
H           -1.31234602147352        3.08131258551408       -2.63769483129784
H           -0.26017910770882        6.76359253969500       -1.33478252910057
H            0.94600620991020        8.59662929131859       -0.22985919957124
H            2.06115927908378        8.22174625885949        1.94318342604437
H            1.95071327203438        5.99230897418707        3.00258009772552
H            0.72692303188556        4.16209687426373        1.90987090995040
H           -1.97933955449632        2.07632832403811       -0.08980118411278
H           -3.12060031034428       -0.37113492875978        0.15895281396922
H           -3.39486062495814       -1.56922613202367        2.68406401588923
H           -5.02740617481989       -0.29030915806473        4.00210170501428
H           -7.38957080767745       -0.17613864775253        3.28647490583222
H           -8.09878592840891       -1.34477657589756        1.22804074782410
H           -6.46511396895592       -2.60883839518076       -0.10272131755920
H           -3.05514302686228       -3.74734893050743       -1.91804219289459
H           -3.69363677157606       -5.84898142425519       -3.02115497009269
H           -5.27836834195836       -7.39690739353797       -1.92655584722854
H           -6.21155558413333       -6.82337147104045        0.28802728451260
H           -5.56190512372917       -4.73138234651933        1.40130247802810
H           -1.73257302101409       -4.40418534542996        0.52031277806268
H            0.60216997705421       -3.68018788129331        0.30085787286848
H            1.95299503204656       -3.01751632133896       -1.55130494608692
H            4.18822501471380       -4.07144891196828       -1.62220168031033

          :  Hamiltonian                  GFN2-xTB          :
         :: gradient norm              0.000060950066 Eh/a0 ::
         :: HOMO-LUMO gap              1.346319522871 eV    ::
         :: SCC energy              -138.197587001304 Eh    ::
         :: -> dispersion             -0.121004561278 Eh    ::
         :: -> Gsolv                  -0.059159983583 Eh    ::
         :: repulsion energy           2.502572082645 Eh    ::

    * Orbital Energies and Occupations

         #    Occupation            Energy/Eh            Energy/eV
      -------------------------------------------------------------
         1        2.0000           -0.7092407             -19.2994
       ...           ...                  ...                  ...
       114        2.0000           -0.4157321             -11.3126
       115        2.0000           -0.4106066             -11.1732
       116        2.0000           -0.4059421             -11.0462
       117        2.0000           -0.4058175             -11.0429
       118        2.0000           -0.4044752             -11.0063
       119        2.0000           -0.4041780             -10.9982
       120        2.0000           -0.4031020             -10.9690
       121        2.0000           -0.4028108             -10.9610
       122        2.0000           -0.3946688             -10.7395
       123        2.0000           -0.3861707             -10.5082
       124        2.0000           -0.3796065             -10.3296
       125        2.0000           -0.3489467              -9.4953
       126        2.0000           -0.3416553              -9.2969 (HOMO)
       127                         -0.2921790              -7.9506 (LUMO)
       128                         -0.2517331              -6.8500
       129                         -0.2419909              -6.5849
       130                         -0.2401885              -6.5359
       131                         -0.2338208              -6.3626
       132                         -0.2322907              -6.3210
       133                         -0.2288991              -6.2287
       134                         -0.2287494              -6.2246
       135                         -0.2239503              -6.0940
       136                         -0.2235140              -6.0821
       137                         -0.2202498              -5.9933
       ...                                ...                  ...
       247                          0.7377690              20.0757
      -------------------------------------------------------------
                  HL-Gap            0.0494763 Eh            1.3463 eV

     #   Z          covCN         q      C6AA      α(0)
     1   8 O        0.858    -0.426    22.202     6.317
     2   6 C        2.829     0.226    23.256     7.902
     3   6 C        2.972    -0.013    28.343     8.733
     4   6 C        2.924    -0.017    28.446     8.746
     5   6 C        2.917    -0.026    28.652     8.778
     6   6 C        2.920    -0.022    28.554     8.763
     7   6 C        2.918    -0.026    28.659     8.779
     8   6 C        2.921    -0.026    28.654     8.778
     9   6 C        2.971    -0.018    28.460     8.751
    10   6 C        2.920    -0.025    28.617     8.773
    11   6 C        2.920    -0.042    29.049     8.838
    12   6 C        2.912     0.071    26.405     8.426
    13   7 N        2.799    -0.034    21.893     6.949
    14   6 C        3.071     0.039    27.046     8.527
    15   6 C        2.909    -0.050    29.248     8.868
    16   6 C        2.926    -0.049    29.223     8.865
    17   6 C        2.923     0.057    26.719     8.477
    18   7 N        2.752    -0.081    22.809     7.093
    19   6 C        2.922     0.066    26.530     8.447
    20   6 C        2.922    -0.049    29.218     8.864
    21   6 C        2.919    -0.031    28.767     8.795
    22   6 C        2.919    -0.040    29.006     8.832
    23   6 C        2.919    -0.031    28.766     8.795
    24   6 C        2.922    -0.049    29.223     8.865
    25   6 C        2.923     0.066    26.531     8.447
    26   6 C        2.922    -0.049    29.216     8.864
    27   6 C        2.919    -0.031    28.766     8.795
    28   6 C        2.919    -0.041    29.007     8.832
    29   6 C        2.919    -0.031    28.767     8.795
    30   6 C        2.922    -0.049    29.225     8.865
    31   6 C        2.915    -0.051    29.265     8.871
    32   6 C        3.065    -0.015    28.312     8.725
    33   6 C        3.065    -0.015    28.316     8.726
    34   6 C        2.915    -0.051    29.271     8.872
    35   6 C        2.924     0.057    26.716     8.476
    36   7 N        2.752    -0.081    22.810     7.093
    37   6 C        2.922     0.066    26.530     8.447
    38   6 C        2.922    -0.049    29.223     8.865
    39   6 C        2.919    -0.031    28.766     8.795
    40   6 C        2.919    -0.041    29.007     8.832
    41   6 C        2.919    -0.031    28.767     8.795
    42   6 C        2.922    -0.049    29.218     8.864
    43   6 C        2.923     0.066    26.531     8.447
    44   6 C        2.922    -0.049    29.220     8.865
    45   6 C        2.919    -0.031    28.767     8.795
    46   6 C        2.919    -0.040    29.003     8.831
    47   6 C        2.919    -0.031    28.766     8.795
    48   6 C        2.922    -0.049    29.214     8.864
    49   6 C        2.926    -0.049    29.221     8.865
    50   6 C        2.909    -0.050    29.237     8.866
    51   6 C        3.071     0.039    27.045     8.527
    52   6 C        2.919    -0.042    29.040     8.837
    53   6 C        2.924    -0.016    28.412     8.741
    54   1 H        0.926     0.043     2.412     2.429
    55   1 H        0.926     0.044     2.391     2.418
    56   1 H        0.926     0.047     2.362     2.403
    57   1 H        0.926     0.046     2.365     2.405
    58   1 H        0.926     0.043     2.410     2.428
    59   1 H        0.926     0.051     2.306     2.375
    60   1 H        0.926     0.055     2.255     2.348
    61   1 H        0.926     0.039     2.459     2.452
    62   1 H        0.926     0.037     2.492     2.469
    63   1 H        0.926     0.030     2.580     2.512
    64   1 H        0.926     0.032     2.564     2.504
    65   1 H        0.926     0.030     2.586     2.515
    66   1 H        0.926     0.032     2.563     2.503
    67   1 H        0.926     0.030     2.582     2.513
    68   1 H        0.926     0.030     2.583     2.513
    69   1 H        0.926     0.032     2.564     2.504
    70   1 H        0.926     0.030     2.583     2.513
    71   1 H        0.926     0.032     2.556     2.500
    72   1 H        0.926     0.031     2.575     2.510
    73   1 H        0.926     0.035     2.512     2.478
    74   1 H        0.926     0.036     2.507     2.476
    75   1 H        0.926     0.030     2.582     2.513
    76   1 H        0.926     0.032     2.560     2.502
    77   1 H        0.926     0.030     2.584     2.514
    78   1 H        0.926     0.032     2.563     2.503
    79   1 H        0.926     0.030     2.581     2.512
    80   1 H        0.926     0.031     2.578     2.511
    81   1 H        0.926     0.032     2.557     2.501
    82   1 H        0.926     0.030     2.581     2.512
    83   1 H        0.926     0.032     2.560     2.502
    84   1 H        0.926     0.030     2.580     2.512
    85   1 H        0.926     0.036     2.506     2.475
    86   1 H        0.926     0.038     2.479     2.462
    87   1 H        0.926     0.053     2.282     2.362
    88   1 H        0.926     0.051     2.305     2.374

molecular dipole:
                 x           y           z       tot (Debye)
 q only:        0.187       1.472       0.318
   full:        0.211       1.482       0.323       3.892

 projected vibrational frequencies (cm⁻¹)
eigval :       -0.00    -0.00    -0.00    -0.00    -0.00     0.00
eigval :       10.32    13.88    14.71    16.52    21.81    24.78
eigval :       31.81    38.07    40.89    50.35    52.35    58.43
eigval :       60.50    64.47    76.32    84.32    86.55    89.24
eigval :       98.37   111.70   123.65   136.17   159.41   164.39
eigval :      180.76   195.32   212.69   219.82   227.20   229.24
eigval :      245.49   248.77   262.74   280.40   305.70   314.78
eigval :      316.94   325.56   334.03   353.46   364.38   367.89
eigval :      374.38   378.97   379.63   384.33   385.91   386.11
eigval :      388.59   400.89   408.77   427.31   442.43   453.51
eigval :      471.05   472.62   480.90   489.88   490.45   506.68
eigval :      543.80   550.09   555.41   568.59   581.57   586.09
eigval :      586.31   587.70   590.05   593.72   596.71   608.18
eigval :      615.97   628.86   630.84   641.05   657.97   659.32
eigval :      660.88   664.39   668.92   674.49   677.35   701.18
eigval :      703.82   706.94   716.94   752.23   755.24   755.78
eigval :      757.53   760.71   772.77   802.30   816.73   820.32
eigval :      830.70   868.00   872.44   873.13   873.96   874.58
eigval :      875.63   877.81   878.13   881.04   889.79   890.05
eigval :      892.46   894.23   901.57   907.33   909.26   909.98
eigval :      910.69   912.25   925.38   925.85   926.25   926.62
eigval :      927.65   929.22   929.52   929.55   930.03   930.94
eigval :      931.63   936.29   947.75   948.33   970.48   989.21
eigval :      993.84  1002.93  1003.69  1011.98  1022.58  1035.68
eigval :     1078.97  1082.25  1082.27  1083.26  1083.55  1117.78
eigval :     1120.65  1121.33  1123.13  1123.73  1127.15  1133.95
eigval :     1154.05  1166.81  1175.02  1176.83  1178.52  1179.02
eigval :     1179.87  1179.97  1180.50  1181.02  1190.22  1194.52
eigval :     1195.11  1199.09  1200.05  1204.78  1227.96  1240.60
eigval :     1249.86  1259.51  1264.40  1272.84  1275.59  1277.60
eigval :     1277.80  1283.16  1286.12  1308.74  1313.42  1317.46
eigval :     1318.51  1319.07  1320.36  1322.80  1325.03  1325.71
eigval :     1327.48  1347.95  1360.10  1376.93  1405.98  1418.08
eigval :     1425.90  1426.22  1433.28  1434.07  1441.85  1442.45
eigval :     1458.86  1464.98  1470.95  1471.27  1472.62  1474.26
eigval :     1481.18  1487.48  1549.36  1561.93  1569.15  1574.59
eigval :     1574.72  1577.00  1578.03  1578.84  1578.96  1587.72
eigval :     1591.61  1591.62  1595.67  1597.93  1599.37  1612.26
eigval :     1645.10  3069.79  3070.25  3070.87  3071.14  3071.35
eigval :     3071.35  3071.88  3072.46  3075.72  3077.62  3081.15
eigval :     3081.36  3082.33  3082.39  3082.60  3083.96  3084.03
eigval :     3084.57  3084.73  3085.06  3085.97  3086.22  3087.19
eigval :     3088.26  3091.96  3092.66  3092.74  3093.70  3093.92
eigval :     3094.45  3095.10  3097.63  3098.97  3100.05  3102.28

   temp. (K)  partition function   enthalpy   heat capacity  entropy
                                   cal/mol     cal/K/mol   cal/K/mol   J/K/mol
 298.15  VIB  0.521E+21            25356.153    157.643    159.532
         ROT  0.150E+09              888.752      2.981     40.387
         INT  0.779E+29            26244.905    160.624    199.919
         TR   0.172E+29             1481.254      4.968     45.419
         TOT                       27726.1591   165.5924   245.3382  1026.4949

       T/K    H(0)-H(T)+PV         H(T)/Eh          T*S/Eh         G(T)/Eh
   ------------------------------------------------------------------------
    298.15    0.441844E-01    0.724507E+00    0.116568E+00    0.607939E+00
   ------------------------------------------------------------------------

         :::::::::::::::::::::::::::::::::::::::::::::::::::::
         ::                  THERMODYNAMIC                  ::
         :::::::::::::::::::::::::::::::::::::::::::::::::::::
         :: total free energy        -135.087075814756 Eh   ::
         ::.................................................::
         :: total energy             -135.695014913584 Eh   ::
         :: zero point energy           0.680322736132 Eh   ::
         :: G(RRHO) w/o ZPVE           -0.072383637305 Eh   ::
         :: G(RRHO) contrib.            0.607939098828 Eh   ::
         :::::::::::::::::::::::::::::::::::::::::::::::::::::

           -------------------------------------------------
          | TOTAL ENERGY             -135.695014913584 Eh   |
          | TOTAL ENTHALPY           -134.970507730503 Eh   |
          | TOTAL FREE ENERGY        -135.087075814756 Eh   |
          | GRADIENT NORM               0.000060922119 Eh/α |
          | HOMO-LUMO GAP               1.346319187050 eV   |
           -------------------------------------------------

 * finished run on 2025/09/12 at 20:01:39.760
