   * xtb version 6.7.1 (edcfbbe) compiled by 'albert@albert-system' on 2024-07-22

   ID    Z sym.   atoms
    1    8 O      1
    2    6 C      2-12, 14-17, 19-35, 37-53
    3    7 N      13, 18, 36
    4    1 H      54-88

          program call               : xtb data2507/toluene/CCDD/CCDD_toluene_S0_finalOpt.xtbopt.xyz --gfn 2 --uhf 2 --gbsa toluene --ohess vtight --parallel 40 --molden --ceasefiles --namespace data2507/toluene/CCDD/CCDD_toluene_T1_preOpt
      * Solvation model:               GBSA
        Solvent                        toluene
        Solvent mass                       9.2140E+01 g/mol
          :  Hamiltonian                  GFN2-xTB          :
 * total energy  :  -135.6179819 Eh     change       -0.1925315E-08 Eh
 * total energy  :  -135.6208308 Eh     change       -0.2848909E-02 Eh
 * total energy  :  -135.6216518 Eh     change       -0.8210462E-03 Eh
 * total energy  :  -135.6218031 Eh     change       -0.1513042E-03 Eh
 * total energy  :  -135.6219226 Eh     change       -0.1194353E-03 Eh
 * total energy  :  -135.6220248 Eh     change       -0.1022550E-03 Eh
 * total energy  :  -135.6221304 Eh     change       -0.1055174E-03 Eh
 * total energy  :  -135.6222184 Eh     change       -0.8808025E-04 Eh
 * total energy  :  -135.6222813 Eh     change       -0.6289114E-04 Eh
 * total energy  :  -135.6223358 Eh     change       -0.5450848E-04 Eh
 * total energy  :  -135.6227964 Eh     change       -0.5541177E-06 Eh
 * total energy  :  -135.6227969 Eh     change       -0.4725723E-06 Eh
 * total energy  :  -135.6227972 Eh     change       -0.3416089E-06 Eh
 * total energy  :  -135.6227975 Eh     change       -0.2842509E-06 Eh
 * total energy  :  -135.6227978 Eh     change       -0.2862887E-06 Eh
 * total energy  :  -135.6227982 Eh     change       -0.3680653E-06 Eh
 * total energy  :  -135.6227987 Eh     change       -0.4853584E-06 Eh
 * total energy  :  -135.6227992 Eh     change       -0.5144848E-06 Eh
 * total energy  :  -135.6227992 Eh     change       -0.5545076E-08 Eh
   *** GEOMETRY OPTIMIZATION CONVERGED AFTER 68 ITERATIONS ***

 final structure:
================
88
 xtb: 6.7.1 (edcfbbe)
O            6.66921686138556       -3.66741045490441       -1.47325765916197
C            6.48795233427741       -2.55725416434667       -0.88592769720515
C            7.64605570530121       -1.80262700732523       -0.39267326081056
C            8.79882702290162       -2.49991413153364       -0.00595021284553
C            9.92492952100113       -1.82855937028191        0.41954116578703
C            9.94050552232465       -0.44084749092697        0.45373416459463
C            8.81953092432125        0.26439956827351        0.03787487429590
C            7.68750125296481       -0.40199594757968       -0.38427280298779
C            5.15489839002293       -2.03547032669532       -0.69824912164932
C            4.81205675833655       -1.10000008653297        0.30432964143598
C            3.52227588048075       -0.66120244061436        0.45154270601031
C            2.50139365804362       -1.14475334452378       -0.38105635586837
N            1.19101860875949       -0.67681170005216       -0.23804277205425
C            0.82237535282263        0.64488601981150       -0.15734514520368
C            1.59803039730494        1.79460170939218       -0.24918241902775
C            0.97079448098892        3.01816562405810       -0.15871157741062
C           -0.42390344257920        3.12155554043761        0.01935900912709
N           -1.01832737273950        4.37376209254708        0.11558755629821
C           -2.30711732037227        4.58685878142323       -0.39075060574058
C           -3.20272253279122        5.41281846786013        0.29022848050550
C           -4.47132311057227        5.62501016036628       -0.21404505443125
C           -4.86788697764977        5.01595531038947       -1.39453163547271
C           -3.98152261229342        4.19500078859840       -2.07447966004930
C           -2.70831679837516        3.98137395917361       -1.58290461652251
C           -0.33671653591407        5.43543227741419        0.72517039025686
C           -0.43481974984634        6.72673969317026        0.20544834119641
C            0.23234765168482        7.77167274829527        0.81507401452063
C            1.00615463992211        7.54700999276084        1.94319480947274
C            1.10608843910906        6.26564162411355        2.46289926270789
C            0.43984618867317        5.21433175920077        1.86371296203172
C           -1.20884184625882        1.96720622622946        0.08589673383770
C           -0.59062379396252        0.73413291618367       -0.01282345313926
C           -1.08080413214215       -0.61313703474504       -0.01972322070859
C           -2.34690241745339       -1.15954700969052        0.07777815513540
C           -2.48543171014051       -2.55021370155944        0.05608557943315
N           -3.74918166839378       -3.12154764196243        0.14185159485011
C           -4.85597182995261       -2.47124042597058       -0.41949614462152
C           -6.09089861027247       -2.49447453047261        0.23059335019793
C           -7.18113871465551       -1.85594840019254       -0.32833627079775
C           -7.05833285314628       -1.18353164723136       -1.53439002095837
C           -5.83363354184566       -1.15754648949519       -2.18357004165762
C           -4.73856560708405       -1.79786304559416       -1.63677351837085
C           -3.93539830580778       -4.34407034122335        0.80102719320801
C           -4.83037815273675       -5.28725873100314        0.29452004695209
C           -5.02160794928651       -6.48564901144407        0.95469009201372
C           -4.32480686882756       -6.76305112274492        2.12063498023091
C           -3.43305242426220       -5.82964421406604        2.62595667882014
C           -3.23761192905107       -4.62624583723549        1.97634530556396
C           -1.34378969820648       -3.37111707028946       -0.04246123800016
C           -0.07737166154748       -2.83705845312819       -0.14663041429944
C            0.06008973191849       -1.45381262713857       -0.15770458460265
C            2.81470020104528       -2.11027115305199       -1.35052437673261
C            4.10247913100075       -2.54864168267939       -1.49400669545767
H            8.77686228642767       -3.58054971225762       -0.04506422151980
H           10.79894297258421       -2.38706226146428        0.72550065202217
H           10.82326422288783        0.08588447041046        0.78587918126122
H            8.83566445123709        1.34573384290355        0.03332881153171
H            6.83759681417899        0.15851419330240       -0.74681533027094
H            5.57242761405844       -0.75788095846927        0.99054565981635
H            3.27290338105575        0.03079176866387        1.24348356397890
H            2.66232936804027        1.73436032019974       -0.41471782839568
H            1.55253023712770        3.92237547688359       -0.24875041482661
H           -2.89893990441242        5.87704223951160        1.21677643562009
H           -5.15728179611125        6.26321355373530        0.32288776342065
H           -5.86084579287405        5.18226017167272       -1.78358444291091
H           -4.28030506120668        3.72502001666272       -2.99963215161627
H           -2.01189818881747        3.35637357336024       -2.12212783631841
H           -1.02691901844712        6.90033724734381       -0.68087473052591
H            0.15418985578121        8.76630703676728        0.40199396456824
H            1.52770616901237        8.36568223841098        2.41532641865441
H            1.70075051840120        6.08456783425748        3.34598930812865
H            0.50668747769096        4.21869844382145        2.27661984376866
H           -2.27586840909237        2.03878959088346        0.22683981736898
H           -3.21266879603777       -0.52624785860936        0.19223932188097
H           -6.18449688578300       -3.00672541752856        1.17664174011313
H           -8.13069482359107       -1.87708964548907        0.18545963672302
H           -7.91225624074884       -0.68450032253946       -1.96659524785844
H           -5.73224997016017       -0.64395600673782       -3.12800855827057
H           -3.78941051855348       -1.79212495919947       -2.15177130166453
H           -5.36446138897096       -5.07685850833636       -0.62026262295904
H           -5.71297861000977       -7.21089303476571        0.55211446997013
H           -4.47582979974921       -7.70116593142871        2.63271355290194
H           -2.89122830937516       -6.03639054151046        3.53697972899734
H           -2.55358667817273       -3.89331673666161        2.37790857627702
H           -1.46993824721372       -4.44248391692172       -0.05196249316155
H            0.78338639892356       -3.48278302304869       -0.22111301643828
H            2.03819149721979       -2.47588173653269       -2.00692710332487
H            4.35941148028783       -3.28507141608224       -2.24228793588808

          :  Hamiltonian                  GFN2-xTB          :
         :: gradient norm              0.000050874264 Eh/a0 ::
         :: HOMO-LUMO gap              0.239358698743 eV    ::
         :: SCC energy              -138.110485920175 Eh    ::
         :: -> dispersion             -0.121140734876 Eh    ::
         :: -> Gsolv                  -0.077626613791 Eh    ::
         :: repulsion energy           2.487686740055 Eh    ::

    * Orbital Energies and Occupations

         #    Occupation            Energy/Eh            Energy/eV
      -------------------------------------------------------------
         1        2.0000           -0.6900091             -18.7761
       ...           ...                  ...                  ...
       115        2.0000           -0.4146693             -11.2837
       116        2.0000           -0.4141681             -11.2701
       117        2.0000           -0.4102788             -11.1643
       118        2.0000           -0.4018519             -10.9349
       119        2.0000           -0.3999542             -10.8833
       120        2.0000           -0.3963508             -10.7853
       121        2.0000           -0.3926094             -10.6834
       122        2.0000           -0.3874361             -10.5427
       123        2.0000           -0.3816096             -10.3841
       124        2.0000           -0.3638077              -9.8997
       125        1.8973           -0.3560438              -9.6884
       126        1.1027           -0.3519251              -9.5764
       127        0.9903           -0.2680330              -7.2935 (HOMO)
       128        0.0097           -0.2592361              -7.0542 (LUMO)
       129                         -0.2447175              -6.6591
       130                         -0.2418525              -6.5811
       131                         -0.2417360              -6.5780
       132                         -0.2357961              -6.4163
       133                         -0.2353663              -6.4046
       134                         -0.2323700              -6.3231
       135                         -0.2317586              -6.3065
       136                         -0.2311623              -6.2902
       137                         -0.2176489              -5.9225
       138                         -0.2148110              -5.8453
       ...                                ...                  ...
       247                          0.7317506              19.9119
      -------------------------------------------------------------
                  HL-Gap            0.0087969 Eh            0.2394 eV

     #   Z          covCN         q      C6AA      α(0)
     1   8 O        0.857    -0.547    24.841     6.682
     2   6 C        2.832     0.165    24.427     8.099
     3   6 C        2.969    -0.019    28.478     8.753
     4   6 C        2.925    -0.030    28.759     8.795
     5   6 C        2.916    -0.035    28.877     8.812
     6   6 C        2.919    -0.042    29.051     8.839
     7   6 C        2.917    -0.035    28.881     8.813
     8   6 C        2.921    -0.041    29.027     8.835
     9   6 C        2.966    -0.028    28.692     8.786
    10   6 C        2.917    -0.044    29.099     8.846
    11   6 C        2.915    -0.046    29.142     8.852
    12   6 C        2.913     0.032    27.293     8.567
    13   7 N        2.799     0.002    21.222     6.842
    14   6 C        3.079     0.039    27.033     8.524
    15   6 C        2.907    -0.040    28.983     8.828
    16   6 C        2.923    -0.053    29.308     8.878
    17   6 C        2.923     0.061    26.642     8.465
    18   7 N        2.753    -0.038    21.974     6.962
    19   6 C        2.926     0.063    26.596     8.457
    20   6 C        2.921    -0.042    29.044     8.838
    21   6 C        2.919    -0.026    28.658     8.779
    22   6 C        2.919    -0.031    28.784     8.798
    23   6 C        2.919    -0.026    28.662     8.779
    24   6 C        2.921    -0.042    29.048     8.838
    25   6 C        2.926     0.063    26.592     8.457
    26   6 C        2.921    -0.042    29.044     8.838
    27   6 C        2.919    -0.026    28.664     8.780
    28   6 C        2.919    -0.031    28.784     8.798
    29   6 C        2.919    -0.026    28.662     8.779
    30   6 C        2.921    -0.042    29.043     8.838
    31   6 C        2.913    -0.047    29.167     8.856
    32   6 C        3.061    -0.013    28.280     8.721
    33   6 C        3.062    -0.013    28.277     8.720
    34   6 C        2.913    -0.047    29.164     8.856
    35   6 C        2.923     0.061    26.639     8.464
    36   7 N        2.753    -0.038    21.977     6.963
    37   6 C        2.926     0.063    26.594     8.457
    38   6 C        2.921    -0.042    29.045     8.838
    39   6 C        2.919    -0.026    28.658     8.779
    40   6 C        2.919    -0.031    28.783     8.798
    41   6 C        2.919    -0.026    28.662     8.779
    42   6 C        2.921    -0.042    29.045     8.838
    43   6 C        2.925     0.063    26.593     8.457
    44   6 C        2.921    -0.042    29.042     8.837
    45   6 C        2.919    -0.027    28.665     8.780
    46   6 C        2.919    -0.031    28.783     8.798
    47   6 C        2.919    -0.026    28.662     8.779
    48   6 C        2.921    -0.042    29.044     8.838
    49   6 C        2.923    -0.053    29.314     8.879
    50   6 C        2.907    -0.040    28.982     8.827
    51   6 C        3.077     0.040    27.034     8.525
    52   6 C        2.914    -0.046    29.153     8.854
    53   6 C        2.922    -0.033    28.815     8.803
    54   1 H        0.925     0.019     2.743     2.590
    55   1 H        0.925     0.022     2.700     2.569
    56   1 H        0.926     0.025     2.664     2.552
    57   1 H        0.925     0.026     2.646     2.544
    58   1 H        0.926     0.023     2.687     2.564
    59   1 H        0.926     0.026     2.637     2.540
    60   1 H        0.926     0.034     2.525     2.485
    61   1 H        0.926     0.045     2.387     2.416
    62   1 H        0.926     0.044     2.399     2.422
    63   1 H        0.926     0.041     2.430     2.438
    64   1 H        0.926     0.043     2.414     2.430
    65   1 H        0.926     0.042     2.427     2.436
    66   1 H        0.926     0.043     2.405     2.425
    67   1 H        0.926     0.042     2.419     2.432
    68   1 H        0.926     0.042     2.421     2.433
    69   1 H        0.926     0.042     2.416     2.431
    70   1 H        0.926     0.041     2.441     2.443
    71   1 H        0.926     0.042     2.426     2.436
    72   1 H        0.926     0.042     2.425     2.435
    73   1 H        0.926     0.050     2.320     2.382
    74   1 H        0.926     0.050     2.319     2.381
    75   1 H        0.926     0.041     2.431     2.438
    76   1 H        0.926     0.043     2.413     2.429
    77   1 H        0.926     0.042     2.425     2.435
    78   1 H        0.926     0.043     2.405     2.425
    79   1 H        0.926     0.042     2.422     2.434
    80   1 H        0.926     0.042     2.420     2.433
    81   1 H        0.926     0.043     2.415     2.430
    82   1 H        0.926     0.041     2.441     2.443
    83   1 H        0.926     0.042     2.427     2.436
    84   1 H        0.926     0.042     2.424     2.435
    85   1 H        0.926     0.043     2.405     2.425
    86   1 H        0.926     0.044     2.395     2.420
    87   1 H        0.926     0.033     2.546     2.495
    88   1 H        0.926     0.026     2.642     2.542

molecular dipole:
                 x           y           z       tot (Debye)
 q only:       -9.279       4.073       1.420
   full:       -9.033       4.021       1.444      25.399

 projected vibrational frequencies (cm⁻¹)
eigval :       -0.00    -0.00     0.00     0.00     0.00     0.00
eigval :        8.41    12.62    15.25    17.99    20.31    24.85
eigval :       34.74    40.26    43.19    51.17    55.10    58.58
eigval :       62.76    68.49    71.81    81.82    84.13    94.18
eigval :      101.60   115.21   128.59   136.41   158.63   168.57
eigval :      192.96   198.88   216.76   223.91   225.22   235.56
eigval :      244.85   250.84   261.74   283.44   306.20   310.43
eigval :      314.98   322.95   328.34   351.65   357.06   370.39
eigval :      373.67   376.71   377.57   381.60   382.58   388.68
eigval :      400.70   406.80   410.04   426.91   431.53   448.01
eigval :      462.90   468.54   471.31   501.65   504.17   510.01
eigval :      536.63   550.29   559.23   567.00   573.63   583.12
eigval :      584.60   586.07   587.68   589.09   594.48   598.24
eigval :      607.89   612.60   622.06   633.30   641.48   655.63
eigval :      659.99   661.13   664.14   667.49   669.01   674.78
eigval :      696.35   704.17   704.99   740.68   750.01   755.73
eigval :      756.02   758.28   759.79   801.23   802.08   816.28
eigval :      818.91   846.96   855.50   856.76   869.08   870.83
eigval :      871.44   871.99   874.06   874.57   878.75   893.85
eigval :      896.47   897.38   897.71   899.79   900.19   904.11
eigval :      908.28   908.85   914.52   917.76   921.76   927.19
eigval :      927.61   927.89   928.36   930.36   930.69   930.72
eigval :      931.02   932.16   934.44   943.57   968.48   982.54
eigval :      987.31  1000.02  1002.33  1002.65  1008.04  1029.21
eigval :     1077.23  1078.99  1079.72  1080.28  1081.30  1118.23
eigval :     1118.40  1119.96  1120.48  1121.71  1124.15  1134.09
eigval :     1142.91  1164.66  1167.20  1169.58  1173.35  1174.90
eigval :     1177.49  1177.53  1179.35  1179.51  1188.47  1189.77
eigval :     1190.98  1195.57  1198.68  1210.54  1222.71  1229.72
eigval :     1238.64  1258.87  1264.11  1272.18  1273.13  1274.55
eigval :     1276.13  1277.25  1280.39  1295.21  1297.51  1302.20
eigval :     1305.93  1315.54  1316.12  1322.86  1323.10  1325.91
eigval :     1330.87  1345.98  1348.97  1368.82  1381.00  1416.74
eigval :     1421.42  1423.93  1429.12  1430.91  1431.85  1437.58
eigval :     1438.32  1447.20  1450.26  1451.76  1458.41  1459.68
eigval :     1459.76  1459.93  1462.24  1479.27  1523.68  1535.97
eigval :     1544.89  1545.43  1551.40  1561.24  1569.18  1569.79
eigval :     1573.19  1573.68  1581.75  1581.94  1587.78  1587.93
eigval :     1593.62  3056.63  3057.02  3068.08  3069.31  3070.94
eigval :     3071.28  3079.11  3079.46  3079.52  3080.08  3080.22
eigval :     3080.78  3081.12  3081.50  3081.56  3081.89  3084.81
eigval :     3088.25  3088.69  3089.18  3089.77  3091.38  3091.79
eigval :     3092.30  3092.75  3094.48  3096.27  3098.70  3098.86
eigval :     3099.22  3099.79  3100.39  3101.70  3105.02  3106.71

   temp. (K)  partition function   enthalpy   heat capacity  entropy
                                   cal/mol     cal/K/mol   cal/K/mol   J/K/mol
 298.15  VIB  0.464E+21            25417.483    158.920    159.796
         ROT  0.150E+09              888.752      2.981     40.397
         INT  0.697E+29            26306.235    161.901    200.192
         TR   0.172E+29             1481.254      4.968     45.419
         TOT                       27787.4889   166.8692   245.6116  1027.6388

       T/K    H(0)-H(T)+PV         H(T)/Eh          T*S/Eh         G(T)/Eh
   ------------------------------------------------------------------------
    298.15    0.442822E-01    0.721592E+00    0.116698E+00    0.604894E+00
   ------------------------------------------------------------------------

         :::::::::::::::::::::::::::::::::::::::::::::::::::::
         ::                  THERMODYNAMIC                  ::
         :::::::::::::::::::::::::::::::::::::::::::::::::::::
         :: total free energy        -135.017905246173 Eh   ::
         ::.................................................::
         :: total energy             -135.622799183653 Eh   ::
         :: zero point energy           0.677309731931 Eh   ::
         :: G(RRHO) w/o ZPVE           -0.072415794450 Eh   ::
         :: G(RRHO) contrib.            0.604893937481 Eh   ::
         :::::::::::::::::::::::::::::::::::::::::::::::::::::

           -------------------------------------------------
          | TOTAL ENERGY             -135.622799183653 Eh   |
          | TOTAL ENTHALPY           -134.901207269538 Eh   |
          | TOTAL FREE ENERGY        -135.017905246173 Eh   |
          | GRADIENT NORM               0.000055755667 Eh/α |
          | HOMO-LUMO GAP               0.239374581936 eV   |
           -------------------------------------------------

 * finished run on 2025/09/12 at 20:10:28.222
