   * xtb version 6.7.1 (edcfbbe) compiled by 'albert@albert-system' on 2024-07-22

   ID    Z sym.   atoms
    1    8 O      1
    2   15 P      2
    3    6 C      3-17, 19, 20, 22-28, 30-44, 46-51, 53
    4    7 N      18, 21, 29
    5   16 S      45, 52
    6    1 H      54-83

          program call               : xtb data2507/gas/oTPAPO-DTPZ/oTPAPO-DTPZ.xyz --gfn 2 --ohess vtight --parallel 40 --molden --ceasefiles --namespace data2507/gas/oTPAPO-DTPZ/oTPAPO-DTPZ_gas_S0_preOpt
          :  Hamiltonian                  GFN2-xTB          :
 * total energy  :  -135.6903025 Eh     change       -0.7300144E-08 Eh
 * total energy  :  -135.7099591 Eh     change       -0.1965665E-01 Eh
 * total energy  :  -135.7174084 Eh     change       -0.7449245E-02 Eh
 * total energy  :  -135.7193492 Eh     change       -0.1940818E-02 Eh
 * total energy  :  -135.7208067 Eh     change       -0.1457537E-02 Eh
 * total energy  :  -135.7214074 Eh     change       -0.6006849E-03 Eh
 * total energy  :  -135.7217620 Eh     change       -0.3546017E-03 Eh
 * total energy  :  -135.7220825 Eh     change       -0.3204652E-03 Eh
 * total energy  :  -135.7223759 Eh     change       -0.2934055E-03 Eh
 * total energy  :  -135.7226125 Eh     change       -0.2366678E-03 Eh
 * total energy  :  -135.7242603 Eh     change       -0.1158405E-06 Eh
 * total energy  :  -135.7242604 Eh     change       -0.1303178E-06 Eh
 * total energy  :  -135.7242606 Eh     change       -0.1675268E-06 Eh
 * total energy  :  -135.7242608 Eh     change       -0.1993590E-06 Eh
 * total energy  :  -135.7242611 Eh     change       -0.2569030E-06 Eh
 * total energy  :  -135.7242613 Eh     change       -0.2474214E-06 Eh
 * total energy  :  -135.7242615 Eh     change       -0.2192444E-06 Eh
 * total energy  :  -135.7242617 Eh     change       -0.1705879E-06 Eh
 * total energy  :  -135.7242617 Eh     change       -0.1926566E-08 Eh
   *** GEOMETRY OPTIMIZATION CONVERGED AFTER 94 ITERATIONS ***

 final structure:
================
83
 xtb: 6.7.1 (edcfbbe)
O            0.17079244044200       -2.80411220387556       -2.11306824385724
P            0.53962186042737       -2.46689409475132       -0.73226122398123
C           -0.85665611157892       -2.41002554729589        0.43523579509187
C           -0.79300509513971       -1.79514593710705        1.67779583192204
C           -1.87089681335528       -1.87725122489445        2.53898122884699
C           -3.00003215675663       -2.59401076332872        2.17563194559260
C           -3.05654926230555       -3.22401523205449        0.94303856539491
C           -1.98695845571901       -3.12631792750224        0.07102461419724
C            1.60158466434174       -3.74218729076096        0.02295745542018
C            1.81634045760653       -4.89644010770900       -0.71555791380151
C            2.58215181434888       -5.92352146448777       -0.19247103358840
C            3.12995593435668       -5.79706906451920        1.07287728556980
C            2.91289885695780       -4.64529332647472        1.81417979855112
C            2.14812620465189       -3.61849195267132        1.29413179985221
C            1.51831669091967       -0.92654232596334       -0.56235296687943
C            2.87237267584602       -1.07814837500422       -0.68853418864120
C            3.73971892820409        0.02460991307494       -0.54887964693615
N            5.06062460260304       -0.14235857766415       -0.67307609377283
C            5.83003885336284        0.91925741934868       -0.51777686892290
C            5.26457518921076        2.21476498327121       -0.21494120260650
N            3.96185455397297        2.38001055567269       -0.08431119426607
C            3.17824314600268        1.30597457355262       -0.25001130973638
C            1.78083991540474        1.43587198100942       -0.14888101510063
C            0.95009699799373        0.35485340641740       -0.32453014004482
C           -0.50263183702337        0.54003998697772       -0.28988361949801
C           -1.30879651302788       -0.00032603458758       -1.28985780425588
C           -2.66892990777313        0.22304182547219       -1.29625890763484
C           -3.27107025083664        0.97855156728520       -0.28801103669562
N           -4.64179166562766        1.22688847463871       -0.29698751576275
C           -5.53618806724880        0.28956074577873       -0.83045929528265
C           -6.64818044239657        0.71033385193334       -1.55901197389599
C           -7.53286487094051       -0.21716735137086       -2.07411034687612
C           -7.32088290886586       -1.57232560169542       -1.88070964726110
C           -6.21515899959764       -1.99409409408362       -1.16084144666633
C           -5.32991889026977       -1.07459075653192       -0.63310043361604
C           -5.14129106675309        2.43919124020306        0.20068543219096
C           -4.46843626316853        3.63714918771809       -0.03654809854573
C           -4.97078867804498        4.82586744905250        0.45615602931011
C           -6.15058695417387        4.84226657424633        1.18207345928865
C           -6.82606588100268        3.65551457500826        1.41503241784695
C           -6.32726532849490        2.46071647051300        0.93346380734506
C           -2.46554235925563        1.50066296783689        0.72736719033546
C           -1.10358222820801        1.29884282100485        0.71333112311066
C            6.15564082261233        3.30675808461851       -0.05914622193035
S            5.68077694981930        4.93059701895393        0.30367962971231
C            7.32817238248535        5.43272062075260        0.28277450125824
C            8.19629204808203        4.42564217585903        0.01504568007510
C            7.53689962665356        3.18736163006224       -0.18593209177109
C            8.09455770649823        1.90852819821724       -0.48514926494079
C            9.45272279029639        1.54344755224630       -0.66016692684968
C            9.59832384667181        0.22361976233859       -0.93627299921461
S            8.10514799306588       -0.63352694741967       -0.99688948094611
C            7.23918417804588        0.82094315456003       -0.63988502955416
H            0.08847432267639       -1.23917412728225        1.96288082625095
H           -1.83027117429552       -1.38596930729457        3.50018481496106
H           -3.83759313896438       -2.66034335788198        2.85463012643764
H           -3.93177808167433       -3.79371676294928        0.66614447714638
H           -2.01245600873892       -3.59341365138292       -0.90318569901550
H            1.38113569107355       -4.96638071378959       -1.70216646362005
H            2.75257350000248       -6.82018516763455       -0.77011523002960
H            3.72911319145498       -6.59595015349319        1.48468574867896
H            3.34332057431766       -4.54948896270971        2.80045049144656
H            1.98318668655607       -2.71799352317199        1.86752778933799
H            3.30805882576595       -2.04760971882320       -0.88765693228343
H            1.37771514197696        2.41997110308521        0.03664609822619
H           -0.85763548511085       -0.55778154117098       -2.09632170021341
H           -3.27378873278688       -0.17570630673143       -2.09663502990909
H           -6.81035156257433        1.76607263082548       -1.72031725934445
H           -8.38925135727688        0.12120156449705       -2.63863007406337
H           -8.01208694988667       -2.29405987270324       -2.28870416355138
H           -6.04429758145214       -3.04885363815953       -1.00290555718016
H           -4.47309307663854       -1.40314528715337       -0.06394809024265
H           -3.55471781618610        3.62771730082096       -0.61255289689825
H           -4.44158210485087        5.74747041758728        0.26338854246024
H           -6.54162289342392        5.77369478967552        1.56237177548299
H           -7.74493576668300        3.65852467344423        1.98273694303036
H           -6.85115818814546        1.53478456355202        1.12102453307544
H           -2.91894298421736        2.07023200163587        1.52519753996714
H           -0.49585798078815        1.70934516980822        1.50680749632314
H            7.55957352688913        6.46242286455580        0.47327864115999
H            9.26218375394835        4.55209306457489       -0.03878265721906
H           10.27308435076823        2.23346051760824       -0.58333504710217
H           10.51119819496779       -0.31094913518951       -1.11228645086900

          :  Hamiltonian                  GFN2-xTB          :
         :: gradient norm              0.000032627681 Eh/a0 ::
         :: HOMO-LUMO gap              1.121954799182 eV    ::
         :: SCC energy              -138.100279995690 Eh    ::
         :: -> dispersion             -0.134311316713 Eh    ::
         :: repulsion energy           2.376018283466 Eh    ::

    * Orbital Energies and Occupations

         #    Occupation            Energy/Eh            Energy/eV
      -------------------------------------------------------------
         1        2.0000           -0.7356508             -20.0181
       ...           ...                  ...                  ...
       114        2.0000           -0.4124178             -11.2225
       115        2.0000           -0.4090223             -11.1301
       116        2.0000           -0.4080851             -11.1046
       117        2.0000           -0.4067939             -11.0694
       118        2.0000           -0.4054689             -11.0334
       119        2.0000           -0.4043221             -11.0022
       120        2.0000           -0.4002158             -10.8904
       121        2.0000           -0.3986571             -10.8480
       122        2.0000           -0.3956001             -10.7648
       123        2.0000           -0.3876580             -10.5487
       124        2.0000           -0.3826050             -10.4112
       125        2.0000           -0.3542579              -9.6398
       126        2.0000           -0.3501933              -9.5292 (HOMO)
       127                         -0.3089622              -8.4073 (LUMO)
       128                         -0.2720932              -7.4040
       129                         -0.2552974              -6.9470
       130                         -0.2457476              -6.6871
       131                         -0.2414191              -6.5693
       132                         -0.2350839              -6.3970
       133                         -0.2339481              -6.3661
       134                         -0.2313592              -6.2956
       135                         -0.2300656              -6.2604
       136                         -0.2274304              -6.1887
       137                         -0.2223737              -6.0511
       ...                                ...                  ...
       257                          1.2324205              33.5359
      -------------------------------------------------------------
                  HL-Gap            0.0412311 Eh            1.1220 eV

     #   Z          covCN         q      C6AA      α(0)
     1   8 O        0.808    -0.355    20.818     6.116
     2  15 P        4.089     0.059   157.619    22.552
     3   6 C        2.921     0.015    27.679     8.628
     4   6 C        2.971    -0.023    28.584     8.770
     5   6 C        2.920    -0.028    28.697     8.785
     6   6 C        2.921    -0.026    28.662     8.779
     7   6 C        2.919    -0.027    28.674     8.781
     8   6 C        3.038    -0.022    28.509     8.758
     9   6 C        2.921     0.011    27.781     8.643
    10   6 C        3.027    -0.020    28.482     8.754
    11   6 C        2.919    -0.027    28.672     8.781
    12   6 C        2.921    -0.025    28.618     8.773
    13   6 C        2.920    -0.027    28.675     8.781
    14   6 C        2.973    -0.025    28.620     8.775
    15   6 C        2.917     0.013    27.717     8.633
    16   6 C        3.048    -0.032    28.747     8.794
    17   6 C        2.969     0.082    26.166     8.390
    18   7 N        1.847    -0.236    27.023     7.704
    19   6 C        2.985     0.080    26.206     8.397
    20   6 C        2.983     0.082    26.175     8.392
    21   7 N        1.848    -0.239    27.090     7.714
    22   6 C        2.966     0.083    26.140     8.386
    23   6 C        2.925    -0.049    29.208     8.863
    24   6 C        3.008     0.017    27.613     8.620
    25   6 C        2.980     0.002    27.974     8.676
    26   6 C        2.925    -0.029    28.728     8.790
    27   6 C        2.921    -0.048    29.183     8.859
    28   6 C        2.922     0.065    26.539     8.448
    29   7 N        2.752    -0.073    22.653     7.069
    30   6 C        2.925     0.065    26.552     8.450
    31   6 C        2.922    -0.047    29.158     8.855
    32   6 C        2.920    -0.029    28.723     8.789
    33   6 C        2.919    -0.037    28.929     8.820
    34   6 C        2.920    -0.028    28.696     8.785
    35   6 C        2.922    -0.048    29.189     8.860
    36   6 C        2.926     0.065    26.543     8.449
    37   6 C        2.922    -0.046    29.145     8.853
    38   6 C        2.920    -0.029    28.721     8.788
    39   6 C        2.919    -0.037    28.929     8.820
    40   6 C        2.919    -0.029    28.725     8.789
    41   6 C        2.923    -0.046    29.150     8.854
    42   6 C        2.921    -0.050    29.239     8.867
    43   6 C        2.923    -0.033    28.834     8.806
    44   6 C        3.010     0.003    27.943     8.671
    45  16 S        2.273     0.016   140.416    19.944
    46   6 C        2.942    -0.018    28.468     8.751
    47   6 C        3.083    -0.047    29.076     8.840
    48   6 C        3.155    -0.004    27.815     8.624
    49   6 C        3.156    -0.005    27.831     8.626
    50   6 C        3.083    -0.047    29.078     8.840
    51   6 C        2.942    -0.019    28.473     8.752
    52  16 S        2.272     0.016   140.403    19.943
    53   6 C        3.010     0.003    27.930     8.669
    54   1 H        0.926     0.035     2.516     2.481
    55   1 H        0.926     0.036     2.506     2.476
    56   1 H        0.926     0.037     2.489     2.467
    57   1 H        0.926     0.039     2.457     2.451
    58   1 H        0.926     0.061     2.191     2.315
    59   1 H        0.926     0.064     2.148     2.292
    60   1 H        0.926     0.039     2.456     2.451
    61   1 H        0.926     0.037     2.483     2.464
    62   1 H        0.926     0.036     2.507     2.476
    63   1 H        0.926     0.035     2.514     2.479
    64   1 H        0.925     0.061     2.183     2.310
    65   1 H        0.926     0.057     2.229     2.335
    66   1 H        0.926     0.066     2.131     2.283
    67   1 H        0.926     0.039     2.461     2.453
    68   1 H        0.926     0.032     2.560     2.502
    69   1 H        0.926     0.033     2.550     2.497
    70   1 H        0.926     0.032     2.563     2.503
    71   1 H        0.926     0.031     2.573     2.508
    72   1 H        0.926     0.033     2.542     2.493
    73   1 H        0.926     0.034     2.537     2.491
    74   1 H        0.926     0.033     2.539     2.492
    75   1 H        0.926     0.032     2.563     2.503
    76   1 H        0.926     0.033     2.550     2.497
    77   1 H        0.926     0.032     2.558     2.501
    78   1 H        0.926     0.034     2.534     2.489
    79   1 H        0.926     0.034     2.535     2.490
    80   1 H        0.926     0.053     2.281     2.362
    81   1 H        0.926     0.045     2.379     2.412
    82   1 H        0.926     0.045     2.380     2.412
    83   1 H        0.926     0.053     2.280     2.361

molecular dipole:
                 x           y           z       tot (Debye)
 q only:        0.143       0.402       1.267
   full:        0.458       0.521       1.525       4.257

 projected vibrational frequencies (cm⁻¹)
eigval :       -0.00    -0.00     0.00     0.00     0.00     0.00
eigval :       11.46    12.07    13.78    19.30    23.01    26.25
eigval :       31.79    42.48    50.03    54.81    61.23    64.50
eigval :       66.92    72.61    79.55    82.13    87.96    91.53
eigval :      111.66   118.34   127.79   136.86   141.71   158.91
eigval :      160.21   179.17   189.26   200.84   219.95   225.85
eigval :      232.85   236.07   240.72   272.73   276.89   288.40
eigval :      305.00   306.35   334.90   336.18   343.05   354.82
eigval :      361.94   371.95   372.63   378.41   380.78   383.74
eigval :      389.87   392.89   404.62   414.37   421.38   438.94
eigval :      446.66   449.31   455.58   476.93   486.65   491.02
eigval :      497.20   503.89   512.73   528.48   562.60   578.74
eigval :      585.27   585.56   586.48   586.67   588.71   594.99
eigval :      601.34   604.19   607.04   633.69   650.16   654.35
eigval :      656.02   661.05   661.95   668.32   684.74   690.02
eigval :      692.25   700.77   706.67   712.73   734.32   740.14
eigval :      748.61   756.92   757.93   759.27   762.77   764.83
eigval :      769.36   815.47   820.09   826.92   832.03   841.57
eigval :      845.92   850.79   869.66   874.10   875.74   876.83
eigval :      879.01   882.32   893.93   894.76   899.61   905.13
eigval :      906.23   910.13   912.69   919.41   925.39   926.89
eigval :      928.08   929.16   930.05   930.23   931.99   933.66
eigval :      936.28   958.77   960.83   974.22   974.99   990.30
eigval :     1006.15  1022.87  1024.82  1074.46  1076.40  1079.45
eigval :     1083.07  1085.38  1087.28  1100.07  1110.38  1117.68
eigval :     1121.86  1124.43  1125.12  1126.93  1142.84  1143.64
eigval :     1180.18  1180.60  1180.70  1180.79  1187.59  1188.67
eigval :     1193.20  1195.11  1195.66  1197.13  1211.97  1215.60
eigval :     1233.96  1254.14  1256.06  1266.87  1269.35  1273.81
eigval :     1275.38  1278.77  1280.75  1283.89  1312.52  1317.80
eigval :     1321.84  1323.07  1324.43  1327.17  1328.13  1333.45
eigval :     1341.53  1368.89  1404.17  1407.69  1415.96  1419.98
eigval :     1424.50  1426.33  1436.54  1443.10  1453.47  1456.01
eigval :     1462.48  1468.79  1471.60  1475.81  1478.88  1491.59
eigval :     1498.06  1512.24  1521.97  1538.84  1553.62  1578.01
eigval :     1579.83  1582.35  1583.84  1585.43  1587.72  1588.89
eigval :     1594.50  1594.79  1601.20  3068.12  3069.09  3072.91
eigval :     3073.60  3075.26  3076.27  3076.43  3076.89  3077.95
eigval :     3078.33  3078.69  3080.82  3084.50  3086.51  3086.67
eigval :     3087.93  3089.26  3090.50  3091.00  3091.81  3092.64
eigval :     3094.65  3094.96  3098.05  3098.84  3103.80  3133.79
eigval :     3137.70  3159.70  3159.97

   temp. (K)  partition function   enthalpy   heat capacity  entropy
                                   cal/mol     cal/K/mol   cal/K/mol   J/K/mol
 298.15  VIB  0.442E+21            25783.203    159.387    162.194
         ROT  0.135E+09              888.752      2.981     40.180
         INT  0.595E+29            26671.955    162.368    202.374
         TR   0.193E+29             1481.254      4.968     45.647
         TOT                       28153.2093   167.3361   248.0201  1037.7160

       T/K    H(0)-H(T)+PV         H(T)/Eh          T*S/Eh         G(T)/Eh
   ------------------------------------------------------------------------
    298.15    0.448650E-01    0.657506E+00    0.117842E+00    0.539663E+00
   ------------------------------------------------------------------------

         :::::::::::::::::::::::::::::::::::::::::::::::::::::
         ::                  THERMODYNAMIC                  ::
         :::::::::::::::::::::::::::::::::::::::::::::::::::::
         :: total free energy        -135.184598424128 Eh   ::
         ::.................................................::
         :: total energy             -135.724261712224 Eh   ::
         :: zero point energy           0.612640634597 Eh   ::
         :: G(RRHO) w/o ZPVE           -0.072977346501 Eh   ::
         :: G(RRHO) contrib.            0.539663288096 Eh   ::
         :::::::::::::::::::::::::::::::::::::::::::::::::::::

           -------------------------------------------------
          | TOTAL ENERGY             -135.724261712224 Eh   |
          | TOTAL ENTHALPY           -135.066756082768 Eh   |
          | TOTAL FREE ENERGY        -135.184598424128 Eh   |
          | GRADIENT NORM               0.000032627536 Eh/α |
          | HOMO-LUMO GAP               1.121954932676 eV   |
           -------------------------------------------------

 * finished run on 2025/09/11 at 09:00:33.641
