   * xtb version 6.7.1 (edcfbbe) compiled by 'albert@albert-system' on 2024-07-22

   ID    Z sym.   atoms
    1    8 O      1
    2   15 P      2
    3    6 C      3-17, 19, 20, 22-28, 30-44, 46-51, 53
    4    7 N      18, 21, 29
    5   16 S      45, 52
    6    1 H      54-83

          program call               : xtb data2507/gas/oTPAPO-DTPZ/oTPAPO-DTPZ_gas_S0_crest.xyz --gfn 2 --ohess vtight --parallel 40 --molden --ceasefiles --namespace data2507/gas/oTPAPO-DTPZ/oTPAPO-DTPZ_gas_S0_finalOpt
          :  Hamiltonian                  GFN2-xTB          :
 * total energy  :  -135.7244007 Eh     change       -0.5453956E-08 Eh
 * total energy  :  -135.7244018 Eh     change       -0.1013403E-05 Eh
 * total energy  :  -135.7244029 Eh     change       -0.1129130E-05 Eh
 * total energy  :  -135.7244046 Eh     change       -0.1680405E-05 Eh
 * total energy  :  -135.7244056 Eh     change       -0.1080965E-05 Eh
 * total energy  :  -135.7244069 Eh     change       -0.1219977E-05 Eh
 * total energy  :  -135.7244083 Eh     change       -0.1392985E-05 Eh
 * total energy  :  -135.7244095 Eh     change       -0.1234392E-05 Eh
 * total energy  :  -135.7244105 Eh     change       -0.1050882E-05 Eh
 * total energy  :  -135.7244116 Eh     change       -0.1065570E-05 Eh
 * total energy  :  -135.7244143 Eh     change       -0.5096438E-06 Eh
 * total energy  :  -135.7244147 Eh     change       -0.3957839E-06 Eh
 * total energy  :  -135.7244150 Eh     change       -0.3331020E-06 Eh
 * total energy  :  -135.7244153 Eh     change       -0.3109147E-06 Eh
 * total energy  :  -135.7244157 Eh     change       -0.3559445E-06 Eh
 * total energy  :  -135.7244160 Eh     change       -0.3419946E-06 Eh
 * total energy  :  -135.7244163 Eh     change       -0.3059429E-06 Eh
 * total energy  :  -135.7244166 Eh     change       -0.2441125E-06 Eh
 * total energy  :  -135.7244166 Eh     change       -0.4018460E-08 Eh
   *** GEOMETRY OPTIMIZATION CONVERGED AFTER 22 ITERATIONS ***

 final structure:
================
83
 xtb: 6.7.1 (edcfbbe)
O           -0.75613124925066       -2.70269654661795       -2.22792094214017
P           -0.43737549476984       -2.47874172217611       -0.81212379900408
C           -1.89190276035108       -2.36921663534967        0.27861979151696
C           -1.81808771163509       -1.96681330826356        1.60472130391083
C           -2.94858078294266       -2.01328039783896        2.39808854079358
C           -4.15017270305053       -2.46558892762936        1.87367662898550
C           -4.22601251578956       -2.85926154165146        0.54788900282559
C           -3.09525870076264       -2.81589257688611       -0.24670954041275
C            0.46871630335308       -3.88423939357192       -0.08359367935964
C            0.49477837486310       -5.05359414909767       -0.82957359594272
C            1.12284638959294       -6.18217747216345       -0.33315626884035
C            1.72277945572402       -6.14248409506925        0.91410624243052
C            1.69652885047419       -4.97528200778705        1.66220395411945
C            1.06904381075884       -3.84709919695909        1.16865879312216
C            0.66057346753339       -1.04214553907120       -0.50918776545659
C            1.99919744638992       -1.30261913925745       -0.62226399006888
C            2.95443060532508       -0.29175679607773       -0.39091603883380
N            4.25904481361219       -0.56568973007114       -0.49722803652899
C            5.11256773997402        0.41206899358476       -0.25539390153665
C            4.65276562474535        1.73076579208665        0.11823115268597
N            3.36609448702914        2.00078426688615        0.23188940658207
C            2.49767111849989        1.01202008924757       -0.01926986580216
C            1.11446480977110        1.25680927248774        0.06411576450245
C            0.19876257499482        0.26541296113509       -0.19579034920073
C           -1.23482529378049        0.56653344472221       -0.17304441917246
C           -1.79658998179171        1.31119593641969        0.86235246707283
C           -3.14232965153488        1.60479133650504        0.87255188335938
C           -3.97156110976457        1.16655204130307       -0.16272434580883
N           -5.33293340324328        1.46539286468408       -0.15938248862443
C           -6.01067168324216        1.67743519408464       -1.36925735655756
C           -5.40681485055193        2.38887820145842       -2.40494808769742
C           -6.08292208890569        2.59665868046011       -3.59149607256625
C           -7.36857043321366        2.10948902943489       -3.76133214403145
C           -7.97446446819993        1.40628525271059       -2.73316757535532
C           -7.30308823424831        1.18598977964688       -1.54607214486911
C           -6.03909417138774        1.56025100976330        1.04572561848806
C           -5.74822964284509        0.70166250154159        2.10515723275187
C           -6.44907958157158        0.79793454466098        3.29126106826195
C           -7.45256835331714        1.74142662624447        3.43997084269813
C           -7.74802772072438        2.59390131513091        2.38886043311102
C           -7.04760660323550        2.51091543367319        1.20106565894735
C           -3.40632194255649        0.43462465149732       -1.20843714472179
C           -2.05948055352535        0.14192015959942       -1.21262453914849
C            5.62984431713357        2.72873545054727        0.36328062976125
S            5.28660627185431        4.36241818437801        0.81849255215538
C            6.97103253523487        4.71855786486218        0.86611411203917
C            7.75636730938476        3.65771302935013        0.55399180279215
C            6.99867262808242        2.49672386725331        0.25988620167036
C            7.45215020628707        1.19461223972876       -0.10731895132598
C            8.77820061535123        0.72293329471085       -0.27335221323595
C            8.81725807605216       -0.58520198412781       -0.62928751217851
S            7.25810137915148       -1.30234021212061       -0.77935901848225
C            6.51092090962405        0.19798512767619       -0.35092562789190
H           -0.88387902070096       -1.60668523424549        2.01038085083251
H           -2.89495736454800       -1.69748304907291        3.43012419672339
H           -5.02871948445795       -2.51287720828487        2.50102662519107
H           -5.16437274803027       -3.20353720544676        0.13847451096419
H           -3.12566760927914       -3.11833126746684       -1.28364419101535
H            0.02644494062144       -5.05492139421898       -1.80338253582808
H            1.14603663629378       -7.09022935844281       -0.91763315080643
H            2.21544129540504       -7.02056362911793        1.30529262893776
H            2.16973453385181       -4.94607507197567        2.63297875880361
H            1.05992180005142       -2.93461771996114        1.74689071578515
H            2.35379949716159       -2.29103552786186       -0.88078259814194
H            0.79335554566718        2.25876456456295        0.30556564340663
H           -1.17083816575521        1.65154601921520        1.67463200274034
H           -3.56167759181568        2.18550629397724        1.68084152141225
H           -4.40814966695535        2.77779937912688       -2.27025965015431
H           -5.60507002627614        3.15065140835680       -4.38594565848988
H           -7.89481737211346        2.27689824855418       -4.68873961254685
H           -8.97485391737780        1.01889446303253       -2.85870200435613
H           -7.77333967714072        0.63085667690250       -0.74747929823799
H           -4.97353822750471       -0.04081757093944        1.98427520438434
H           -6.21502209610578        0.12520099648282        4.10359499390981
H           -8.00025891641950        1.81178101105036        4.36745046559247
H           -8.52527278336964        3.33605276890082        2.49694336554778
H           -7.27474754655891        3.18313857879682        0.38663200985280
H           -4.03260195848061        0.09173351086973       -2.01815312398691
H           -1.63538375653711       -0.40227629648870       -2.04282345507996
H            7.28482889701383        5.71033727331450        1.12693708734924
H            8.83026054019216        3.69344358043759        0.53186707346438
H            9.65248880836659        1.33210219729637       -0.13355092009874
H            9.68532878739672       -1.18617954483751       -0.81734114355111

          :  Hamiltonian                  GFN2-xTB          :
         :: gradient norm              0.000039480050 Eh/a0 ::
         :: HOMO-LUMO gap              1.124248807080 eV    ::
         :: SCC energy              -138.100432218483 Eh    ::
         :: -> dispersion             -0.134478204572 Eh    ::
         :: repulsion energy           2.376015647521 Eh    ::

    * Orbital Energies and Occupations

         #    Occupation            Energy/Eh            Energy/eV
      -------------------------------------------------------------
         1        2.0000           -0.7357313             -20.0203
       ...           ...                  ...                  ...
       114        2.0000           -0.4121425             -11.2150
       115        2.0000           -0.4091575             -11.1337
       116        2.0000           -0.4079710             -11.1015
       117        2.0000           -0.4074440             -11.0871
       118        2.0000           -0.4054431             -11.0327
       119        2.0000           -0.4043454             -11.0028
       120        2.0000           -0.4004163             -10.8959
       121        2.0000           -0.3986387             -10.8475
       122        2.0000           -0.3952512             -10.7553
       123        2.0000           -0.3875646             -10.5462
       124        2.0000           -0.3825491             -10.4097
       125        2.0000           -0.3543937              -9.6435
       126        2.0000           -0.3504461              -9.5361 (HOMO)
       127                         -0.3091308              -8.4119 (LUMO)
       128                         -0.2722361              -7.4079
       129                         -0.2558559              -6.9622
       130                         -0.2461134              -6.6971
       131                         -0.2414296              -6.5696
       132                         -0.2348109              -6.3895
       133                         -0.2335411              -6.3550
       134                         -0.2315790              -6.3016
       135                         -0.2300907              -6.2611
       136                         -0.2276064              -6.1935
       137                         -0.2227064              -6.0602
       ...                                ...                  ...
       257                          1.2347326              33.5988
      -------------------------------------------------------------
                  HL-Gap            0.0413154 Eh            1.1242 eV

     #   Z          covCN         q      C6AA      α(0)
     1   8 O        0.808    -0.355    20.827     6.117
     2  15 P        4.090     0.056   157.754    22.562
     3   6 C        2.921     0.015    27.668     8.626
     4   6 C        2.973    -0.024    28.606     8.773
     5   6 C        2.920    -0.028    28.705     8.786
     6   6 C        2.921    -0.026    28.649     8.777
     7   6 C        2.919    -0.028    28.690     8.784
     8   6 C        3.033    -0.021    28.503     8.757
     9   6 C        2.920     0.011    27.766     8.641
    10   6 C        3.033    -0.020    28.477     8.753
    11   6 C        2.919    -0.027    28.672     8.781
    12   6 C        2.921    -0.025    28.620     8.773
    13   6 C        2.920    -0.027    28.677     8.782
    14   6 C        2.969    -0.024    28.606     8.773
    15   6 C        2.917     0.014    27.705     8.631
    16   6 C        3.050    -0.031    28.733     8.791
    17   6 C        2.969     0.082    26.166     8.390
    18   7 N        1.847    -0.236    27.018     7.704
    19   6 C        2.985     0.080    26.204     8.397
    20   6 C        2.983     0.082    26.175     8.392
    21   7 N        1.848    -0.239    27.086     7.713
    22   6 C        2.967     0.083    26.139     8.386
    23   6 C        2.925    -0.048    29.200     8.862
    24   6 C        3.007     0.017    27.615     8.620
    25   6 C        2.980     0.002    27.975     8.676
    26   6 C        2.923    -0.034    28.837     8.806
    27   6 C        2.921    -0.050    29.232     8.866
    28   6 C        2.923     0.065    26.537     8.448
    29   7 N        2.752    -0.073    22.658     7.070
    30   6 C        2.925     0.065    26.546     8.449
    31   6 C        2.922    -0.046    29.133     8.851
    32   6 C        2.920    -0.028    28.705     8.786
    33   6 C        2.919    -0.037    28.914     8.818
    34   6 C        2.920    -0.029    28.718     8.788
    35   6 C        2.922    -0.046    29.142     8.853
    36   6 C        2.925     0.065    26.548     8.450
    37   6 C        2.922    -0.049    29.222     8.865
    38   6 C        2.920    -0.029    28.725     8.789
    39   6 C        2.919    -0.038    28.952     8.824
    40   6 C        2.920    -0.029    28.726     8.789
    41   6 C        2.922    -0.047    29.168     8.857
    42   6 C        2.921    -0.048    29.186     8.859
    43   6 C        2.926    -0.029    28.731     8.790
    44   6 C        3.010     0.003    27.943     8.671
    45  16 S        2.273     0.016   140.406    19.943
    46   6 C        2.942    -0.018    28.468     8.751
    47   6 C        3.083    -0.047    29.075     8.840
    48   6 C        3.155    -0.004    27.815     8.624
    49   6 C        3.156    -0.004    27.830     8.626
    50   6 C        3.083    -0.047    29.078     8.840
    51   6 C        2.942    -0.019    28.473     8.752
    52  16 S        2.272     0.016   140.386    19.942
    53   6 C        3.010     0.003    27.931     8.669
    54   1 H        0.926     0.035     2.512     2.478
    55   1 H        0.926     0.035     2.510     2.478
    56   1 H        0.926     0.038     2.473     2.459
    57   1 H        0.926     0.039     2.467     2.456
    58   1 H        0.926     0.062     2.177     2.307
    59   1 H        0.926     0.064     2.154     2.295
    60   1 H        0.926     0.039     2.458     2.452
    61   1 H        0.926     0.037     2.484     2.465
    62   1 H        0.926     0.036     2.504     2.475
    63   1 H        0.926     0.034     2.524     2.485
    64   1 H        0.925     0.062     2.171     2.304
    65   1 H        0.926     0.058     2.225     2.333
    66   1 H        0.926     0.034     2.524     2.484
    67   1 H        0.926     0.035     2.520     2.482
    68   1 H        0.926     0.033     2.538     2.491
    69   1 H        0.926     0.034     2.529     2.487
    70   1 H        0.926     0.032     2.554     2.499
    71   1 H        0.926     0.033     2.546     2.495
    72   1 H        0.926     0.032     2.562     2.503
    73   1 H        0.926     0.033     2.546     2.495
    74   1 H        0.926     0.030     2.589     2.516
    75   1 H        0.926     0.031     2.576     2.510
    76   1 H        0.926     0.032     2.553     2.499
    77   1 H        0.926     0.032     2.556     2.500
    78   1 H        0.926     0.038     2.475     2.460
    79   1 H        0.926     0.066     2.125     2.280
    80   1 H        0.926     0.053     2.280     2.361
    81   1 H        0.926     0.045     2.379     2.412
    82   1 H        0.926     0.045     2.379     2.412
    83   1 H        0.926     0.053     2.279     2.361

molecular dipole:
                 x           y           z       tot (Debye)
 q only:        0.124       0.309       1.226
   full:        0.428       0.373       1.497       4.070

 projected vibrational frequencies (cm⁻¹)
eigval :       -0.00    -0.00    -0.00     0.00     0.00     0.00
eigval :       10.13    12.12    13.96    20.09    22.33    25.13
eigval :       33.23    42.16    48.76    54.66    59.07    63.09
eigval :       66.99    71.22    79.63    84.35    87.36    93.38
eigval :      115.77   118.48   126.31   138.71   141.22   159.39
eigval :      162.72   180.48   191.82   200.50   218.10   223.18
eigval :      235.65   237.66   240.33   274.31   279.99   287.80
eigval :      304.52   306.55   332.70   336.17   343.70   354.34
eigval :      361.16   368.48   377.60   379.47   380.71   382.85
eigval :      385.58   390.47   404.02   410.79   426.58   439.57
eigval :      446.88   449.66   455.22   475.62   487.14   491.42
eigval :      497.06   503.68   513.25   528.18   563.04   579.28
eigval :      585.15   585.49   585.78   586.55   588.72   592.83
eigval :      601.88   603.82   611.14   632.37   650.37   654.24
eigval :      655.48   660.60   662.17   668.69   685.16   689.20
eigval :      691.86   700.78   706.35   711.90   734.71   739.79
eigval :      748.75   757.01   758.24   759.63   762.83   765.04
eigval :      769.42   816.36   820.21   826.95   832.06   841.25
eigval :      846.01   851.88   871.22   872.81   875.74   877.40
eigval :      880.10   881.17   893.73   894.25   899.69   905.07
eigval :      907.77   909.91   913.09   919.64   924.37   927.59
eigval :      927.96   928.85   929.32   929.98   931.47   933.63
eigval :      940.10   958.84   961.07   974.07   974.70   990.32
eigval :     1006.00  1022.79  1024.86  1074.43  1075.96  1079.80
eigval :     1083.05  1084.93  1086.85  1100.06  1110.32  1118.47
eigval :     1121.83  1124.24  1124.68  1126.59  1142.76  1143.59
eigval :     1178.88  1180.60  1180.73  1182.21  1187.72  1188.75
eigval :     1192.72  1195.16  1195.90  1198.06  1212.19  1215.43
eigval :     1234.09  1254.00  1255.87  1266.72  1269.07  1274.15
eigval :     1275.32  1278.79  1280.76  1283.83  1313.15  1318.37
eigval :     1321.24  1322.75  1324.64  1326.85  1328.86  1333.37
eigval :     1341.41  1368.83  1404.22  1407.05  1415.79  1420.10
eigval :     1424.42  1426.85  1436.48  1443.21  1453.33  1456.11
eigval :     1462.58  1468.75  1471.63  1476.01  1478.82  1491.68
eigval :     1498.15  1512.27  1522.07  1538.92  1555.05  1577.92
eigval :     1580.81  1582.33  1583.70  1585.26  1587.89  1589.16
eigval :     1594.63  1595.25  1601.61  3067.16  3068.75  3071.91
eigval :     3074.27  3074.99  3076.25  3076.59  3076.96  3077.76
eigval :     3078.43  3078.55  3080.52  3084.42  3086.46  3086.53
eigval :     3088.11  3089.62  3090.40  3090.77  3091.10  3092.56
eigval :     3094.78  3095.07  3098.30  3098.63  3101.40  3133.82
eigval :     3137.78  3159.70  3160.01

   temp. (K)  partition function   enthalpy   heat capacity  entropy
                                   cal/mol     cal/K/mol   cal/K/mol   J/K/mol
 298.15  VIB  0.493E+21            25778.058    159.312    162.181
         ROT  0.134E+09              888.752      2.981     40.172
         INT  0.662E+29            26666.810    162.293    202.353
         TR   0.193E+29             1481.254      4.968     45.647
         TOT                       28148.0640   167.2610   248.0000  1037.6320

       T/K    H(0)-H(T)+PV         H(T)/Eh          T*S/Eh         G(T)/Eh
   ------------------------------------------------------------------------
    298.15    0.448568E-01    0.657514E+00    0.117833E+00    0.539681E+00
   ------------------------------------------------------------------------

         :::::::::::::::::::::::::::::::::::::::::::::::::::::
         ::                  THERMODYNAMIC                  ::
         :::::::::::::::::::::::::::::::::::::::::::::::::::::
         :: total free energy        -135.184735157838 Eh   ::
         ::.................................................::
         :: total energy             -135.724416570960 Eh   ::
         :: zero point energy           0.612657414863 Eh   ::
         :: G(RRHO) w/o ZPVE           -0.072976001741 Eh   ::
         :: G(RRHO) contrib.            0.539681413122 Eh   ::
         :::::::::::::::::::::::::::::::::::::::::::::::::::::

           -------------------------------------------------
          | TOTAL ENERGY             -135.724416570960 Eh   |
          | TOTAL ENTHALPY           -135.066902360793 Eh   |
          | TOTAL FREE ENERGY        -135.184735157838 Eh   |
          | GRADIENT NORM               0.000039488890 Eh/α |
          | HOMO-LUMO GAP               1.124249165601 eV   |
           -------------------------------------------------

 * finished run on 2025/09/11 at 09:09:49.908
