   * xtb version 6.7.1 (edcfbbe) compiled by 'albert@albert-system' on 2024-07-22

   ID    Z sym.   atoms
    1    8 O      1
    2   15 P      2
    3    6 C      3-17, 19, 20, 22-28, 30-44, 46-51, 53
    4    7 N      18, 21, 29
    5   16 S      45, 52
    6    1 H      54-83

          program call               : xtb data2507/gas/oTPAPO-DTPZ/oTPAPO-DTPZ_gas_T1_crest.xyz --gfn 2 --spinpol --tblite --uhf 2 --ohess vtight --parallel 40 --molden --ceasefiles --namespace data2507/gas/oTPAPO-DTPZ/oTPAPO-DTPZ_gas_T1_finalOpt
 * total energy  :  -135.6836033 Eh     change       -0.1186783E-07 Eh
 * total energy  :  -135.6836224 Eh     change       -0.1914946E-04 Eh
 * total energy  :  -135.6836267 Eh     change       -0.4284775E-05 Eh
 * total energy  :  -135.6836283 Eh     change       -0.1536356E-05 Eh
 * total energy  :  -135.6836300 Eh     change       -0.1781241E-05 Eh
 * total energy  :  -135.6836317 Eh     change       -0.1667205E-05 Eh
 * total energy  :  -135.6836342 Eh     change       -0.2531883E-05 Eh
 * total energy  :  -135.6836366 Eh     change       -0.2373670E-05 Eh
 * total energy  :  -135.6836376 Eh     change       -0.9743827E-06 Eh
 * total energy  :  -135.6836390 Eh     change       -0.1393254E-05 Eh
 * total energy  :  -135.6836428 Eh     change       -0.2963905E-06 Eh
 * total energy  :  -135.6836432 Eh     change       -0.3436571E-06 Eh
 * total energy  :  -135.6836436 Eh     change       -0.3902897E-06 Eh
 * total energy  :  -135.6836440 Eh     change       -0.4424091E-06 Eh
 * total energy  :  -135.6836442 Eh     change       -0.1460224E-06 Eh
 * total energy  :  -135.6836444 Eh     change       -0.2335074E-06 Eh
 * total energy  :  -135.6836441 Eh     change        0.2831142E-06 Eh
 * total energy  :  -135.6836445 Eh     change       -0.3681515E-06 Eh
 * total energy  :  -135.6836446 Eh     change       -0.8421819E-07 Eh
   *** GEOMETRY OPTIMIZATION CONVERGED AFTER 26 ITERATIONS ***

 final structure:
================
83
 xtb: 6.7.1 (edcfbbe)
O           -0.76461173769953       -2.70642670513950       -2.27341543097089
P           -0.44644321274667       -2.48894829182514       -0.85577188265366
C           -1.90866205912169       -2.40163631141066        0.22877619913552
C           -1.84378073224887       -2.02064313949951        1.56162664571600
C           -2.97889094635886       -2.08082700968732        2.34754598546100
C           -4.17698406663577       -2.52568702504931        1.80891553041550
C           -4.24414554230515       -2.89855801656894        0.47664557830467
C           -3.10854534607546       -2.84114894272464       -0.31022784099987
C            0.46150390151905       -3.89699420592598       -0.13359341935817
C            0.48488159497279       -5.06599670728533       -0.88008309512237
C            1.11824891710333       -6.19359836935487       -0.38814442829656
C            1.72651661091555       -6.15323056694006        0.85509751537850
C            1.70332947103586       -4.98622945467047        1.60357077249077
C            1.07049174768538       -3.85909265401015        1.11442993246160
C            0.63154429136527       -1.05114035580459       -0.52798775285317
C            1.99094309397006       -1.30105009839269       -0.63688742044276
C            2.94142319928160       -0.31642457817743       -0.38918872883907
N            4.24931524976917       -0.52801571402968       -0.48679687481327
C            5.14362492761764        0.41470550397052       -0.23860213233377
C            4.67953220448122        1.72712969869838        0.16275002003097
N            3.37722781040100        1.93969666697066        0.26725050994755
C            2.47583236963790        0.99829300592062        0.00977035354603
C            1.10600685780059        1.22267503505041        0.09052354747047
C            0.17452265560473        0.22909843590298       -0.19056444983481
C           -1.25474162493803        0.54694058753643       -0.16244667311797
C           -1.81093545272514        1.28391239227354        0.88198401362387
C           -3.15383011860275        1.59127253495939        0.89365701824699
C           -3.98325128888303        1.17400189818274       -0.14946331679607
N           -5.34345789830451        1.49141622670843       -0.14760435413208
C           -5.99646141607312        1.77220327262657       -1.35445474113710
C           -5.35240879360968        2.50184097687702       -2.35374875247844
C           -6.00283224795374        2.77797179329358       -3.54035152736614
C           -7.30082537116777        2.33976113458385       -3.74779988126876
C           -7.94536126421842        1.61635025143818       -2.75741570580689
C           -7.30148723742805        1.32942010966152       -1.56964275326747
C           -6.05714556360346        1.53606870763704        1.05337514052121
C           -5.76717403754493        0.63615112719339        2.07929781126697
C           -6.47381997333851        0.68262723314721        3.26462662464715
C           -7.48008165279938        1.61767922197654        3.44691650899910
C           -7.77275505997777        2.51257843133586        2.43041282117187
C           -7.06830804304214        2.47890768118594        1.24292048557381
C           -3.42660662629179        0.44669354176762       -1.20244738665177
C           -2.08269409509929        0.14110557637949       -1.20771958146021
C            5.64473537604438        2.70781669888495        0.42116656769159
S            5.29095997021041        4.33911455597077        0.91215289594805
C            6.97934524373563        4.70424519757461        0.96377249275765
C            7.76909937657562        3.65731785248133        0.63006621947637
C            7.02570411950098        2.49095312714107        0.31191554321860
C            7.47813797582850        1.21125809644199       -0.07884842511838
C            8.80247229016853        0.73490964329183       -0.26203553456098
C            8.84119096378473       -0.56281873464664       -0.64369286372993
S            7.27843714062775       -1.28292883159453       -0.80337583717536
C            6.52616062573063        0.21560344163474       -0.34005621066836
H           -0.91208601229953       -1.66730432564019        1.97839314605202
H           -2.93149897685687       -1.78245861134500        3.38512587563111
H           -5.05922000560341       -2.58445494003248        2.43027400442618
H           -5.17948404607823       -3.23836509640945        0.05643185670409
H           -3.13222233480714       -3.12805936051130       -1.35174992464146
H            0.01074262807089       -5.06771307379553       -1.85110609881926
H            1.13946645980413       -7.10145266677351       -0.97308808172297
H            2.22368534336797       -7.03048179592349        1.24252562327397
H            2.18351800610756       -4.95626942182929        2.57093658778414
H            1.06435413231089       -2.94622163452876        1.69204660277500
H            2.33893479839020       -2.28461745852938       -0.92043882559122
H            0.77516996202047        2.21727576868603        0.34783284866232
H           -1.18320712446859        1.60876703181965        1.69887339484637
H           -3.57038893818553        2.16768732877880        1.70664690922478
H           -4.34459545054639        2.85322495555576       -2.18863599339827
H           -5.49512967416579        3.34657730336106       -4.30514530636266
H           -7.80654044573207        2.56005859179758       -4.67541064058896
H           -8.95462740984533        1.26537152393181       -2.91383064024639
H           -7.80065364010010        0.75592386065088       -0.80233248914954
H           -4.99161707501129       -0.10034763303016        1.93101005938404
H           -6.24210657999409       -0.02197495721169        4.04986183120002
H           -8.03181134715767        1.64924360531666        4.37397712679999
H           -8.55073412097159        3.24918633508978        2.56612967607012
H           -7.29076235692884        3.18584882200143        0.45720673970150
H           -4.05738902809734        0.11811450589077       -2.01474302934720
H           -1.66172055648297       -0.40150152072996       -2.04050370862825
H            7.28287998089146        5.69372955809330        1.24431961828985
H            8.84280059448594        3.70272393445441        0.60763038294232
H            9.67818146611965        1.34031759900231       -0.11372962191119
H            9.70666357228580       -1.16207593330394       -0.84820049370693

 projected vibrational frequencies (cm⁻¹)
eigval :       -0.00    -0.00    -0.00     0.00     0.00     0.00
eigval :       10.50    12.87    14.65    20.31    22.57    25.32
eigval :       34.01    42.29    48.79    54.73    58.93    63.87
eigval :       66.71    71.45    79.65    86.81    87.73    94.04
eigval :      114.39   118.68   126.01   142.33   143.53   159.31
eigval :      163.42   179.80   191.60   194.46   212.37   220.39
eigval :      234.23   236.77   239.27   257.48   272.90   286.75
eigval :      302.00   306.65   324.85   331.33   335.02   354.08
eigval :      361.15   367.31   368.34   375.17   377.45   379.17
eigval :      383.90   390.06   404.01   411.24   427.05   434.07
eigval :      437.74   448.28   455.26   476.17   484.76   492.53
eigval :      496.69   504.76   510.29   524.94   560.73   569.91
eigval :      571.07   583.65   585.15   585.81   587.15   591.46
eigval :      600.95   601.61   604.72   612.46   630.64   650.77
eigval :      654.30   654.46   659.83   661.90   666.75   670.52
eigval :      679.97   684.40   689.38   701.09   708.93   731.85
eigval :      739.26   747.90   748.80   755.70   757.87   760.53
eigval :      762.23   806.78   810.71   816.82   824.50   825.03
eigval :      829.49   837.51   839.08   868.89   871.00   872.86
eigval :      873.91   876.62   881.29   894.55   894.95   899.60
eigval :      906.97   908.41   909.85   918.52   924.36   927.63
eigval :      927.90   928.96   929.45   929.62   930.75   933.47
eigval :      939.36   951.88   957.36   974.12   974.72   989.20
eigval :     1005.25  1016.83  1024.23  1073.46  1075.88  1079.75
eigval :     1082.69  1084.49  1090.88  1099.90  1110.03  1118.32
eigval :     1122.12  1124.17  1125.03  1126.58  1139.73  1142.00
eigval :     1178.42  1179.99  1180.59  1181.54  1184.18  1188.24
eigval :     1191.77  1194.39  1196.72  1197.15  1210.02  1211.21
eigval :     1227.14  1234.13  1252.09  1256.31  1264.27  1266.14
eigval :     1268.57  1271.80  1274.19  1277.94  1282.22  1310.24
eigval :     1315.78  1317.54  1322.28  1322.97  1324.41  1327.06
eigval :     1329.18  1353.01  1380.92  1394.53  1398.30  1410.96
eigval :     1413.42  1424.34  1426.96  1435.23  1442.20  1453.17
eigval :     1456.03  1467.63  1469.85  1471.61  1485.22  1493.16
eigval :     1498.31  1505.24  1523.83  1533.99  1541.02  1552.74
eigval :     1574.52  1578.20  1583.40  1585.22  1587.48  1587.85
eigval :     1589.21  1589.44  1598.07  3066.88  3068.87  3071.06
eigval :     3073.91  3075.63  3077.43  3078.02  3078.31  3078.79
eigval :     3079.92  3080.32  3081.08  3083.98  3086.29  3088.15
eigval :     3088.94  3089.40  3089.75  3090.08  3092.08  3092.39
eigval :     3092.51  3096.14  3099.73  3100.42  3100.81  3130.97
eigval :     3135.08  3158.88  3159.28

   temp. (K)  partition function   enthalpy   heat capacity  entropy
                                   cal/mol     cal/K/mol   cal/K/mol   J/K/mol
 298.15  VIB  0.481E+21            25957.563    160.537    162.995
         ROT  0.135E+09              888.752      2.981     40.185
         INT  0.650E+29            26846.315    163.517    203.180
         TR   0.193E+29             1481.254      4.968     45.647
         TOT                       28327.5690   168.4856   248.8266  1041.0905

       T/K    H(0)-H(T)+PV         H(T)/Eh          T*S/Eh         G(T)/Eh
   ------------------------------------------------------------------------
    298.15    0.451429E-01    0.655648E+00    0.118226E+00    0.537423E+00
   ------------------------------------------------------------------------

         :::::::::::::::::::::::::::::::::::::::::::::::::::::
         ::                  THERMODYNAMIC                  ::
         :::::::::::::::::::::::::::::::::::::::::::::::::::::
         :: total free energy        -135.146221623853 Eh   ::
         ::.................................................::
         :: total energy             -135.683644572577 Eh   ::
         :: zero point energy           0.610505641276 Eh   ::
         :: G(RRHO) w/o ZPVE           -0.073082692551 Eh   ::
         :: G(RRHO) contrib.            0.537422948725 Eh   ::
         :::::::::::::::::::::::::::::::::::::::::::::::::::::

           -------------------------------------------------
          | TOTAL ENERGY             -135.683644572577 Eh   |
          | TOTAL ENTHALPY           -135.027996076617 Eh   |
          | TOTAL FREE ENERGY        -135.146221623853 Eh   |
          | GRADIENT NORM               0.000077250595 Eh/α |
           -------------------------------------------------

 * finished run on 2025/09/11 at 09:32:21.216
