   * xtb version 6.7.1 (edcfbbe) compiled by 'albert@albert-system' on 2024-07-22

   ID    Z sym.   atoms
    1    8 O      1
    2   15 P      2
    3    6 C      3-17, 19, 20, 22-28, 30-44, 46-51, 53
    4    7 N      18, 21, 29
    5   16 S      45, 52
    6    1 H      54-83

          program call               : xtb data2507/gas/oTPAPO-DTPZ/oTPAPO-DTPZ_gas_S0_finalOpt.xtbopt.xyz --gfn 2 --spinpol --tblite --uhf 2 --ohess vtight --parallel 40 --molden --ceasefiles --namespace data2507/gas/oTPAPO-DTPZ/oTPAPO-DTPZ_gas_T1_preOpt
 * total energy  :  -135.6790853 Eh     change       -0.4043332E-07 Eh
 * total energy  :  -135.6822589 Eh     change       -0.3173603E-02 Eh
 * total energy  :  -135.6834313 Eh     change       -0.1172374E-02 Eh
 * total energy  :  -135.6835703 Eh     change       -0.1390035E-03 Eh
 * total energy  :  -135.6836196 Eh     change       -0.4930844E-04 Eh
 * total energy  :  -135.6836235 Eh     change       -0.3888518E-05 Eh
 * total energy  :  -135.6836259 Eh     change       -0.2350175E-05 Eh
 * total energy  :  -135.6836279 Eh     change       -0.2097122E-05 Eh
 * total energy  :  -135.6836302 Eh     change       -0.2205495E-05 Eh
 * total energy  :  -135.6836326 Eh     change       -0.2459919E-05 Eh
 * total energy  :  -135.6836376 Eh     change       -0.9785026E-06 Eh
 * total energy  :  -135.6836384 Eh     change       -0.7713974E-06 Eh
 * total energy  :  -135.6836390 Eh     change       -0.6648387E-06 Eh
 * total energy  :  -135.6836401 Eh     change       -0.1061770E-05 Eh
 * total energy  :  -135.6836408 Eh     change       -0.6996786E-06 Eh
 * total energy  :  -135.6836415 Eh     change       -0.7464510E-06 Eh
 * total energy  :  -135.6836422 Eh     change       -0.6651040E-06 Eh
 * total energy  :  -135.6836427 Eh     change       -0.5514246E-06 Eh
 * total energy  :  -135.6836428 Eh     change       -0.1311398E-07 Eh
   *** GEOMETRY OPTIMIZATION CONVERGED AFTER 22 ITERATIONS ***

 final structure:
================
83
 xtb: 6.7.1 (edcfbbe)
O           -0.77387937833687       -2.73903188579667       -2.22977784127656
P           -0.44699956664109       -2.49540727801395       -0.81834843338686
C           -1.90209582465680       -2.38786082011321        0.27418247525037
C           -1.83082046002054       -1.97271239501206        1.59646303011111
C           -2.96064286641726       -2.01858668358605        2.39097574508114
C           -4.15997029147757       -2.48246488604709        1.87150241630658
C           -4.23368998812987       -2.88907834204037        0.54950304272520
C           -3.10328017499141       -2.84647186475610       -0.24572857586158
C            0.46555424069649       -3.89081076762166       -0.07802351133388
C            0.50092843791777       -5.06636305235299       -0.81366075372622
C            1.13899263652624       -6.18515492831705       -0.30788102236163
C            1.73971029144532       -6.12939018244092        0.93841982603263
C            1.70448425110996       -4.95577989756577        1.67606450287397
C            1.06723168854768       -3.83733215251102        1.17296777758957
C            0.63218333401917       -1.05121483810043       -0.52310080926408
C            1.99152973076364       -1.30416766480486       -0.62538752578020
C            2.94255684575157       -0.31507572127886       -0.39841188860428
N            4.25048125076927       -0.53034174945301       -0.48753710660046
C            5.14537518188479        0.41611474096942       -0.25629041134211
C            4.68169058074459        1.73773750929242        0.11438800984119
N            3.37932360286787        1.95466529688271        0.20823925620879
C            2.47745442449315        1.00880822700575       -0.03063045724388
C            1.10773060648252        1.23612011562788        0.04276608313850
C            0.17561679671925        0.23680038875768       -0.21510077244694
C           -1.25380019111388        0.55387617504843       -0.18863004306077
C           -1.80549357943280        1.31619939850105        0.83998353793693
C           -3.14978190688256        1.61710578524985        0.85452852911899
C           -3.98621311958704        1.16606585296410       -0.16888905584269
N           -5.34860650097176        1.47251494186355       -0.16160037951389
C           -6.01947441809432        1.70394878013016       -1.36926842601156
C           -5.39638639069008        2.40552172629289       -2.40137086765674
C           -6.06391257018394        2.63112477055306       -3.58916161506021
C           -7.35858005685053        2.16994700847613       -3.76527312056477
C           -7.98271416996421        1.47519816072811       -2.74185882524087
C           -7.32154231720337        1.23873129941153       -1.55245362953240
C           -6.04925669731596        1.55269621494759        1.04543278076858
C           -5.74304348642522        0.68909308668482        2.09747259335667
C           -6.43661653359564        0.77180768737685        3.28855978166415
C           -7.44568519708908        1.70752342914206        3.45087432218571
C           -7.75493837941023        2.56595053877138        2.40817177508165
C           -7.06378457545723        2.49577356184886        1.21445932260672
C           -3.43369726965893        0.41528816330066       -1.20754432417422
C           -2.08797854413249        0.11798120950328       -1.21670220295421
C            5.64735824903625        2.72191154592486        0.35722746810934
S            5.29394814101299        4.36348926796111        0.81306043954322
C            6.98271756617196        4.72639069594996        0.86725148129668
C            7.77233521233619        3.67149367972972        0.55927669640016
C            7.02848292199038        2.50032741483949        0.26038408799883
C            7.48053118023357        1.21191545282343       -0.10112446820885
C            8.80497285432014        0.72942433321749       -0.26656905932892
C            8.84341521084397       -0.57621947466165       -0.62022476105603
S            7.28020952260685       -1.29678607082300       -0.77341654177646
C            6.52808952150030        0.21264720230847       -0.34644940672964
H           -0.89863594732793       -1.60345701536987        1.99812154249860
H           -2.90808863716284       -1.69381374671871        3.42036985964245
H           -5.03806972444401       -2.52925352623795        2.49970593011470
H           -5.17004194737255       -3.24351722893573        0.14388802924074
H           -3.13220155195332       -3.15949128956562       -1.27957625885348
H            0.03187851620904       -5.08014259357478       -1.78704434802962
H            1.16965493016405       -7.09808165139059       -0.88444747555812
H            2.24040678493214       -6.99974189192100        1.33670382598416
H            2.17869123103662       -4.91392080902622        2.64593137459238
H            1.05137648910382       -2.91936850959137        1.74219080012869
H            2.33936702326264       -2.29412337033305       -0.88590347483854
H            0.77764165899280        2.23672697110392        0.27665307438170
H           -1.17309198526293        1.66584536124699        1.64290668053655
H           -3.56228034653113        2.21352596294851        1.65504640659061
H           -4.39118122442482        2.77466647556367       -2.26097624309424
H           -5.57222792929733        3.17801162458247       -4.37982136011797
H           -7.87754128218403        2.35034203698874       -4.69418595623655
H           -8.98933721944079        1.10686970627423       -2.87344960200226
H           -7.80462795314273        0.68733005592686       -0.75908455545693
H           -4.96525418166720       -0.04806176573637        1.96509729076116
H           -6.19237983611825        0.09510911229325        4.09427950418898
H           -7.98686326192825        1.76770101350164        4.38273185960013
H           -8.53542971560096        3.30267059407463        2.52791693853141
H           -7.29918135763698        3.17432159965829        0.40775190725234
H           -4.06908361251967        0.06086126081867       -2.00522348523905
H           -1.67105526069068       -0.44256297412032       -2.03946740840830
H            7.28662671466994        5.72070642904572        1.12972624205643
H            8.84623851374462        3.71442726350147        0.54231385811993
H            9.68091982893339        1.33638345044934       -0.12619145602092
H            9.70893285816309       -1.18119993503287       -0.80692742792509

 projected vibrational frequencies (cm⁻¹)
eigval :       -0.00    -0.00    -0.00    -0.00     0.00     0.00
eigval :       10.31    12.43    14.43    20.07    22.28    24.80
eigval :       33.64    41.93    48.56    54.47    58.76    63.98
eigval :       66.83    71.10    79.62    86.97    87.71    94.03
eigval :      114.45   118.51   126.40   142.26   143.35   159.55
eigval :      163.47   179.88   191.55   194.45   212.42   220.62
eigval :      234.20   236.89   239.13   257.44   272.76   287.17
eigval :      301.93   306.83   324.82   331.43   334.99   354.06
eigval :      360.96   367.19   368.32   375.12   377.42   379.02
eigval :      383.85   390.30   403.89   411.70   427.01   434.04
eigval :      437.62   448.11   455.20   476.26   484.88   492.49
eigval :      496.66   504.81   510.30   524.92   560.87   569.84
eigval :      571.05   583.52   585.06   585.68   587.05   591.41
eigval :      600.93   601.52   604.69   612.43   630.63   650.98
eigval :      654.29   654.39   659.86   661.86   666.87   670.47
eigval :      679.92   684.39   689.26   701.00   709.01   731.81
eigval :      739.00   747.88   748.58   755.55   757.72   760.28
eigval :      762.01   806.40   810.58   816.52   824.25   824.78
eigval :      829.26   837.23   839.05   869.25   870.50   872.51
eigval :      873.79   876.24   881.08   894.42   894.78   899.31
eigval :      906.81   908.36   909.88   918.33   924.17   927.41
eigval :      927.67   928.75   929.11   929.40   930.63   933.19
eigval :      939.19   952.08   957.41   974.21   974.74   989.35
eigval :     1005.32  1016.95  1024.43  1073.07  1075.90  1079.89
eigval :     1082.73  1084.50  1090.61  1099.87  1109.90  1118.35
eigval :     1122.00  1123.96  1124.82  1126.44  1139.55  1142.00
eigval :     1177.93  1179.48  1180.05  1181.06  1184.02  1187.75
eigval :     1191.44  1193.86  1196.57  1196.66  1209.80  1210.56
eigval :     1226.74  1233.97  1251.82  1256.02  1264.70  1265.76
eigval :     1268.17  1271.45  1273.80  1277.65  1281.92  1310.03
eigval :     1315.77  1317.36  1322.27  1322.86  1324.37  1327.04
eigval :     1329.28  1352.95  1380.92  1394.29  1398.05  1410.99
eigval :     1413.36  1424.39  1427.00  1435.15  1442.08  1452.95
eigval :     1456.01  1467.54  1469.67  1471.59  1485.29  1493.36
eigval :     1498.18  1505.04  1523.89  1533.92  1541.18  1552.58
eigval :     1574.56  1578.24  1583.35  1585.17  1587.34  1587.83
eigval :     1589.18  1589.41  1598.27  3066.96  3068.22  3070.66
eigval :     3073.39  3075.28  3077.06  3077.58  3077.80  3078.26
eigval :     3079.51  3079.86  3080.70  3083.20  3085.71  3087.77
eigval :     3088.72  3089.11  3089.41  3089.74  3091.62  3091.92
eigval :     3091.98  3095.80  3099.54  3100.16  3101.27  3130.49
eigval :     3134.59  3158.86  3159.15

   temp. (K)  partition function   enthalpy   heat capacity  entropy
                                   cal/mol     cal/K/mol   cal/K/mol   J/K/mol
 298.15  VIB  0.552E+21            25963.069    160.520    163.100
         ROT  0.135E+09              888.752      2.981     40.182
         INT  0.744E+29            26851.822    163.501    203.282
         TR   0.193E+29             1481.254      4.968     45.647
         TOT                       28333.0755   168.4688   248.9290  1041.5188

       T/K    H(0)-H(T)+PV         H(T)/Eh          T*S/Eh         G(T)/Eh
   ------------------------------------------------------------------------
    298.15    0.451516E-01    0.655585E+00    0.118274E+00    0.537311E+00
   ------------------------------------------------------------------------

         :::::::::::::::::::::::::::::::::::::::::::::::::::::
         ::                  THERMODYNAMIC                  ::
         :::::::::::::::::::::::::::::::::::::::::::::::::::::
         :: total free energy        -135.146331496900 Eh   ::
         ::.................................................::
         :: total energy             -135.683642756788 Eh   ::
         :: zero point energy           0.610433810526 Eh   ::
         :: G(RRHO) w/o ZPVE           -0.073122550638 Eh   ::
         :: G(RRHO) contrib.            0.537311259888 Eh   ::
         :::::::::::::::::::::::::::::::::::::::::::::::::::::

           -------------------------------------------------
          | TOTAL ENERGY             -135.683642756788 Eh   |
          | TOTAL ENTHALPY           -135.028057316456 Eh   |
          | TOTAL FREE ENERGY        -135.146331496900 Eh   |
          | GRADIENT NORM               0.000075080944 Eh/α |
           -------------------------------------------------

 * finished run on 2025/09/11 at 09:10:11.342
