   * xtb version 6.7.1 (edcfbbe) compiled by 'albert@albert-system' on 2024-07-22

   ID    Z sym.   atoms
    1    8 O      1, 21, 54
    2    6 C      2-6, 8-20, 22-39, 41-53, 55-68
    3    7 N      7, 40
    4    1 H      69-108

          program call               : xtb data2507/gas/SXAC-BP-SXAC/SXAC-BP-SXAC.xyz --gfn 2 --ohess vtight --parallel 40 --molden --ceasefiles --namespace data2507/gas/SXAC-BP-SXAC/SXAC-BP-SXAC_gas_S0_preOpt
          :  Hamiltonian                  GFN2-xTB          :
 * total energy  :  -173.3973143 Eh     change       -0.3636103E-08 Eh
 * total energy  :  -173.4202202 Eh     change       -0.2290591E-01 Eh
 * total energy  :  -173.4286562 Eh     change       -0.8435986E-02 Eh
 * total energy  :  -173.4301469 Eh     change       -0.1490694E-02 Eh
 * total energy  :  -173.4309051 Eh     change       -0.7582955E-03 Eh
 * total energy  :  -173.4313645 Eh     change       -0.4593635E-03 Eh
 * total energy  :  -173.4316510 Eh     change       -0.2864524E-03 Eh
 * total energy  :  -173.4318003 Eh     change       -0.1493747E-03 Eh
 * total energy  :  -173.4318922 Eh     change       -0.9186426E-04 Eh
 * total energy  :  -173.4320038 Eh     change       -0.1116223E-03 Eh
 * total energy  :  -173.4326716 Eh     change       -0.8997815E-06 Eh
 * total energy  :  -173.4326726 Eh     change       -0.1003130E-05 Eh
 * total energy  :  -173.4326738 Eh     change       -0.1216452E-05 Eh
 * total energy  :  -173.4326752 Eh     change       -0.1421141E-05 Eh
 * total energy  :  -173.4326766 Eh     change       -0.1370542E-05 Eh
 * total energy  :  -173.4326768 Eh     change       -0.2541567E-06 Eh
 * total energy  :  -173.4326774 Eh     change       -0.5840571E-06 Eh
 * total energy  :  -173.4326777 Eh     change       -0.2843126E-06 Eh
 * total energy  :  -173.4326778 Eh     change       -0.9412781E-07 Eh
   *** GEOMETRY OPTIMIZATION CONVERGED AFTER 97 ITERATIONS ***

 final structure:
================
108
 xtb: 6.7.1 (edcfbbe)
O           -0.04417291802337        4.81882395675276        0.80985523208853
C           -0.03032664309554        3.62668271195390        0.57808837028888
C            1.24283479041241        2.87776585706092        0.43463403926921
C            1.35789747704999        1.53489453313097        0.79153122583131
C            2.57420733583287        0.89061961777409        0.68650972863301
C            3.69238957788671        1.57453519439928        0.21698623533252
N            4.93498823066546        0.90563365537552        0.10850714688521
C            5.09315503000358       -0.06899154086350       -0.86957443144501
C            4.06884572389287       -0.32543322577903       -1.78518916440570
C            4.21400960504904       -1.29280858684374       -2.75845709521042
C            5.38760631776528       -2.02057905487024       -2.85086509628577
C            6.41554379418553       -1.75178580606962       -1.96751233168797
C            6.28750610562024       -0.78369439972088       -0.98303539243185
C            7.46758364930342       -0.53074635894009       -0.06909196018691
C            8.66502996405432       -0.15594480562498       -0.91956750257773
C            8.60903427217904        0.97834438461502       -1.71826266312400
C            9.68185187746436        1.35199110400556       -2.50388051436536
C           10.83690006483039        0.58575002377133       -2.49910451754487
C           10.91157896532047       -0.54510947985280       -1.71256454972875
C            9.82761889326804       -0.91879912265089       -0.92194739529603
O            9.98711810117872       -2.05100518278901       -0.17588482457108
C            8.95974354377427       -2.46651536602099        0.62087467712712
C            9.18313659075370       -3.62745006166915        1.35719260662878
C            8.19916989360798       -4.11922677350681        2.18956276100406
C            6.98567925741280       -3.45776677161509        2.29459481185967
C            6.76773295840551       -2.30687686119864        1.56271605424791
C            7.74527599644254       -1.79648406530357        0.71917800455240
C            7.19864570182478        0.58972416508829        0.91336095779315
C            8.21100745331330        0.94720576256865        1.79115108430316
C            8.02314042091001        1.92880660857058        2.74510606817393
C            6.78993874341147        2.55047786759802        2.83604725976093
C            5.77101142192237        2.20834821795832        1.97060468919520
C            5.96454185416665        1.23966784113578        0.98217195130748
C            3.58374557730060        2.91764427290132       -0.13430452760708
C            2.37119237219839        3.56354621082479       -0.01422235647746
C           -1.28824818840055        2.84908055792359        0.43400799649076
C           -1.41001029128816        1.80741262126192       -0.48362562068725
C           -2.60654697153734        1.12909639051050       -0.60893409064367
C           -3.69317872720181        1.47637508555156        0.18801440500976
N           -4.91496689202534        0.76647100775650        0.07483439572134
C           -5.27319199946443       -0.11766892870781        1.08416326002370
C           -4.40928174016645       -0.35311644908234        2.15710748717024
C           -4.75616256060697       -1.22793207983867        3.16636930987260
C           -5.96756808386924       -1.89605055541165        3.12618033638759
C           -6.81578859889116       -1.68602571498240        2.05559473717504
C           -6.48430164457302       -0.81103080709495        1.03241527729270
C           -7.45550649091882       -0.65083342027620       -0.11839650230239
C           -8.76042576594153       -0.10335851907518        0.42674460724959
C           -8.77539460951462        1.13634972633671        1.05168689276997
C           -9.94470647928619        1.66411318554144        1.56339325085848
C          -11.12680505745221        0.94860118931418        1.45456154753409
C          -11.13245331103569       -0.28450267529622        0.83614923344904
C           -9.95144567917691       -0.81305948020465        0.32088145074617
O          -10.04851781427676       -2.03741872204477       -0.27534339790296
C           -8.92435627487413       -2.60702505325630       -0.79974319603313
C           -9.08787137560735       -3.85449130455730       -1.39717343255718
C           -8.00420742958157       -4.50360738592537       -1.95153846290774
C           -6.74995640900290       -3.91480263547859       -1.91452876937733
C           -6.59182709867105       -2.67735720895884       -1.32165229263743
C           -7.67010346705005       -2.00801414377147       -0.75876446684171
C           -6.93960944522606        0.30673469928010       -1.17223952333530
C           -7.72353524029794        0.53360566713059       -2.29321063456810
C           -7.33162509849031        1.42055388903225       -3.27774670249189
C           -6.13888829665153        2.10693895013752       -3.12959957628622
C           -5.34499215022242        1.89369739988120       -2.02116415199212
C           -5.72331040883709        0.97908451917945       -1.03487171161708
C           -3.58014533007147        2.52479127816244        1.09593449148386
C           -2.38928805685682        3.21278802820916        1.20692585835735
H            0.50239590472126        1.00293575634110        1.18051586961926
H            2.67003367448197       -0.14751258961202        0.96885226355469
H            3.15361422253900        0.24471571408224       -1.73858162545263
H            3.40508823492993       -1.47339196061233       -3.45064201818149
H            5.50483578189569       -2.78041829463387       -3.60762931967131
H            7.34345441164445       -2.30098335044256       -2.03941134566664
H            7.70473956991732        1.56981616163804       -1.71653068516828
H            9.61924771984682        2.23718663329812       -3.11809432257458
H           11.68071963225501        0.86984945502101       -3.10938793385121
H           11.79835781425490       -1.15903562600890       -1.69048515464956
H           10.13646068314545       -4.12240163199136        1.25753473027431
H            8.37903228945748       -5.01932864258203        2.75759914046022
H            6.21336016580112       -3.83861306916993        2.94525199986658
H            5.82481971530457       -1.78503680307296        1.64067583632097
H            9.16218704871918        0.43879347517438        1.72291726756381
H            8.82407455898619        2.19560315658688        3.41674188871395
H            6.61402314584461        3.30529858711277        3.58774341184407
H            4.81179440325522        2.69274793627237        2.06838810539897
H            4.45563240642581        3.44462145390332       -0.49234830742616
H            2.27191038086591        4.60661342906852       -0.27462825339161
H           -0.57356807881137        1.54214433298124       -1.11332346062184
H           -2.70960479911319        0.32591518753195       -1.32366450412305
H           -3.45559878814368        0.15087174839204        2.19729082738726
H           -4.07197844231306       -1.38898006971681        3.98614997312675
H           -6.24475452703951       -2.57860801638223        3.91428007059455
H           -7.75841050434350       -2.21216891892951        2.00562001425524
H           -7.85015251759678        1.68853171902621        1.13193160720630
H           -9.93602231959714        2.62961611450712        2.04559509219333
H          -12.04564560517649        1.35236308917291        1.85194321591609
H          -12.03856639783510       -0.86158336749065        0.73762219725510
H          -10.07446907007595       -4.29056282106762       -1.41236556028637
H           -8.13805303950385       -5.47005598419406       -2.41338944700689
H           -5.89946954240431       -4.41950907412102       -2.34675422114676
H           -5.61738790920795       -2.21158708805982       -1.28793525809926
H           -8.66075653731527        0.00403216874813       -2.38868228432660
H           -7.95423995443090        1.58177047448960       -4.14389538866561
H           -5.82250761352934        2.81761157854523       -3.87843221765446
H           -4.42511893562665        2.44794643396279       -1.91401102538149
H           -4.43040767097892        2.79273836432242        1.70530719707658
H           -2.29001652447063        4.03741070448499        1.89659603796846

          :  Hamiltonian                  GFN2-xTB          :
         :: gradient norm              0.000138891918 Eh/a0 ::
         :: HOMO-LUMO gap              1.524815813820 eV    ::
         :: SCC energy              -176.543122059764 Eh    ::
         :: -> dispersion             -0.170284738764 Eh    ::
         :: repulsion energy           3.110444269663 Eh    ::

    * Orbital Energies and Occupations

         #    Occupation            Energy/Eh            Energy/eV
      -------------------------------------------------------------
         1        2.0000           -0.7287305             -19.8298
       ...           ...                  ...                  ...
       148        2.0000           -0.4098793             -11.1534
       149        2.0000           -0.4097026             -11.1486
       150        2.0000           -0.3998326             -10.8800
       151        2.0000           -0.3996617             -10.8753
       152        2.0000           -0.3990789             -10.8595
       153        2.0000           -0.3985713             -10.8457
       154        2.0000           -0.3976455             -10.8205
       155        2.0000           -0.3975465             -10.8178
       156        2.0000           -0.3969035             -10.8003
       157        2.0000           -0.3719091             -10.1202
       158        2.0000           -0.3712130             -10.1012
       159        2.0000           -0.3553448              -9.6694
       160        2.0000           -0.3540644              -9.6346 (HOMO)
       161                         -0.2980284              -8.1098 (LUMO)
       162                         -0.2536512              -6.9022
       163                         -0.2502255              -6.8090
       164                         -0.2473892              -6.7318
       165                         -0.2412978              -6.5660
       166                         -0.2404686              -6.5435
       167                         -0.2301720              -6.2633
       168                         -0.2296043              -6.2479
       169                         -0.2293628              -6.2413
       170                         -0.2289822              -6.2309
       171                         -0.2274494              -6.1892
       ...                                ...                  ...
       312                          0.6826961              18.5771
      -------------------------------------------------------------
                  HL-Gap            0.0560359 Eh            1.5248 eV

     #   Z          covCN         q      C6AA      α(0)
     1   8 O        0.858    -0.365    20.994     6.143
     2   6 C        2.828     0.226    23.251     7.901
     3   6 C        2.972    -0.014    28.365     8.736
     4   6 C        2.920    -0.027    28.670     8.781
     5   6 C        2.920    -0.038    28.934     8.821
     6   6 C        2.928     0.076    26.311     8.412
     7   7 N        2.752    -0.069    22.579     7.057
     8   6 C        2.925     0.059    26.679     8.470
     9   6 C        2.924    -0.058    29.435     8.897
    10   6 C        2.920    -0.032    28.790     8.799
    11   6 C        2.917    -0.041    29.029     8.835
    12   6 C        2.927    -0.033    28.834     8.806
    13   6 C        2.988    -0.011    28.290     8.725
    14   6 C        3.927     0.021    20.157     6.381
    15   6 C        2.983    -0.017    28.422     8.745
    16   6 C        2.926    -0.035    28.865     8.811
    17   6 C        2.918    -0.040    28.986     8.829
    18   6 C        2.921    -0.032    28.787     8.798
    19   6 C        2.919    -0.054    29.349     8.884
    20   6 C        2.881     0.136    25.027     8.201
    21   8 O        1.710    -0.245    18.064     5.738
    22   6 C        2.881     0.136    25.021     8.200
    23   6 C        2.920    -0.054    29.347     8.884
    24   6 C        2.921    -0.032    28.789     8.799
    25   6 C        2.918    -0.040    28.993     8.830
    26   6 C        2.926    -0.035    28.873     8.812
    27   6 C        2.984    -0.017    28.426     8.746
    28   6 C        2.988    -0.012    28.296     8.726
    29   6 C        2.927    -0.034    28.838     8.807
    30   6 C        2.917    -0.041    29.021     8.834
    31   6 C        2.920    -0.031    28.777     8.797
    32   6 C        2.924    -0.058    29.433     8.897
    33   6 C        2.924     0.059    26.683     8.471
    34   6 C        2.919    -0.037    28.919     8.819
    35   6 C        2.924    -0.018    28.448     8.747
    36   6 C        2.972    -0.013    28.331     8.731
    37   6 C        2.920    -0.027    28.665     8.780
    38   6 C        2.920    -0.037    28.931     8.820
    39   6 C        2.928     0.076    26.313     8.412
    40   7 N        2.753    -0.070    22.607     7.062
    41   6 C        2.925     0.059    26.676     8.470
    42   6 C        2.924    -0.058    29.441     8.898
    43   6 C        2.920    -0.032    28.789     8.799
    44   6 C        2.917    -0.042    29.036     8.836
    45   6 C        2.927    -0.034    28.836     8.806
    46   6 C        2.988    -0.012    28.299     8.726
    47   6 C        3.927     0.021    20.157     6.381
    48   6 C        2.984    -0.017    28.423     8.745
    49   6 C        2.926    -0.035    28.868     8.811
    50   6 C        2.918    -0.040    28.988     8.829
    51   6 C        2.921    -0.032    28.788     8.799
    52   6 C        2.920    -0.054    29.348     8.884
    53   6 C        2.881     0.136    25.025     8.201
    54   8 O        1.710    -0.246    18.066     5.739
    55   6 C        2.881     0.136    25.023     8.201
    56   6 C        2.920    -0.054    29.351     8.884
    57   6 C        2.921    -0.032    28.790     8.799
    58   6 C        2.918    -0.040    28.992     8.830
    59   6 C        2.926    -0.035    28.868     8.811
    60   6 C        2.983    -0.017    28.421     8.745
    61   6 C        2.988    -0.012    28.305     8.727
    62   6 C        2.927    -0.034    28.838     8.807
    63   6 C        2.917    -0.042    29.032     8.836
    64   6 C        2.920    -0.031    28.781     8.798
    65   6 C        2.924    -0.058    29.436     8.897
    66   6 C        2.925     0.059    26.677     8.470
    67   6 C        2.920    -0.036    28.897     8.815
    68   6 C        2.924    -0.018    28.453     8.748
    69   1 H        0.926     0.042     2.418     2.431
    70   1 H        0.926     0.046     2.365     2.405
    71   1 H        0.926     0.024     2.669     2.555
    72   1 H        0.926     0.031     2.579     2.511
    73   1 H        0.926     0.031     2.574     2.509
    74   1 H        0.926     0.028     2.612     2.527
    75   1 H        0.926     0.031     2.576     2.510
    76   1 H        0.926     0.035     2.515     2.480
    77   1 H        0.926     0.039     2.467     2.456
    78   1 H        0.926     0.049     2.334     2.389
    79   1 H        0.926     0.049     2.331     2.388
    80   1 H        0.926     0.039     2.468     2.457
    81   1 H        0.926     0.034     2.524     2.484
    82   1 H        0.926     0.030     2.587     2.515
    83   1 H        0.926     0.028     2.616     2.529
    84   1 H        0.926     0.031     2.570     2.507
    85   1 H        0.926     0.032     2.552     2.498
    86   1 H        0.926     0.028     2.611     2.527
    87   1 H        0.926     0.050     2.323     2.383
    88   1 H        0.926     0.063     2.167     2.302
    89   1 H        0.926     0.042     2.421     2.433
    90   1 H        0.926     0.047     2.358     2.401
    91   1 H        0.926     0.024     2.678     2.559
    92   1 H        0.926     0.030     2.580     2.512
    93   1 H        0.926     0.031     2.579     2.511
    94   1 H        0.926     0.028     2.617     2.530
    95   1 H        0.926     0.031     2.577     2.510
    96   1 H        0.926     0.035     2.516     2.480
    97   1 H        0.926     0.039     2.468     2.457
    98   1 H        0.926     0.049     2.335     2.389
    99   1 H        0.926     0.049     2.335     2.390
   100   1 H        0.926     0.038     2.471     2.458
   101   1 H        0.926     0.034     2.526     2.485
   102   1 H        0.926     0.030     2.585     2.514
   103   1 H        0.926     0.028     2.620     2.531
   104   1 H        0.926     0.031     2.578     2.511
   105   1 H        0.926     0.031     2.566     2.505
   106   1 H        0.926     0.026     2.637     2.539
   107   1 H        0.926     0.049     2.331     2.387
   108   1 H        0.926     0.061     2.191     2.315

molecular dipole:
                 x           y           z       tot (Debye)
 q only:        0.131      -0.504      -0.120
   full:        0.130      -0.567      -0.136       1.519

 projected vibrational frequencies (cm⁻¹)
eigval :       -0.00    -0.00    -0.00    -0.00     0.00     0.00
eigval :        3.38     3.82     5.37     6.67    10.45    20.36
eigval :       20.52    30.67    32.61    35.57    43.53    44.26
eigval :       48.57    53.50    66.79    67.07    68.46    69.49
eigval :       78.37   107.40   108.84   112.79   117.05   127.30
eigval :      127.64   136.33   151.25   154.72   162.74   183.75
eigval :      190.39   197.83   198.64   202.06   235.69   236.06
eigval :      247.37   252.98   263.72   268.69   280.73   288.82
eigval :      289.39   289.77   293.90   295.09   323.98   341.09
eigval :      368.77   371.81   372.35   377.81   386.35   387.57
eigval :      394.63   395.77   398.73   401.58   403.10   405.46
eigval :      428.86   429.59   436.04   438.81   442.04   446.56
eigval :      448.31   454.41   455.98   456.65   491.27   493.36
eigval :      494.96   495.03   501.29   502.80   510.53   511.52
eigval :      531.25   531.32   555.88   555.90   556.51   586.33
eigval :      591.02   592.77   595.91   598.28   598.34   600.98
eigval :      603.14   606.06   613.49   621.55   633.60   643.76
eigval :      659.14   660.40   667.88   668.17   672.65   681.87
eigval :      682.23   684.84   692.10   692.66   699.25   699.38
eigval :      707.85   720.82   738.66   757.76   771.38   771.71
eigval :      775.51   775.73   780.31   780.40   785.46   785.52
eigval :      805.57   806.32   821.46   827.27   865.06   865.67
eigval :      866.41   867.03   867.56   867.95   873.85   874.88
eigval :      874.95   875.23   875.40   878.03   890.12   898.21
eigval :      898.41   903.24   903.95   905.24   905.51   908.57
eigval :      908.83   910.09   910.11   911.04   911.12   919.17
eigval :      920.21   920.74   921.13   921.54   921.82   923.28
eigval :      923.32   923.63   923.71   925.70   927.08   927.31
eigval :      930.03   935.18   947.74   947.97   956.74  1015.10
eigval :     1029.20  1088.03  1088.15  1088.74  1088.80  1102.81
eigval :     1102.91  1108.79  1109.43  1110.52  1111.29  1116.35
eigval :     1116.38  1124.85  1124.92  1129.32  1131.07  1141.81
eigval :     1142.39  1172.75  1175.38  1175.73  1176.05  1176.05
eigval :     1179.72  1181.88  1182.42  1185.12  1185.35  1185.52
eigval :     1187.58  1188.51  1196.09  1200.68  1213.79  1213.82
eigval :     1221.30  1227.41  1233.60  1234.20  1241.52  1243.56
eigval :     1251.37  1251.41  1259.18  1260.06  1261.25  1261.54
eigval :     1262.56  1268.38  1268.61  1271.65  1271.82  1272.19
eigval :     1272.39  1311.73  1315.17  1319.40  1321.71  1327.72
eigval :     1327.87  1327.94  1328.00  1331.88  1331.97  1336.31
eigval :     1336.67  1336.80  1338.84  1399.80  1402.46  1426.01
eigval :     1426.05  1436.87  1437.13  1438.74  1439.44  1439.89
eigval :     1439.96  1472.62  1472.97  1473.00  1474.61  1480.39
eigval :     1481.28  1483.43  1483.49  1494.02  1494.90  1557.84
eigval :     1560.26  1575.40  1575.43  1580.00  1580.03  1582.33
eigval :     1585.92  1588.81  1589.14  1592.13  1592.22  1594.37
eigval :     1594.38  1597.58  1597.61  1603.02  1603.33  1605.49
eigval :     1605.55  1694.10  3077.04  3077.32  3077.47  3077.61
eigval :     3077.68  3077.89  3078.05  3078.50  3080.69  3080.91
eigval :     3081.26  3082.30  3083.12  3083.56  3085.77  3086.05
eigval :     3086.17  3086.22  3088.89  3089.05  3093.01  3093.86
eigval :     3094.17  3095.12  3095.74  3096.52  3096.63  3097.23
eigval :     3097.33  3097.61  3099.78  3100.08  3101.22  3101.60
eigval :     3102.09  3103.50  3105.64  3105.76  3106.44  3106.57

   temp. (K)  partition function   enthalpy   heat capacity  entropy
                                   cal/mol     cal/K/mol   cal/K/mol   J/K/mol
 298.15  VIB  0.150E+28            31458.382    197.789    199.989
         ROT  0.277E+09              888.752      2.981     41.614
         INT  0.415E+36            32347.134    200.770    241.603
         TR   0.250E+29             1481.254      4.968     46.156
         TOT                       33828.3880   205.7381   287.7587  1203.9824

       T/K    H(0)-H(T)+PV         H(T)/Eh          T*S/Eh         G(T)/Eh
   ------------------------------------------------------------------------
    298.15    0.539090E-01    0.876258E+00    0.136723E+00    0.739534E+00
   ------------------------------------------------------------------------

         :::::::::::::::::::::::::::::::::::::::::::::::::::::
         ::                  THERMODYNAMIC                  ::
         :::::::::::::::::::::::::::::::::::::::::::::::::::::
         :: total free energy        -172.693143667508 Eh   ::
         ::.................................................::
         :: total energy             -173.432677790101 Eh   ::
         :: zero point energy           0.822348594921 Eh   ::
         :: G(RRHO) w/o ZPVE           -0.082814472329 Eh   ::
         :: G(RRHO) contrib.            0.739534122593 Eh   ::
         :::::::::::::::::::::::::::::::::::::::::::::::::::::

           -------------------------------------------------
          | TOTAL ENERGY             -173.432677790101 Eh   |
          | TOTAL ENTHALPY           -172.556420227464 Eh   |
          | TOTAL FREE ENERGY        -172.693143667508 Eh   |
          | GRADIENT NORM               0.000138778446 Eh/α |
          | HOMO-LUMO GAP               1.524815204814 eV   |
           -------------------------------------------------

 * finished run on 2025/07/18 at 19:25:25.471
