   * xtb version 6.7.1 (edcfbbe) compiled by 'albert@albert-system' on 2024-07-22

   ID    Z sym.   atoms
    1    8 O      1, 21, 54
    2    6 C      2-6, 8-20, 22-39, 41-53, 55-68
    3    7 N      7, 40
    4    1 H      69-108

          program call               : xtb data2507/gas/SXAC-BP-SXAC/SXAC-BP-SXAC_gas_S0_finalOpt.xtbopt.xyz --gfn 2 --spinpol --tblite --uhf 2 --ohess vtight --parallel 40 --molden --ceasefiles --namespace data2507/gas/SXAC-BP-SXAC/SXAC-BP-SXAC_gas_T1_preOpt
 * total energy  :  -173.3510657 Eh     change       -0.5150511E-07 Eh
 * total energy  :  -173.3550028 Eh     change       -0.3937083E-02 Eh
 * total energy  :  -173.3560425 Eh     change       -0.1039778E-02 Eh
 * total energy  :  -173.3562628 Eh     change       -0.2203044E-03 Eh
 * total energy  :  -173.3564826 Eh     change       -0.2197796E-03 Eh
 * total energy  :  -173.3566945 Eh     change       -0.2119239E-03 Eh
 * total energy  :  -173.3569437 Eh     change       -0.2492000E-03 Eh
 * total energy  :  -173.3571365 Eh     change       -0.1927095E-03 Eh
 * total energy  :  -173.3572412 Eh     change       -0.1047897E-03 Eh
 * total energy  :  -173.3573194 Eh     change       -0.7810900E-04 Eh
 * total energy  :  -173.3579576 Eh     change       -0.1689907E-06 Eh
 * total energy  :  -173.3579581 Eh     change       -0.5476062E-06 Eh
 * total energy  :  -173.3579587 Eh     change       -0.5948324E-06 Eh
 * total energy  :  -173.3579594 Eh     change       -0.6760804E-06 Eh
 * total energy  :  -173.3579600 Eh     change       -0.5990151E-06 Eh
 * total energy  :  -173.3579606 Eh     change       -0.5721853E-06 Eh
 * total energy  :  -173.3579611 Eh     change       -0.5405169E-06 Eh
 * total energy  :  -173.3579611 Eh     change        0.8787367E-08 Eh
 * total energy  :  -173.3579611 Eh     change       -0.2731613E-07 Eh
   *** GEOMETRY OPTIMIZATION CONVERGED AFTER 95 ITERATIONS ***

 final structure:
================
108
 xtb: 6.7.1 (edcfbbe)
O            0.03607896080391        4.53604974095746       -0.79023747859662
C            0.02112391079910        3.29385962647846       -0.53104230606278
C            1.28013675692072        2.58392573286540       -0.40414025377388
C            1.45007522808705        1.43325400357838        0.38569759905733
C            2.67830840453157        0.82098960503146        0.47770862868283
C            3.77943839783787        1.34424468986177       -0.19950825767883
N            5.04104992575309        0.68921135434231       -0.11540321565833
C            5.25183114520400       -0.45391520321567       -0.86143863098620
C            4.24352439312882       -0.94216532325130       -1.70241040957959
C            4.43706721111274       -2.08764905180649       -2.44308046560704
C            5.63999362783444       -2.77344705304693       -2.37051414774667
C            6.64761588074371       -2.28714833843075       -1.55890313708598
C            6.47353977156041       -1.13600837833272       -0.80648330251192
C            7.62855864555812       -0.64185639396313        0.03567708269999
C            8.79381518237378       -0.33826380802092       -0.88828014539910
C            8.65582144693096        0.64008518510299       -1.86396159796245
C            9.69302467743458        0.93877440852422       -2.72565900486797
C           10.89340134621095        0.25368711413789       -2.61980232884475
C           11.04923546254090       -0.72116646467530       -1.65642038180523
C           10.00141553438929       -1.01986565857526       -0.78870482811292
O           10.24150618878154       -1.99727839207157        0.13332731393932
C            9.25625862434895       -2.32628859272548        1.01828031911261
C            9.56558165679052       -3.32167814861751        1.94229659195262
C            8.62842684638022       -3.71609437130945        2.87441867279040
C            7.37621460517683       -3.12188358011713        2.89351752910237
C            7.07232611495978       -2.13553487871701        1.97571903494478
C            8.00240962605884       -1.72559544948448        1.02970071364957
C            7.27956943111536        0.61357691231491        0.80293040730137
C            8.24138596670409        1.17261613369405        1.62983602601083
C            7.97782121196036        2.30975617110336        2.37023951085503
C            6.72307280198931        2.89496047424636        2.29212393962310
C            5.75326743056897        2.35563923412484        1.47547496557452
C            6.01818121878615        1.21434519874610        0.70767891818854
C            3.64052084974708        2.51914824776237       -0.94067863124145
C            2.41814872582999        3.13521970199926       -1.02830607990320
C           -1.24459746298327        2.60809353522611       -0.37534338646281
C           -1.41600465326339        1.22802345846855       -0.58500334333513
C           -2.65927224727245        0.65036018310516       -0.47451553094535
C           -3.77350449573681        1.42922663982629       -0.16613348854417
N           -5.05631299087948        0.81538854556069       -0.06102960058223
C           -5.47215879838844        0.33795110835425        1.16462988237792
C           -4.65507286134043        0.49342113921597        2.29157238570584
C           -5.05947264481428        0.02593545916287        3.52283286622720
C           -6.28537001378168       -0.60717917885573        3.66279606899747
C           -7.09714848779655       -0.76527663242193        2.55496314891599
C           -6.70953388531822       -0.30218015663404        1.30743817513028
C           -7.63774102604760       -0.51748412045901        0.13283239550461
C           -8.97731292599621        0.12111790670584        0.44717701089882
C           -9.04337609839847        1.48771523262322        0.68428315971656
C          -10.24570578443367        2.10406970779503        0.97077954911564
C          -11.40856192600696        1.35136621345077        1.02343612003739
C          -11.36252996085028       -0.00755313531051        0.79098891818299
C          -10.14834603231123       -0.62619941871525        0.50271920068984
O          -10.19349747928143       -1.97328738862454        0.28679502112856
C           -9.03466461810814       -2.63551012683928        0.00345284063929
C           -9.14492254974266       -4.00882630707008       -0.20192304849951
C           -8.02375551001785       -4.75743407820753       -0.49365064824489
C           -6.78407967963484       -4.14377569768032       -0.58307415066685
C           -6.67792410537020       -2.78194144049967       -0.37888049975903
C           -7.79512827252454       -2.01186917634203       -0.08411035510274
C           -7.09756037350861        0.09345303192451       -1.14127438688314
C           -7.86518391481662        0.01594027244605       -2.29277871128606
C           -7.41871081866336        0.54506426338004       -3.48936386713345
C           -6.17835907636788        1.16339872988503       -3.53868548515778
C           -5.39921942059332        1.25055690079182       -2.40581994484057
C           -5.84552744845499        0.71898355393295       -1.18921568738577
C           -3.62940623226690        2.80669108031063        0.00593820494075
C           -2.39107944702039        3.38562838512307       -0.10625012003422
H            0.62301491086146        1.04597280102918        0.96059245947079
H            2.80444626288032       -0.06400149804128        1.08580904918368
H            3.30840654678118       -0.40918095196524       -1.77195561192513
H            3.64536129423057       -2.44639417379167       -3.08329554155723
H            5.79360549776397       -3.67243921443277       -2.94672560546302
H            7.59350197400922       -2.80693447346089       -1.50620121062397
H            7.71698207609608        1.16914105195200       -1.94168603204201
H            9.56682893333872        1.70217672146440       -3.47775294551063
H           11.70928206478131        0.47966330385645       -3.28929433789158
H           11.97269110327423       -1.26892168061016       -1.55253583978923
H           10.54722818410029       -3.76737225910145        1.90609783448455
H            8.87495113352513       -4.48788847162973        3.58753158810413
H            6.64038788680857       -3.42702899302560        3.62146293854069
H            6.09855760776862       -1.66734315340138        1.98468091971621
H            9.21250890024568        0.70266973562966        1.69202728651605
H            8.74009607015880        2.73149462994003        3.00653960634858
H            6.49780756937924        3.77637974366528        2.87302002226890
H            4.77721422641963        2.81203185274871        1.42701004718967
H            4.50329157025493        2.93223987173501       -1.44321056829475
H            2.29352083249473        4.04567706226532       -1.59401109347741
H           -0.57663739942260        0.61801843201545       -0.88109954774062
H           -2.78677240222813       -0.40991182497273       -0.64304754038686
H           -3.70154618507407        0.98725711933829        2.18737497978471
H           -4.41532206115426        0.15672302596343        4.37916053899231
H           -6.60485084060080       -0.97419959434726        4.62565571158314
H           -8.05350908788118       -1.25842203098096        2.65467709307077
H           -8.13269464117212        2.06756016536507        0.64087476990253
H          -10.27732202835579        3.16729168723092        1.15213020562441
H          -12.35283261813484        1.82439658587554        1.24603191521970
H          -12.25240173249722       -0.61625965299571        0.82590458944389
H          -10.12121469478388       -4.46134037005409       -0.12663230091024
H           -8.11660499585680       -5.82111232461932       -0.65160544203888
H           -5.90432301651712       -4.72554622635760       -0.81127948169252
H           -5.71471683739101       -2.29732525965794       -0.44729930453956
H           -8.82949972706786       -0.46948252761633       -2.24579585279239
H           -8.03083609754701        0.47500807105692       -4.37494251576025
H           -5.81594683353676        1.58038657369467       -4.46599959278248
H           -4.43529105718985        1.73270091506974       -2.45023889300153
H           -4.50125034366245        3.40617477304650        0.22498325799655
H           -2.26174407616677        4.45017679982826        0.01490442644235

 projected vibrational frequencies (cm⁻¹)
eigval :       -0.00    -0.00     0.00     0.00     0.00     0.00
eigval :        1.54     3.58     3.98     6.71    12.03    20.05
eigval :       21.14    26.59    29.84    38.65    44.53    45.24
eigval :       50.89    53.19    66.89    67.55    69.17    70.43
eigval :       87.03   105.33   106.59   108.00   120.46   125.47
eigval :      125.77   136.41   151.70   156.39   163.30   182.10
eigval :      194.79   197.62   199.54   212.86   234.47   234.63
eigval :      246.85   252.18   264.47   269.22   278.72   286.19
eigval :      286.46   291.23   293.35   304.10   334.06   336.81
eigval :      370.55   371.28   373.18   381.34   387.35   393.17
eigval :      394.66   396.34   397.14   401.15   402.96   404.46
eigval :      427.17   428.39   429.91   434.68   440.63   441.93
eigval :      450.75   453.60   454.55   455.11   470.66   482.83
eigval :      491.37   491.48   507.24   508.36   513.98   515.52
eigval :      526.27   526.45   541.60   555.05   555.09   560.78
eigval :      584.97   590.24   591.47   594.24   597.31   597.44
eigval :      599.20   602.70   607.61   609.21   614.00   632.94
eigval :      639.66   659.59   667.67   668.60   669.21   669.56
eigval :      675.61   686.57   686.60   691.06   695.84   696.22
eigval :      700.55   700.64   713.89   752.94   770.50   770.66
eigval :      774.61   774.74   780.39   780.46   785.24   785.28
eigval :      796.46   805.28   805.76   810.98   843.91   859.93
eigval :      866.71   866.81   867.64   867.67   868.20   868.81
eigval :      875.00   875.34   875.36   875.61   880.50   893.74
eigval :      895.70   899.63   901.31   902.50   905.31   906.26
eigval :      906.37   909.57   909.61   910.03   910.53   910.86
eigval :      911.37   911.46   913.41   921.25   921.26   922.60
eigval :      922.71   923.62   923.68   924.08   924.17   925.64
eigval :      925.73   936.46   942.02   945.31   945.31  1002.33
eigval :     1008.90  1087.49  1087.58  1088.25  1088.31  1101.39
eigval :     1102.06  1102.93  1103.12  1103.38  1104.28  1115.59
eigval :     1115.64  1124.03  1124.43  1125.04  1130.05  1140.24
eigval :     1141.24  1159.51  1166.16  1174.44  1174.67  1175.48
eigval :     1175.53  1181.04  1181.38  1181.82  1182.17  1183.56
eigval :     1184.32  1186.96  1193.74  1202.97  1211.42  1211.59
eigval :     1216.66  1226.55  1228.45  1229.40  1239.32  1241.13
eigval :     1246.11  1250.64  1250.73  1253.98  1259.31  1260.24
eigval :     1260.83  1260.94  1263.17  1270.09  1270.21  1270.52
eigval :     1270.88  1309.05  1312.99  1316.13  1319.48  1325.10
eigval :     1327.84  1328.10  1328.14  1331.56  1331.64  1332.26
eigval :     1332.76  1336.44  1336.63  1404.17  1405.82  1424.89
eigval :     1425.00  1425.58  1426.15  1426.68  1432.47  1435.45
eigval :     1439.11  1439.50  1442.72  1455.75  1458.90  1459.31
eigval :     1472.21  1472.27  1477.67  1479.47  1483.33  1483.52
eigval :     1491.22  1493.90  1550.29  1559.08  1559.25  1571.97
eigval :     1572.77  1579.80  1579.81  1580.62  1580.71  1586.92
eigval :     1592.12  1593.02  1593.55  1593.59  1596.86  1596.89
eigval :     1604.17  1604.24  3068.82  3069.47  3075.97  3076.35
eigval :     3078.83  3078.90  3078.96  3079.32  3079.54  3079.66
eigval :     3079.92  3080.07  3087.11  3087.23  3088.14  3088.19
eigval :     3088.41  3088.48  3088.55  3088.81  3091.60  3094.07
eigval :     3099.05  3099.22  3099.74  3099.87  3099.99  3100.12
eigval :     3100.71  3100.78  3100.91  3101.16  3106.17  3107.23
eigval :     3107.29  3107.75  3107.94  3108.27  3108.50  3109.31

   temp. (K)  partition function   enthalpy   heat capacity  entropy
                                   cal/mol     cal/K/mol   cal/K/mol   J/K/mol
 298.15  VIB  0.421E+28            31571.880    199.003    201.466
         ROT  0.282E+09              888.752      2.981     41.649
         INT  0.119E+37            32460.632    201.984    243.115
         TR   0.250E+29             1481.254      4.968     46.156
         TOT                       33941.8863   206.9525   289.2706  1210.3080

       T/K    H(0)-H(T)+PV         H(T)/Eh          T*S/Eh         G(T)/Eh
   ------------------------------------------------------------------------
    298.15    0.540898E-01    0.873491E+00    0.137442E+00    0.736049E+00
   ------------------------------------------------------------------------

         :::::::::::::::::::::::::::::::::::::::::::::::::::::
         ::                  THERMODYNAMIC                  ::
         :::::::::::::::::::::::::::::::::::::::::::::::::::::
         :: total free energy        -172.621912269861 Eh   ::
         ::.................................................::
         :: total energy             -173.357961122841 Eh   ::
         :: zero point energy           0.819400793205 Eh   ::
         :: G(RRHO) w/o ZPVE           -0.083351940225 Eh   ::
         :: G(RRHO) contrib.            0.736048852980 Eh   ::
         :::::::::::::::::::::::::::::::::::::::::::::::::::::

           -------------------------------------------------
          | TOTAL ENERGY             -173.357961122841 Eh   |
          | TOTAL ENTHALPY           -172.484470490889 Eh   |
          | TOTAL FREE ENERGY        -172.621912269861 Eh   |
          | GRADIENT NORM               0.000097896711 Eh/α |
           -------------------------------------------------

 * finished run on 2025/07/18 at 19:34:22.862
