   * xtb version 6.7.1 (edcfbbe) compiled by 'albert@albert-system' on 2024-07-22

   ID    Z sym.   atoms
    1    8 O      1, 21, 54
    2    6 C      2-6, 8-20, 22-39, 41-53, 55-68
    3    7 N      7, 40
    4    1 H      69-108

          program call               : xtb data2507/gas/SXAC-BP-SXAC/SXAC-BP-SXAC_gas_S0_crest.xyz --gfn 2 --ohess vtight --parallel 40 --molden --ceasefiles --namespace data2507/gas/SXAC-BP-SXAC/SXAC-BP-SXAC_gas_S0_finalOpt
          :  Hamiltonian                  GFN2-xTB          :
 * total energy  :  -173.4327010 Eh     change       -0.3593556E-08 Eh
 * total energy  :  -173.4327032 Eh     change       -0.2193493E-05 Eh
 * total energy  :  -173.4327086 Eh     change       -0.5469576E-05 Eh
 * total energy  :  -173.4327159 Eh     change       -0.7314759E-05 Eh
 * total energy  :  -173.4327199 Eh     change       -0.3949023E-05 Eh
 * total energy  :  -173.4327215 Eh     change       -0.1575745E-05 Eh
 * total energy  :  -173.4327226 Eh     change       -0.1099744E-05 Eh
 * total energy  :  -173.4327235 Eh     change       -0.9211102E-06 Eh
 * total energy  :  -173.4327245 Eh     change       -0.9900372E-06 Eh
 * total energy  :  -173.4327253 Eh     change       -0.8549939E-06 Eh
 * total energy  :  -173.4327355 Eh     change       -0.2316133E-06 Eh
 * total energy  :  -173.4327358 Eh     change       -0.2494536E-06 Eh
 * total energy  :  -173.4327361 Eh     change       -0.3389816E-06 Eh
 * total energy  :  -173.4327367 Eh     change       -0.5159424E-06 Eh
 * total energy  :  -173.4327373 Eh     change       -0.6633680E-06 Eh
 * total energy  :  -173.4327380 Eh     change       -0.6608021E-06 Eh
 * total energy  :  -173.4327387 Eh     change       -0.7098134E-06 Eh
 * total energy  :  -173.4327395 Eh     change       -0.8016365E-06 Eh
 * total energy  :  -173.4327395 Eh     change       -0.1059374E-07 Eh
   *** GEOMETRY OPTIMIZATION CONVERGED AFTER 44 ITERATIONS ***

 final structure:
================
108
 xtb: 6.7.1 (edcfbbe)
O            0.00110379788219        4.82674317949819       -0.06082486315064
C            0.00428840289472        3.61207448885509       -0.04877052760795
C            1.27170513960007        2.83940952387320       -0.04294639197786
C            1.39032862204996        1.61510990016132        0.61321511777850
C            2.59963050833485        0.94945579263939        0.62772453168539
C            3.70621336247906        1.49025896255951       -0.02183156897151
N            4.94039965912931        0.79788486386109       -0.01522906321213
C            5.05517210321502       -0.38739241506644       -0.73254234103223
C            3.98437716799368       -0.86169157157333       -1.49538463586853
C            4.08613926862357       -2.04087401353516       -2.20483414785012
C            5.26128473342767       -2.77153452485649       -2.18155879873886
C            6.33486048386472       -2.29197333320648       -1.45603347977559
C            6.25095009442571       -1.10894335204460       -0.73746782029046
C            7.48361794200073       -0.63262090721038        0.00117974909549
C            8.60027351804457       -0.43881471200480       -1.00593223669677
C            8.44517398562987        0.48471972973603       -2.03097550928603
C            9.44165479528379        0.68826811695099       -2.96547736761331
C           10.61893567719684       -0.03878348797913       -2.88399933780952
C           10.79169472771620       -0.96127174480783       -1.87295896954876
C            9.78455626564882       -1.16381887780185       -0.93257446195952
O           10.03900686453450       -2.09541380909506        0.03241435410202
C            9.09103768463772       -2.33491353660944        0.98489850844525
C            9.41028086180204       -3.29366282373801        1.94336804876038
C            8.51064968479566       -3.59842152168625        2.94373822119860
C            7.28672780632494       -2.95003113007583        2.99662754504277
C            6.97361411193479       -1.99993884060891        2.04428539740314
C            7.86537375808388       -1.67971241243845        1.02946943344053
C            7.24659312772880        0.67793706230403        0.72122504366437
C            8.29702387575984        1.22848326617847        1.44010792413818
C            8.14358923171112        2.40087420966964        2.15471052588348
C            6.90735587525101        3.02317303096013        2.16760718889040
C            5.85098574274708        2.49033595081267        1.45748874713986
C            6.00849274368196        1.32347878022238        0.70467307871022
C            3.59450028643951        2.71776688680347       -0.66983419122718
C            2.39029340725995        3.39004447475984       -0.66719966590343
C           -1.25977914990939        2.83243879023482       -0.03910791363224
C           -1.37607130236652        1.60522798096651       -0.68948208699814
C           -2.58092859457210        0.93052467394236       -0.68949044091312
C           -3.68483646602551        1.46921072127286       -0.03465014686295
N           -4.91733883892920        0.77129099090213       -0.02598045573547
C           -5.36054058507376        0.20128436880896        1.16136104642295
C           -4.56720636634854        0.25284862608883        2.31081435596727
C           -4.99991839515815       -0.30600785192313        3.49596288486891
C           -6.22876548416273       -0.93930716763031        3.56248940378150
C           -7.00534416047159       -1.01941607214109        2.42241637625188
C           -6.58681572190364       -0.46405997002363        1.22276839216959
C           -7.48031604856184       -0.62107663345701        0.01051836839556
C           -8.80516008190789        0.05921435081962        0.29627476929793
C           -8.83289977507753        1.42283392651686        0.55603848520281
C          -10.02087832541295        2.07494684298708        0.82268416927131
C          -11.20910203186573        1.36134059894086        0.83270850363072
C          -11.20214828827656        0.00591166702289        0.57622179359707
C          -10.00227371918222       -0.64804268563289        0.30735091433383
O          -10.08757821834100       -1.98869762666592        0.06369947290232
C           -8.94465027677086       -2.68444360675762       -0.20610712961071
C           -9.09650307048755       -4.04783266405504       -0.44685506335543
C           -7.99385315589287       -4.82816304090638       -0.72654905097742
C           -6.73210603662748       -4.25592967784943       -0.76849636316404
C           -6.58550582545840       -2.90344677511857       -0.52961236846295
C           -7.68287047797237       -2.10139429643362       -0.24659822847327
C           -6.87863809787702        0.00964128393008       -1.22765123870680
C           -7.59119933289539       -0.06875569594392       -2.41469056994999
C           -7.12319299961432        0.51735932976761       -3.57509502354879
C           -5.92698859096146        1.21279785468507       -3.54203391029380
C           -5.20364308435916        1.30056636415664       -2.37015463589145
C           -5.65618543315891        0.68432554765967       -1.20039997208031
C           -3.57631600133100        2.70020637116174        0.60609962692988
C           -2.37563868418572        3.37921613264913        0.59267205742140
H            0.54331792309814        1.19877900263215        1.13816415361709
H            2.69835400320710        0.00489418385847        1.14219099300675
H            3.06607680062089       -0.29655727221569       -1.54003576284887
H            3.24151558907077       -2.38597791277099       -2.78242069624043
H            5.34462003960759       -3.69618482343261       -2.73096801815747
H            7.26494584321569       -2.84208704484005       -1.44522077638535
H            7.52410167420703        1.04677862262652       -2.08806311500246
H            9.30243809542278        1.41063188481845       -3.75514611423644
H           11.40346995170725        0.11330571959228       -3.60965297760734
H           11.69785631738692       -1.54025583419696       -1.78686461666748
H           10.36951526022606       -3.78309477261129        1.87964856437569
H            8.76443118163273       -4.34247239318515        3.68345753168411
H            6.58030034830148       -3.18503385010049        3.77801260240043
H            6.02212548720963       -1.48907334384668        2.07949053775004
H            9.25096068025953        0.72064740810754        1.43825365221331
H            8.97378426728655        2.81615909924467        2.70433038885254
H            6.75862551107402        3.92836731803579        2.73703178191261
H            4.89068370607527        2.98105287018819        1.49400564453488
H            4.45784881395412        3.13687776589475       -1.16491326945238
H            2.29016925940535        4.34618200309293       -1.15848830589422
H           -0.52845397400278        1.18893850119580       -1.21351507051199
H           -2.67798974818747       -0.01736984200364       -1.19812885801290
H           -3.59995584428843        0.73028304647441        2.27354061951247
H           -4.36881976815697       -0.24801295196215        4.37025761779173
H           -6.57337206975456       -1.37429781752615        4.48759315735284
H           -7.95934947550893       -1.52593822051827        2.45643230763758
H           -7.90269532779807        1.97243347615408        0.54516512300416
H          -10.02199923041657        3.13564376784197        1.02190343949826
H          -12.14258738203144        1.86202268056133        1.04038267824106
H          -12.11266690621844       -0.57264835982323        0.57734008412235
H          -10.08924775892370       -4.46818761847523       -0.40785958367033
H           -8.11862842588829       -5.88427757846336       -0.91174454050904
H           -5.86678035631816       -4.86307200307964       -0.98632380845853
H           -5.60529529616164       -2.44967126735962       -0.55937871388349
H           -8.53344812925475       -0.59792617406911       -2.42174731588521
H           -7.69048731287849        0.44292506224701       -4.48966879343999
H           -5.55274488867229        1.69601798353189       -4.43216557172024
H           -4.28165771910274        1.86128259530641       -2.35951359076509
H           -4.43864977605121        3.11582001418358        1.10592726648241
H           -2.27991054603948        4.34168852952482        1.07229685451972

          :  Hamiltonian                  GFN2-xTB          :
         :: gradient norm              0.000065732458 Eh/a0 ::
         :: HOMO-LUMO gap              1.552179419162 eV    ::
         :: SCC energy              -176.542900819852 Eh    ::
         :: -> dispersion             -0.170301582287 Eh    ::
         :: repulsion energy           3.110161319789 Eh    ::

    * Orbital Energies and Occupations

         #    Occupation            Energy/Eh            Energy/eV
      -------------------------------------------------------------
         1        2.0000           -0.7286328             -19.8271
       ...           ...                  ...                  ...
       148        2.0000           -0.4102314             -11.1630
       149        2.0000           -0.4099145             -11.1543
       150        2.0000           -0.3997186             -10.8769
       151        2.0000           -0.3993713             -10.8674
       152        2.0000           -0.3990727             -10.8593
       153        2.0000           -0.3984117             -10.8413
       154        2.0000           -0.3978610             -10.8263
       155        2.0000           -0.3974030             -10.8139
       156        2.0000           -0.3972112             -10.8087
       157        2.0000           -0.3718065             -10.1174
       158        2.0000           -0.3714600             -10.1079
       159        2.0000           -0.3552426              -9.6666
       160        2.0000           -0.3545224              -9.6470 (HOMO)
       161                         -0.2974809              -8.0949 (LUMO)
       162                         -0.2532403              -6.8910
       163                         -0.2496842              -6.7943
       164                         -0.2468323              -6.7166
       165                         -0.2412014              -6.5634
       166                         -0.2407881              -6.5522
       167                         -0.2300182              -6.2591
       168                         -0.2296402              -6.2488
       169                         -0.2295467              -6.2463
       170                         -0.2292135              -6.2372
       171                         -0.2273366              -6.1861
       ...                                ...                  ...
       312                          0.6824437              18.5702
      -------------------------------------------------------------
                  HL-Gap            0.0570414 Eh            1.5522 eV

     #   Z          covCN         q      C6AA      α(0)
     1   8 O        0.858    -0.366    21.009     6.145
     2   6 C        2.828     0.226    23.256     7.902
     3   6 C        2.972    -0.014    28.360     8.735
     4   6 C        2.920    -0.027    28.674     8.781
     5   6 C        2.920    -0.038    28.941     8.822
     6   6 C        2.927     0.075    26.324     8.414
     7   7 N        2.752    -0.069    22.573     7.056
     8   6 C        2.924     0.059    26.679     8.470
     9   6 C        2.924    -0.058    29.437     8.898
    10   6 C        2.920    -0.032    28.791     8.799
    11   6 C        2.917    -0.041    29.029     8.835
    12   6 C        2.927    -0.034    28.835     8.806
    13   6 C        2.988    -0.011    28.290     8.725
    14   6 C        3.927     0.021    20.157     6.381
    15   6 C        2.983    -0.017    28.424     8.745
    16   6 C        2.926    -0.035    28.867     8.811
    17   6 C        2.918    -0.040    28.987     8.829
    18   6 C        2.921    -0.032    28.787     8.799
    19   6 C        2.920    -0.054    29.348     8.884
    20   6 C        2.881     0.136    25.025     8.201
    21   8 O        1.710    -0.245    18.065     5.739
    22   6 C        2.881     0.136    25.022     8.201
    23   6 C        2.920    -0.054    29.348     8.884
    24   6 C        2.921    -0.032    28.789     8.799
    25   6 C        2.918    -0.040    28.991     8.830
    26   6 C        2.926    -0.035    28.871     8.812
    27   6 C        2.984    -0.017    28.424     8.745
    28   6 C        2.988    -0.012    28.296     8.726
    29   6 C        2.927    -0.034    28.837     8.807
    30   6 C        2.917    -0.041    29.019     8.834
    31   6 C        2.920    -0.031    28.778     8.797
    32   6 C        2.924    -0.057    29.428     8.896
    33   6 C        2.924     0.059    26.685     8.471
    34   6 C        2.919    -0.037    28.923     8.819
    35   6 C        2.924    -0.018    28.453     8.748
    36   6 C        2.972    -0.014    28.348     8.733
    37   6 C        2.920    -0.027    28.669     8.780
    38   6 C        2.920    -0.038    28.941     8.822
    39   6 C        2.928     0.075    26.318     8.413
    40   7 N        2.752    -0.070    22.589     7.059
    41   6 C        2.925     0.059    26.678     8.470
    42   6 C        2.924    -0.058    29.437     8.897
    43   6 C        2.920    -0.032    28.788     8.799
    44   6 C        2.917    -0.041    29.030     8.835
    45   6 C        2.927    -0.034    28.835     8.806
    46   6 C        2.988    -0.012    28.295     8.726
    47   6 C        3.927     0.021    20.157     6.381
    48   6 C        2.984    -0.017    28.424     8.745
    49   6 C        2.926    -0.035    28.868     8.811
    50   6 C        2.918    -0.040    28.987     8.829
    51   6 C        2.921    -0.032    28.788     8.799
    52   6 C        2.920    -0.054    29.348     8.884
    53   6 C        2.881     0.136    25.026     8.201
    54   8 O        1.710    -0.245    18.066     5.739
    55   6 C        2.881     0.136    25.023     8.201
    56   6 C        2.920    -0.054    29.350     8.884
    57   6 C        2.921    -0.032    28.790     8.799
    58   6 C        2.918    -0.040    28.992     8.830
    59   6 C        2.926    -0.035    28.869     8.811
    60   6 C        2.983    -0.017    28.422     8.745
    61   6 C        2.988    -0.012    28.299     8.726
    62   6 C        2.927    -0.034    28.837     8.807
    63   6 C        2.917    -0.041    29.027     8.835
    64   6 C        2.920    -0.031    28.782     8.798
    65   6 C        2.924    -0.058    29.434     8.897
    66   6 C        2.924     0.059    26.679     8.470
    67   6 C        2.920    -0.036    28.907     8.817
    68   6 C        2.924    -0.018    28.452     8.747
    69   1 H        0.926     0.042     2.421     2.433
    70   1 H        0.926     0.046     2.364     2.404
    71   1 H        0.926     0.025     2.665     2.553
    72   1 H        0.926     0.030     2.580     2.512
    73   1 H        0.926     0.031     2.575     2.509
    74   1 H        0.926     0.028     2.612     2.527
    75   1 H        0.926     0.031     2.578     2.511
    76   1 H        0.926     0.035     2.516     2.480
    77   1 H        0.926     0.039     2.467     2.456
    78   1 H        0.926     0.049     2.333     2.389
    79   1 H        0.926     0.049     2.332     2.388
    80   1 H        0.926     0.039     2.468     2.457
    81   1 H        0.926     0.035     2.522     2.484
    82   1 H        0.926     0.030     2.584     2.514
    83   1 H        0.926     0.028     2.617     2.530
    84   1 H        0.926     0.031     2.570     2.507
    85   1 H        0.926     0.032     2.551     2.498
    86   1 H        0.926     0.028     2.608     2.526
    87   1 H        0.926     0.049     2.330     2.387
    88   1 H        0.926     0.062     2.180     2.309
    89   1 H        0.926     0.042     2.424     2.435
    90   1 H        0.926     0.047     2.361     2.403
    91   1 H        0.926     0.025     2.664     2.552
    92   1 H        0.926     0.031     2.575     2.509
    93   1 H        0.926     0.031     2.576     2.510
    94   1 H        0.926     0.028     2.615     2.529
    95   1 H        0.926     0.031     2.576     2.510
    96   1 H        0.926     0.035     2.514     2.480
    97   1 H        0.926     0.039     2.467     2.456
    98   1 H        0.926     0.049     2.334     2.389
    99   1 H        0.926     0.049     2.334     2.389
   100   1 H        0.926     0.038     2.470     2.458
   101   1 H        0.926     0.034     2.525     2.485
   102   1 H        0.926     0.030     2.585     2.514
   103   1 H        0.926     0.028     2.618     2.530
   104   1 H        0.926     0.031     2.575     2.509
   105   1 H        0.926     0.032     2.564     2.504
   106   1 H        0.926     0.027     2.629     2.536
   107   1 H        0.926     0.049     2.332     2.388
   108   1 H        0.926     0.061     2.182     2.310

molecular dipole:
                 x           y           z       tot (Debye)
 q only:        0.063      -0.546       0.008
   full:        0.062      -0.613       0.007       1.566

 projected vibrational frequencies (cm⁻¹)
eigval :       -0.00    -0.00    -0.00     0.00     0.00     0.00
eigval :        3.26     3.79     6.14     6.87    10.60    20.51
eigval :       20.73    31.62    33.24    36.87    43.97    44.32
eigval :       48.97    56.72    66.85    67.09    69.12    69.87
eigval :       80.14   107.82   109.41   113.09   117.87   127.69
eigval :      127.82   136.32   151.70   155.51   163.35   184.23
eigval :      191.67   197.96   198.71   202.79   235.62   236.14
eigval :      247.79   253.14   263.56   269.01   281.94   288.74
eigval :      289.48   290.04   294.46   294.82   324.33   341.07
eigval :      369.22   372.16   372.49   378.20   386.34   387.78
eigval :      394.40   395.60   398.88   401.60   403.21   405.56
eigval :      429.30   429.94   436.25   439.10   441.79   446.94
eigval :      448.29   454.65   456.56   457.05   491.79   493.06
eigval :      494.97   495.04   502.12   503.21   510.57   511.52
eigval :      531.27   531.30   555.87   555.93   556.63   586.29
eigval :      590.89   592.79   595.98   598.27   598.30   601.09
eigval :      603.17   606.20   613.74   621.54   633.55   643.79
eigval :      659.16   660.44   668.02   668.29   672.70   682.09
eigval :      682.27   684.77   692.15   692.77   699.35   699.45
eigval :      707.52   720.63   738.23   757.58   771.63   771.81
eigval :      775.71   775.83   780.35   780.46   785.53   785.57
eigval :      805.61   806.35   822.19   827.62   865.65   865.89
eigval :      866.81   867.27   867.74   868.34   874.44   875.01
eigval :      875.06   875.26   875.35   878.96   890.07   898.16
eigval :      898.32   903.31   904.04   905.36   905.43   908.74
eigval :      908.88   910.19   910.21   911.05   911.11   919.43
eigval :      920.21   920.96   921.43   921.72   922.19   923.32
eigval :      923.40   923.67   923.71   926.01   927.22   927.61
eigval :      930.26   935.92   947.73   947.83   956.65  1014.98
eigval :     1029.21  1087.92  1088.26  1088.73  1088.74  1102.84
eigval :     1102.98  1109.18  1109.68  1111.04  1111.48  1116.39
eigval :     1116.45  1124.79  1124.89  1129.87  1131.29  1141.95
eigval :     1142.48  1172.87  1175.35  1175.72  1176.05  1176.06
eigval :     1179.93  1181.89  1182.35  1185.28  1185.40  1185.64
eigval :     1187.69  1188.72  1196.18  1200.86  1213.68  1213.82
eigval :     1221.45  1227.37  1234.07  1234.44  1241.59  1243.59
eigval :     1251.23  1251.28  1259.45  1260.06  1261.29  1261.74
eigval :     1262.64  1268.55  1268.75  1271.64  1271.72  1272.33
eigval :     1272.52  1312.16  1315.27  1318.87  1321.23  1327.69
eigval :     1327.84  1327.92  1328.00  1331.86  1331.90  1336.25
eigval :     1336.37  1336.61  1337.39  1400.43  1402.43  1426.01
eigval :     1426.04  1436.89  1436.92  1438.61  1438.94  1439.78
eigval :     1439.80  1472.72  1472.88  1472.90  1474.57  1480.22
eigval :     1480.65  1483.27  1483.70  1493.86  1494.48  1557.63
eigval :     1559.68  1575.34  1575.39  1579.99  1580.01  1582.28
eigval :     1585.38  1588.77  1588.94  1592.15  1592.22  1594.36
eigval :     1594.38  1597.55  1597.56  1603.01  1603.19  1605.48
eigval :     1605.50  1692.93  3077.29  3077.34  3077.39  3077.65
eigval :     3077.77  3077.90  3078.01  3078.38  3080.82  3081.31
eigval :     3081.47  3082.54  3083.01  3083.66  3085.79  3085.98
eigval :     3086.08  3086.14  3088.58  3088.80  3092.95  3093.83
eigval :     3095.07  3095.88  3096.52  3096.70  3096.70  3097.19
eigval :     3097.22  3097.65  3099.76  3099.98  3101.62  3101.92
eigval :     3102.66  3103.55  3105.65  3105.80  3106.43  3106.61

   temp. (K)  partition function   enthalpy   heat capacity  entropy
                                   cal/mol     cal/K/mol   cal/K/mol   J/K/mol
 298.15  VIB  0.103E+28            31428.772    197.895    199.609
         ROT  0.278E+09              888.752      2.981     41.618
         INT  0.286E+36            32317.524    200.876    241.228
         TR   0.250E+29             1481.254      4.968     46.156
         TOT                       33798.7779   205.8439   287.3834  1202.4120

       T/K    H(0)-H(T)+PV         H(T)/Eh          T*S/Eh         G(T)/Eh
   ------------------------------------------------------------------------
    298.15    0.538618E-01    0.876296E+00    0.136545E+00    0.739751E+00
   ------------------------------------------------------------------------

         :::::::::::::::::::::::::::::::::::::::::::::::::::::
         ::                  THERMODYNAMIC                  ::
         :::::::::::::::::::::::::::::::::::::::::::::::::::::
         :: total free energy        -172.692988133922 Eh   ::
         ::.................................................::
         :: total energy             -173.432739500057 Eh   ::
         :: zero point energy           0.822434694528 Eh   ::
         :: G(RRHO) w/o ZPVE           -0.082683328393 Eh   ::
         :: G(RRHO) contrib.            0.739751366135 Eh   ::
         :::::::::::::::::::::::::::::::::::::::::::::::::::::

           -------------------------------------------------
          | TOTAL ENERGY             -173.432739500057 Eh   |
          | TOTAL ENTHALPY           -172.556443024561 Eh   |
          | TOTAL FREE ENERGY        -172.692988133922 Eh   |
          | GRADIENT NORM               0.000065721650 Eh/α |
          | HOMO-LUMO GAP               1.552176783928 eV   |
           -------------------------------------------------

 * finished run on 2025/07/18 at 19:33:48.986
