   * xtb version 6.7.1 (edcfbbe) compiled by 'albert@albert-system' on 2024-07-22

   ID    Z sym.   atoms
    1    8 O      1, 21, 54
    2    6 C      2-6, 8-20, 22-39, 41-53, 55-68
    3    7 N      7, 40
    4    1 H      69-108

          program call               : xtb data2507/gas/SXAC-BP-SXAC/SXAC-BP-SXAC_gas_T1_crest.xyz --gfn 2 --spinpol --tblite --uhf 2 --ohess vtight --parallel 40 --molden --ceasefiles --namespace data2507/gas/SXAC-BP-SXAC/SXAC-BP-SXAC_gas_T1_finalOpt
 * total energy  :  -173.3579492 Eh     change       -0.5203728E-07 Eh
 * total energy  :  -173.3579894 Eh     change       -0.4014960E-04 Eh
 * total energy  :  -173.3580021 Eh     change       -0.1278949E-04 Eh
 * total energy  :  -173.3580032 Eh     change       -0.1048716E-05 Eh
 * total energy  :  -173.3580038 Eh     change       -0.5807104E-06 Eh
 * total energy  :  -173.3580054 Eh     change       -0.1639752E-05 Eh
 * total energy  :  -173.3580080 Eh     change       -0.2577435E-05 Eh
 * total energy  :  -173.3580106 Eh     change       -0.2612492E-05 Eh
 * total energy  :  -173.3580122 Eh     change       -0.1631882E-05 Eh
 * total energy  :  -173.3580129 Eh     change       -0.7168056E-06 Eh
 * total energy  :  -173.3580199 Eh     change       -0.1679570E-05 Eh
 * total energy  :  -173.3580213 Eh     change       -0.1408794E-05 Eh
 * total energy  :  -173.3580225 Eh     change       -0.1243011E-05 Eh
 * total energy  :  -173.3580238 Eh     change       -0.1307777E-05 Eh
 * total energy  :  -173.3580253 Eh     change       -0.1412180E-05 Eh
 * total energy  :  -173.3580263 Eh     change       -0.1036672E-05 Eh
 * total energy  :  -173.3580269 Eh     change       -0.6226007E-06 Eh
 * total energy  :  -173.3580274 Eh     change       -0.4760762E-06 Eh
 * total energy  :  -173.3580274 Eh     change       -0.5262007E-07 Eh
   *** GEOMETRY OPTIMIZATION CONVERGED AFTER 22 ITERATIONS ***

 final structure:
================
108
 xtb: 6.7.1 (edcfbbe)
O            0.00207565076880        4.63689542728730       -0.06914137886922
C           -0.00138233704608        3.36847123570135       -0.03029639946805
C            1.26148958765032        2.65560342287204       -0.01750380122776
C            1.43069535954321        1.37876493047968        0.54634967981206
C            2.66452940338209        0.77082932593607        0.54813505557142
C            3.77161579108521        1.42147892640436        0.00507885955299
N            5.04000002287577        0.77195927141892       -0.00174685684203
C            5.31240495664341       -0.14870722397478       -0.99359701967731
C            4.36620782259541       -0.40374037398680       -1.99448277308639
C            4.62305817969303       -1.32303701151684       -2.98797745369141
C            5.82827727949171       -2.00842885083317       -3.01278752948287
C            6.77236650567284       -1.75345026747937       -2.03577898365827
C            6.53405647091370       -0.83226065276501       -1.02782922153650
C            7.61404577337153       -0.59166339240456        0.00326479955521
C            8.86432054285511       -0.11447046680082       -0.71201464892292
C            8.82612100118491        1.06759287943634       -1.43963602801160
C            9.94458310890443        1.53254379321131       -2.10328695649406
C           11.12717401286886        0.81166252251027       -2.04566818027143
C           11.18418183989476       -0.36494378801274       -1.32795595614590
C           10.05445336568619       -0.83119531377772       -0.65982293091310
O           10.19914645810719       -2.00297854221913        0.02514009212548
C            9.12751306468874       -2.50866396687282        0.70174763393541
C            9.33812182090507       -3.70562984187558        1.38235654738360
C            8.30938551217622       -4.28805048956135        2.09304823872479
C            7.06306380153541       -3.68252803775372        2.13142761644709
C            6.85729564458932       -2.49580819621151        1.45545823677739
C            7.88049022161933       -1.89471259354954        0.73447934302200
C            7.21055836277041        0.45307004345664        1.01984362471254
C            8.11043013758429        0.78729313547388        2.01974873233984
C            7.79353451962262        1.72314792063034        2.98655631419804
C            6.54838514676442        2.33305158440353        2.95953635633881
C            5.63921646088143        2.01502258683603        1.97440335563045
C            5.95730732629264        1.07701434265205        0.98398571948898
C            3.63251086434297        2.71162187144149       -0.50903727297622
C            2.40391095141148        3.32176923032869       -0.50777205761603
C           -1.26330777961634        2.65731024881305       -0.00366329124944
C           -1.42586258365268        1.33807899702801       -0.46273517149586
C           -2.66323579499069        0.73773908627424       -0.44860668975409
C           -3.78031277876288        1.43606080597912        0.00723446497455
N           -5.05485606733289        0.79696418649815        0.01871833768197
C           -5.41856875597817        0.05126442241787        1.12114466206607
C           -4.56113485379391       -0.03140697351823        2.22559661776586
C           -4.91176037839413       -0.77050362349784        3.33414275480527
C           -6.12354787373498       -1.44378935025761        3.37152569299989
C           -6.97682792563218       -1.36436201745449        2.28672502749200
C           -6.64344935589904       -0.62630506303599        1.16188801610517
C           -7.61779412309172       -0.58541553104732        0.00552747060479
C           -8.94310550567659       -0.04361794968914        0.50700428948030
C           -9.00330072531173        1.24430098905718        1.02256687424489
C          -10.19215734996597        1.77061000786684        1.48863364796140
C          -11.34707772403919        1.00530589203402        1.44374746446697
C          -11.30669585377581       -0.27633536446723        0.93524763865545
C          -10.10619959911654       -0.80414781084655        0.46590255326085
O          -10.15637723930978       -2.07867232205416       -0.02025529706224
C           -9.01419489214436       -2.64499784339858       -0.50651806102698
C           -9.13187638363748       -3.94274577626600       -0.99877817723668
C           -8.02768741524355       -4.59173786601113       -1.51076135717974
C           -6.79789375681439       -3.95274177145249       -1.53686680960531
C           -6.68425341484995       -2.66619798340617       -1.04753048592538
C           -7.78425340992963       -1.99704049724537       -0.52765895823839
C           -7.12929988100629        0.29669302253320       -1.12184675107878
C           -7.93865860347162        0.46028048897584       -2.23511860604311
C           -7.54051670662270        1.24350369568213       -3.30244078425118
C           -6.30625256373151        1.87440262158917       -3.25969845410837
C           -5.48602570008672        1.72426938133229       -2.16296317904647
C           -5.88451011058025        0.93665177208286       -1.07544265298112
C           -3.64615950507618        2.76158030599834        0.42282484651312
C           -2.41366749295731        3.36348300112895        0.40709493596187
H            0.59828491850511        0.88349970108727        1.02198198142884
H            2.79016253767492       -0.21103323490917        0.98287080709852
H            3.42971840941484        0.13156006808398       -1.98475307861364
H            3.87946168188676       -1.50473707927704       -3.74917020922180
H            6.03165017103724       -2.73023890593656       -3.78832867520590
H            7.71752950463780       -2.27702328211608       -2.05144739761491
H            7.90075899222890        1.62388061311828       -1.48028007977979
H            9.89562019085195        2.45339529420627       -2.66362113002589
H           12.00636582699641        1.16722173095656       -2.56098306726071
H           12.09158186519992       -0.94503398509062       -1.26691464703026
H           10.31736418449992       -4.15570036036009        1.33643802344826
H            8.47967765384696       -5.21557698029996        2.61809338941576
H            6.25557219397478       -4.13455904558169        2.68650265514347
H            5.88858660221047       -2.01794772403039        1.48136448732466
H            9.07534428912069        0.30107161109786        2.03721599018354
H            8.50791553806141        1.97103391956891        3.75599898646064
H            6.28346998751959        3.06020876202419        3.71197615229971
H            4.67034415092739        2.48896916874344        1.96272889883705
H            4.49977310830203        3.21860672161735       -0.90689707392057
H            2.27836887011475        4.32024420772534       -0.89743037518130
H           -0.58476426985823        0.80098566854147       -0.87310367063837
H           -2.78381699570566       -0.27552495510467       -0.80578391927979
H           -3.61910363423887        0.49387952353412        2.20241719551003
H           -4.23659949917999       -0.82103957371162        4.17494124916225
H           -6.40071944429494       -2.02386269679021        4.23787050674402
H           -7.92360427455310       -1.88480284045484        2.30813782859792
H           -8.09887831765858        1.83459948632132        1.05417079618864
H          -10.21940691626731        2.77364814347629        1.88550181779162
H          -12.28077302202329        1.40822088402695        1.80544999503044
H          -12.19064398559798       -0.89284042838940        0.88867946589893
H          -10.10028903153697       -4.41683325663342       -0.96710777378620
H           -8.12610536314964       -5.59737554697822       -1.89021250192840
H           -5.93153267044822       -4.45652325567579       -1.93701670577126
H           -5.72863829430770       -2.16237275068405       -1.06467323851608
H           -8.89708398610859       -0.03825265098395       -2.26128117154473
H           -8.18474741630910        1.35909561034956       -4.16002615161909
H           -5.98057946102868        2.48689430002268       -4.08668762132881
H           -4.52617929506523        2.21577006657778       -2.13622585596559
H           -4.52052708244284        3.30291903949734        0.75430570739886
H           -2.29168523265219        4.38952923081184        0.71851539988740

 projected vibrational frequencies (cm⁻¹)
eigval :       -0.00    -0.00    -0.00     0.00     0.00     0.00
eigval :        2.61     4.14     4.43     6.38    12.24    20.00
eigval :       20.11    24.95    29.27    38.61    44.65    44.97
eigval :       51.39    52.41    66.88    67.58    69.13    70.33
eigval :       86.79   105.50   106.19   107.58   120.32   125.52
eigval :      125.62   136.72   151.46   156.29   162.70   181.71
eigval :      194.33   197.57   199.47   212.79   234.53   234.58
eigval :      246.92   252.44   264.60   268.89   278.66   286.26
eigval :      286.38   291.13   293.48   303.34   334.63   336.31
eigval :      370.91   371.40   373.07   381.32   387.61   393.59
eigval :      394.79   396.70   397.26   401.28   402.93   404.62
eigval :      427.38   428.50   429.95   434.68   440.58   441.52
eigval :      450.97   453.27   454.61   454.83   470.71   482.93
eigval :      491.41   491.46   507.25   508.45   513.86   515.32
eigval :      526.33   526.41   541.80   555.04   555.06   560.88
eigval :      584.87   590.48   591.41   594.20   597.32   597.42
eigval :      599.07   602.67   607.72   608.94   613.67   632.88
eigval :      639.77   659.82   667.53   668.66   669.24   669.53
eigval :      675.70   686.55   686.56   690.81   695.85   696.24
eigval :      700.59   700.64   714.23   753.02   770.58   770.69
eigval :      774.73   774.74   780.53   780.61   785.40   785.43
eigval :      796.25   805.29   805.81   810.81   843.77   859.45
eigval :      866.82   866.86   867.73   867.79   868.40   868.53
eigval :      875.13   875.29   875.62   875.74   880.60   893.57
eigval :      895.69   899.37   901.33   902.54   905.17   906.32
eigval :      906.34   909.62   909.74   909.79   910.66   910.85
eigval :      911.49   911.56   913.47   921.34   921.36   922.71
eigval :      922.75   923.78   923.83   924.28   924.32   925.69
eigval :      925.72   936.80   942.08   945.25   945.30  1002.37
eigval :     1008.79  1087.86  1087.95  1088.54  1088.60  1101.28
eigval :     1101.80  1103.06  1103.20  1103.34  1103.69  1115.87
eigval :     1115.92  1124.26  1124.43  1124.98  1130.14  1140.59
eigval :     1141.07  1158.94  1167.04  1174.82  1174.91  1175.81
eigval :     1175.82  1181.33  1181.41  1181.80  1182.03  1183.89
eigval :     1184.05  1186.96  1193.94  1202.81  1211.51  1211.55
eigval :     1216.78  1226.40  1228.48  1228.96  1239.00  1240.98
eigval :     1246.43  1250.50  1250.58  1253.81  1259.47  1259.93
eigval :     1261.10  1261.12  1263.14  1270.09  1270.24  1270.54
eigval :     1270.60  1309.69  1312.94  1317.81  1319.25  1324.93
eigval :     1326.93  1328.12  1328.17  1331.52  1331.63  1332.55
eigval :     1332.70  1336.38  1336.56  1403.85  1405.79  1424.42
eigval :     1424.80  1424.98  1426.30  1426.39  1432.48  1435.15
eigval :     1439.02  1439.11  1443.02  1456.91  1459.11  1459.29
eigval :     1472.16  1472.22  1477.52  1479.98  1483.12  1483.39
eigval :     1491.53  1494.20  1551.31  1559.17  1559.26  1572.05
eigval :     1572.84  1579.82  1579.84  1580.64  1580.78  1587.40
eigval :     1592.24  1593.09  1593.61  1593.63  1596.84  1596.88
eigval :     1604.23  1604.27  3069.07  3069.71  3076.50  3076.55
eigval :     3078.72  3078.89  3079.16  3079.35  3079.36  3079.45
eigval :     3079.70  3079.73  3087.08  3087.17  3088.03  3088.08
eigval :     3088.37  3088.37  3088.55  3088.69  3091.72  3094.15
eigval :     3098.83  3098.87  3099.60  3099.62  3100.11  3100.24
eigval :     3100.43  3100.77  3100.83  3101.00  3106.11  3106.96
eigval :     3107.14  3107.16  3107.67  3107.81  3108.19  3108.60

   temp. (K)  partition function   enthalpy   heat capacity  entropy
                                   cal/mol     cal/K/mol   cal/K/mol   J/K/mol
 298.15  VIB  0.234E+28            31576.457    198.959    200.851
         ROT  0.282E+09              888.752      2.981     41.646
         INT  0.659E+36            32465.209    201.939    242.497
         TR   0.250E+29             1481.254      4.968     46.156
         TOT                       33946.4631   206.9076   288.6525  1207.7219

       T/K    H(0)-H(T)+PV         H(T)/Eh          T*S/Eh         G(T)/Eh
   ------------------------------------------------------------------------
    298.15    0.540971E-01    0.873497E+00    0.137148E+00    0.736349E+00
   ------------------------------------------------------------------------

         :::::::::::::::::::::::::::::::::::::::::::::::::::::
         ::                  THERMODYNAMIC                  ::
         :::::::::::::::::::::::::::::::::::::::::::::::::::::
         :: total free energy        -172.621678901211 Eh   ::
         ::.................................................::
         :: total energy             -173.358027442882 Eh   ::
         :: zero point energy           0.819399513452 Eh   ::
         :: G(RRHO) w/o ZPVE           -0.083050971781 Eh   ::
         :: G(RRHO) contrib.            0.736348541671 Eh   ::
         :::::::::::::::::::::::::::::::::::::::::::::::::::::

           -------------------------------------------------
          | TOTAL ENERGY             -173.358027442882 Eh   |
          | TOTAL ENTHALPY           -172.484530797056 Eh   |
          | TOTAL FREE ENERGY        -172.621678901211 Eh   |
          | GRADIENT NORM               0.000070753618 Eh/α |
           -------------------------------------------------

 * finished run on 2025/07/18 at 19:48:56.000
