   * xtb version 6.7.1 (edcfbbe) compiled by 'albert@albert-system' on 2024-07-22

   ID    Z sym.   atoms
    1    6 C      1-8, 10-18, 20-48, 50-65
    2    7 N      9, 19, 49
    3    1 H      66-112

          program call               : xtb data2507/gas/DPACPhTPI/DPACPhTPI_gas_T1_crest.xyz --gfn 2 --spinpol --tblite --uhf 2 --ohess vtight --parallel 40 --molden --ceasefiles --namespace data2507/gas/DPACPhTPI/DPACPhTPI_gas_T1_finalOpt
 * total energy  :  -165.5033811 Eh     change       -0.3044647E-07 Eh
 * total energy  :  -165.5033898 Eh     change       -0.8758861E-05 Eh
 * total energy  :  -165.5033930 Eh     change       -0.3200862E-05 Eh
 * total energy  :  -165.5033937 Eh     change       -0.7142486E-06 Eh
 * total energy  :  -165.5033946 Eh     change       -0.8860315E-06 Eh
 * total energy  :  -165.5033957 Eh     change       -0.1088956E-05 Eh
 * total energy  :  -165.5033969 Eh     change       -0.1212876E-05 Eh
 * total energy  :  -165.5033980 Eh     change       -0.1096976E-05 Eh
 * total energy  :  -165.5033990 Eh     change       -0.9470859E-06 Eh
 * total energy  :  -165.5034002 Eh     change       -0.1243559E-05 Eh
 * total energy  :  -165.5034095 Eh     change       -0.1874353E-05 Eh
 * total energy  :  -165.5034118 Eh     change       -0.2297621E-05 Eh
 * total energy  :  -165.5034138 Eh     change       -0.1996316E-05 Eh
 * total energy  :  -165.5034160 Eh     change       -0.2206510E-05 Eh
 * total energy  :  -165.5034181 Eh     change       -0.2119665E-05 Eh
 * total energy  :  -165.5034200 Eh     change       -0.1856359E-05 Eh
 * total energy  :  -165.5034215 Eh     change       -0.1546471E-05 Eh
 * total energy  :  -165.5034215 Eh     change        0.2154098E-07 Eh
 * total energy  :  -165.5034215 Eh     change       -0.3330743E-07 Eh
   *** GEOMETRY OPTIMIZATION CONVERGED AFTER 23 ITERATIONS ***

 final structure:
================
112
 xtb: 6.7.1 (edcfbbe)
C           -4.01992861610928        6.15899610887509       -1.26776765799631
C           -4.54440697562386        5.59647132380629        0.05607649467552
C           -5.86467801526017        6.30629686216713        0.38805292160616
C           -3.50469959794413        5.89093851237303        1.14674443778232
C           -4.78957664166919        4.09722749316090        0.00000211396314
C           -4.55664116077543        3.33469107956080       -1.13900346762073
C           -4.79301875788133        1.97178395103810       -1.15390266178444
C           -5.27148607773097        1.33457010075575       -0.01629039550626
N           -5.51773680662433       -0.05115954480013       -0.02831434033115
C           -4.55159693087918       -1.07688099665533        0.00855077624813
C           -3.16824400826694       -0.95809332020762        0.16030079228687
C           -2.39270689708671       -2.16260769484340        0.08322073675613
C           -1.04698164470884       -2.15862815752457        0.22627528308428
C           -0.31671015524130       -0.96123126932225        0.49943348088766
C            1.09340066208234       -0.96819853229492        0.69159054176650
C            1.77909617098587        0.09205686251045        1.33571295626279
C            3.12648909392427        0.05773704816895        1.56466616089791
C            3.90858633541495       -1.03746318224473        1.15674899037262
N            5.27332534522540       -1.05741597133170        1.35720244224995
C            5.98998377242821        0.03937040722072        1.87295802176459
C            5.76086511885899        0.52737802553236        3.15313079821181
C            6.52193010841020        1.57921292951674        3.62949201924076
C            7.51359569170925        2.13466114384433        2.83828583129539
C            7.75894358336175        1.63278058726127        1.56964287252626
C            7.00966005273113        0.57742593538318        1.08079592682268
C            7.15075966852714       -0.03530445367471       -0.30401858944234
C            8.41125902340607        0.42385211281701       -1.00158723186570
C            9.64291049917125        0.17446207287692       -0.40042705685157
C           10.81777972481834        0.57837349484986       -1.00556263981072
C           10.78057133358027        1.23901948095413       -2.22280509452713
C            9.56169861290168        1.49035205065078       -2.82619807021104
C            8.38345687535709        1.08567979570620       -2.22032229383274
C            5.88342427125125        0.31174191028962       -1.08675251452121
C            5.34688940228238       -0.58701967855090       -2.00060848738420
C            4.15430272615702       -0.30917731731925       -2.64373836393440
C            3.48418216639037        0.87425961967698       -2.38969827834596
C            4.03144086924667        1.79164824210354       -1.51040149287333
C            5.22380933275455        1.51480989155329       -0.86654944507624
C            7.14390317340202       -1.53774736920357       -0.06838967348039
C            8.01689383020301       -2.44199319487996       -0.64667816647470
C            7.89308298498829       -3.79753661380084       -0.38487415669369
C            6.90093271748878       -4.25689156822189        0.46513348394885
C            6.01691697750076       -3.36620898671389        1.04639448126049
C            6.12307919970534       -2.01052766460928        0.76331056655124
C            3.25804220682966       -2.06770618930426        0.45408210347158
C            1.90834511192093       -2.03778935787333        0.24194425236943
C           -1.09508841725687        0.23092375721290        0.59448127845148
C           -2.44153000937181        0.24396674746590        0.42266593816985
N           -5.15438543549663       -2.28051148179409       -0.07347796056771
C           -6.45959886184842       -2.05606468864596       -0.13816283426473
C           -7.50798730549112       -3.02192784542655       -0.19825934705600
C           -7.22021976447939       -4.38811464376353       -0.18144162707467
C           -8.23645866798658       -5.31492990165095       -0.21646686631279
C           -9.55505542179457       -4.87432070703742       -0.26477058827586
C           -9.84941196715761       -3.52826829472345       -0.28511322872042
C           -8.84108134943085       -2.55385746740075       -0.25774901791427
C           -9.11769214771438       -1.12879570220514       -0.29785959380820
C          -10.42250639666323       -0.63875499846798       -0.40597963075519
C          -10.70040377733039        0.70869479340982       -0.46811115454149
C           -9.66021709405498        1.63745297166843       -0.43602086998811
C           -8.36556444300681        1.20509621938669       -0.32599928578955
C           -8.05496112133520       -0.16855264430072       -0.24184655969714
C           -6.74138543763093       -0.66416764776705       -0.12435645977632
C           -5.50928755487990        2.08138166995858        1.13376639531162
C           -5.26933739305553        3.44006419245682        1.13246541847931
H           -4.73413687058538        5.99912377696257       -2.07223595747049
H           -3.06932898995713        5.70479270472136       -1.53764229978253
H           -3.86273216810772        7.23105911207097       -1.16780597555792
H           -5.71312404136728        7.38317720572995        0.41700351275649
H           -6.25394811849980        5.99211613844808        1.35246174018808
H           -6.61233276722788        6.08361274495863       -0.37055979323057
H           -3.29851057440334        6.95828826478591        1.18836631608960
H           -2.57524140787312        5.36797890145804        0.93080785587126
H           -3.85424493150691        5.57426595544627        2.12544213309829
H           -4.18723756942211        3.79303798157099       -2.04132179454252
H           -4.60346391748698        1.39310073747222       -2.04590939631808
H           -2.93279636527550       -3.07866936214414       -0.09382359191507
H           -0.51608109824072       -3.09698537251834        0.17924609617171
H            1.22558677484402        0.94831562390266        1.68735414225241
H            3.59766043544228        0.89907419341917        2.04869234344099
H            4.99846921647439        0.07463353021154        3.76909236210231
H            6.34264265705429        1.96237973537730        4.62273974804163
H            8.10100247609655        2.96128067293489        3.20817333378227
H            8.52873775041079        2.07641890926657        0.95606086306230
H            9.67539707009593       -0.34090807291216        0.54947927658778
H           11.76488679316501        0.37732099500687       -0.52640022410744
H           11.69793092847142        1.55535640420224       -2.69679587484397
H            9.52357921422195        2.00478766176215       -3.77524786606662
H            7.43859115734727        1.28810369134438       -2.70243126058367
H            5.85893998865897       -1.51638838227508       -2.20439670231077
H            3.74348417423788       -1.02575205547324       -3.33943191625743
H            2.54319462298652        1.08149651647666       -2.87652826427033
H            3.52450383414879        2.72534394704789       -1.31615696346542
H            5.63930306405862        2.23738867664396       -0.17891153343324
H            8.78924519830170       -2.09239237397462       -1.31534966512282
H            8.57607978504998       -4.49482664631817       -0.84575592964731
H            6.81661221256141       -5.31143052268266        0.68016762450446
H            5.25294468437288       -3.71221070152384        1.72621737171359
H            3.83554503542374       -2.88252009286801        0.04595587870186
H            1.46426238225199       -2.83766465064344       -0.32917856603673
H           -0.59408977925831        1.16969719314276        0.77725585110551
H           -2.96817104286181        1.18053817260776        0.50579380897138
H           -6.18364368375113       -4.68387119252328       -0.13646502203542
H           -8.01743693929126       -6.37225179665983       -0.20303688233663
H          -10.36056551301771       -5.59455612297671       -0.28658311925454
H          -10.88753793171619       -3.23807450667952       -0.32050848112069
H          -11.25139613165274       -1.32712501893274       -0.44894773644523
H          -11.72312436393709        1.04557417649260       -0.55036220327542
H           -9.87527973835425        2.69403256325941       -0.50048883640627
H           -7.56594446232378        1.92760069484204       -0.31482376407988
H           -5.88390062428863        1.58883681852729        2.01911261442020
H           -5.46167285834175        3.99339505349299        2.03891086856460

 projected vibrational frequencies (cm⁻¹)
eigval :       -0.00    -0.00    -0.00     0.00     0.00     0.00
eigval :        2.92     5.26    10.59    15.77    16.26    18.10
eigval :       22.61    28.06    39.86    43.22    47.21    50.02
eigval :       51.71    56.88    62.87    66.74    75.30    84.24
eigval :       85.44    87.11    88.60    89.57    98.36   117.01
eigval :      123.16   131.48   154.97   160.45   168.03   174.50
eigval :      180.50   202.19   212.97   213.96   217.70   227.59
eigval :      230.96   240.05   247.37   255.66   259.97   261.64
eigval :      266.95   280.60   290.91   306.21   307.82   316.06
eigval :      319.10   328.50   334.03   349.00   359.37   366.49
eigval :      369.64   373.28   376.28   379.45   381.13   385.39
eigval :      388.23   394.13   395.53   406.32   413.17   417.30
eigval :      434.56   438.66   446.09   456.45   457.53   463.47
eigval :      473.34   474.18   480.45   487.82   500.69   505.02
eigval :      510.47   521.40   526.33   534.27   546.59   582.12
eigval :      582.56   587.46   588.39   589.24   591.01   596.60
eigval :      605.03   605.76   613.04   613.97   617.41   622.91
eigval :      644.18   646.68   659.87   662.59   665.72   669.17
eigval :      670.42   672.90   674.22   688.32   695.02   699.50
eigval :      715.64   720.85   728.20   744.99   754.93   755.19
eigval :      756.42   757.36   775.35   780.99   782.22   787.22
eigval :      787.82   797.63   808.00   820.14   824.37   853.80
eigval :      867.26   867.82   878.10   881.56   882.32   883.20
eigval :      885.26   891.98   896.71   898.71   900.26   901.85
eigval :      903.14   904.91   908.21   909.29   911.33   911.51
eigval :      912.84   914.62   919.64   921.16   922.09   922.96
eigval :      926.29   926.65   930.69   931.37   931.77   932.53
eigval :      932.89   935.46   939.22   941.02   949.94   960.76
eigval :      962.84   963.55   985.10   990.74  1000.02  1004.02
eigval :     1009.76  1030.93  1034.96  1035.56  1060.43  1082.20
eigval :     1087.66  1090.79  1091.24  1092.26  1094.47  1104.00
eigval :     1110.19  1112.84  1126.75  1130.26  1137.70  1139.20
eigval :     1143.43  1144.81  1160.51  1163.86  1173.48  1178.26
eigval :     1179.02  1181.72  1182.11  1182.32  1183.18  1190.17
eigval :     1198.07  1200.74  1204.18  1205.03  1207.20  1210.75
eigval :     1215.28  1226.34  1227.82  1233.66  1241.63  1246.76
eigval :     1251.78  1252.72  1254.84  1260.08  1263.73  1274.08
eigval :     1274.53  1283.40  1284.81  1288.07  1288.38  1288.70
eigval :     1291.23  1308.24  1311.74  1319.28  1319.38  1324.83
eigval :     1329.16  1331.30  1333.92  1338.63  1340.61  1348.12
eigval :     1364.97  1379.88  1395.10  1398.14  1405.98  1409.18
eigval :     1411.08  1419.61  1428.27  1430.04  1431.75  1432.28
eigval :     1434.11  1440.08  1441.62  1442.53  1445.54  1456.57
eigval :     1465.62  1472.22  1474.28  1477.99  1478.63  1486.77
eigval :     1491.50  1493.17  1493.38  1502.19  1506.23  1509.62
eigval :     1514.38  1515.93  1518.68  1542.96  1547.74  1560.93
eigval :     1565.57  1567.06  1572.30  1577.89  1580.93  1584.05
eigval :     1586.93  1588.94  1589.56  1595.02  1598.39  1601.32
eigval :     1603.50  3023.41  3025.17  3027.46  3030.43  3032.03
eigval :     3036.14  3038.85  3046.52  3050.22  3069.80  3070.22
eigval :     3074.07  3075.03  3075.58  3076.59  3079.45  3081.46
eigval :     3081.94  3082.41  3082.46  3083.52  3083.99  3084.76
eigval :     3085.06  3086.53  3087.00  3087.24  3088.02  3089.66
eigval :     3091.82  3093.20  3093.38  3094.16  3094.62  3094.89
eigval :     3095.43  3097.34  3099.82  3100.52  3104.16  3104.83
eigval :     3105.16  3107.85  3112.88  3118.55  3121.31  3124.01

   temp. (K)  partition function   enthalpy   heat capacity  entropy
                                   cal/mol     cal/K/mol   cal/K/mol   J/K/mol
 298.15  VIB  0.456E+27            32185.636    201.378    203.417
         ROT  0.251E+09              888.752      2.981     41.418
         INT  0.114E+36            33074.389    204.359    244.834
         TR   0.233E+29             1481.254      4.968     46.020
         TOT                       34555.6426   209.3272   290.8541  1216.9337

       T/K    H(0)-H(T)+PV         H(T)/Eh          T*S/Eh         G(T)/Eh
   ------------------------------------------------------------------------
    298.15    0.550679E-01    0.938219E+00    0.138194E+00    0.800024E+00
   ------------------------------------------------------------------------

         :::::::::::::::::::::::::::::::::::::::::::::::::::::
         ::                  THERMODYNAMIC                  ::
         :::::::::::::::::::::::::::::::::::::::::::::::::::::
         :: total free energy        -164.703397121032 Eh   ::
         ::.................................................::
         :: total energy             -165.503421530394 Eh   ::
         :: zero point energy           0.883150668117 Eh   ::
         :: G(RRHO) w/o ZPVE           -0.083126258755 Eh   ::
         :: G(RRHO) contrib.            0.800024409361 Eh   ::
         :::::::::::::::::::::::::::::::::::::::::::::::::::::

           -------------------------------------------------
          | TOTAL ENERGY             -165.503421530394 Eh   |
          | TOTAL ENTHALPY           -164.565202940638 Eh   |
          | TOTAL FREE ENERGY        -164.703397121032 Eh   |
          | GRADIENT NORM               0.000100115546 Eh/α |
           -------------------------------------------------

 * finished run on 2025/08/21 at 15:21:36.154
