   * xtb version 6.7.1 (edcfbbe) compiled by 'albert@albert-system' on 2024-07-22

   ID    Z sym.   atoms
    1    6 C      1-8, 10-18, 20-48, 50-65
    2    7 N      9, 19, 49
    3    1 H      66-112

          program call               : xtb data2507/gas/DPACPhTPI/DPACPhTPI_gas_S0_crest.xyz --gfn 2 --ohess vtight --parallel 40 --molden --ceasefiles --namespace data2507/gas/DPACPhTPI/DPACPhTPI_gas_S0_finalOpt
          :  Hamiltonian                  GFN2-xTB          :
 * total energy  :  -165.5859527 Eh     change       -0.5566079E-08 Eh
 * total energy  :  -165.5859569 Eh     change       -0.4207811E-05 Eh
 * total energy  :  -165.5859590 Eh     change       -0.2148252E-05 Eh
 * total energy  :  -165.5859588 Eh     change        0.2522169E-06 Eh
 * total energy  :  -165.5859606 Eh     change       -0.1824925E-05 Eh
 * total energy  :  -165.5859635 Eh     change       -0.2881517E-05 Eh
 * total energy  :  -165.5859675 Eh     change       -0.4020984E-05 Eh
 * total energy  :  -165.5859714 Eh     change       -0.3903162E-05 Eh
 * total energy  :  -165.5859740 Eh     change       -0.2536536E-05 Eh
 * total energy  :  -165.5859759 Eh     change       -0.1931788E-05 Eh
 * total energy  :  -165.5860330 Eh     change       -0.4008284E-06 Eh
 * total energy  :  -165.5860333 Eh     change       -0.2696804E-06 Eh
 * total energy  :  -165.5860335 Eh     change       -0.2371998E-06 Eh
 * total energy  :  -165.5860338 Eh     change       -0.2849964E-06 Eh
 * total energy  :  -165.5860341 Eh     change       -0.3313201E-06 Eh
 * total energy  :  -165.5860345 Eh     change       -0.3518840E-06 Eh
 * total energy  :  -165.5860349 Eh     change       -0.4531639E-06 Eh
 * total energy  :  -165.5860356 Eh     change       -0.6295643E-06 Eh
 * total energy  :  -165.5860356 Eh     change       -0.4448196E-08 Eh
   *** GEOMETRY OPTIMIZATION CONVERGED AFTER 68 ITERATIONS ***

 final structure:
================
112
 xtb: 6.7.1 (edcfbbe)
C           -5.18660013832584        6.21812421978540       -1.21087659709674
C           -4.71013562742397        5.46009281571177        0.03105751691668
C           -5.35871249259047        6.10545985890520        1.26381993596542
C           -3.18267611202577        5.59066206899380        0.11590188932548
C           -5.07460913756026        3.98489712789000       -0.00618615675029
C           -5.75840659365598        3.40199142513078       -1.06763915779642
C           -6.06017827916973        2.05227370180265       -1.07449043453857
C           -5.68705203803177        1.24992025874340       -0.00382887724394
N           -5.94984093277465       -0.13402480091218       -0.02038149021659
C           -4.98805887559614       -1.12023060983454       -0.05104476381925
C           -3.55407614352971       -0.88903766604286       -0.07601017910686
C           -2.73039906781032       -1.82426047107621        0.55337518288586
C           -1.36193505761193       -1.66390347069299        0.56178702720881
C           -0.76973179191096       -0.56339974480746       -0.05705955297672
C            0.68756980187179       -0.38084524156884       -0.03604850780846
C            1.24089221721380        0.88409366988612        0.15732954467289
C            2.61009139340678        1.06077279396874        0.17853483301539
C            3.45450099936467       -0.03016518926835        0.00449667718549
N            4.86729581912961        0.11937093990216        0.00932746819274
C            5.51779594070458        0.35125793790228       -1.19405004164852
C            4.79660394010956        0.64679946685231       -2.35128083978644
C            5.45389137389728        0.92209211499856       -3.53388684668117
C            6.83705801758033        0.91896661674745       -3.57981030759998
C            7.55709544205346        0.60743828685421       -2.43927637360588
C            6.91589191263993        0.31237764786806       -1.24676660030625
C            7.67630231844835       -0.16282712006002       -0.02542168643589
C            9.09014040302648        0.38764268740825       -0.06047270217262
C            9.26214874177545        1.76684661087861        0.02501268099949
C           10.52456690365718        2.32553365699272       -0.01988914262787
C           11.63878390117160        1.51330958468857       -0.15695738052583
C           11.47630872204281        0.14339665784515       -0.25367856067253
C           10.21008742537635       -0.41731884637339       -0.20802593962751
C            7.66150592283471       -1.69359311638435        0.01918368297963
C            8.02326475461395       -2.35165019692276        1.19045235704374
C            8.01075081139245       -3.73210188457874        1.26154386521765
C            7.63191485106270       -4.48348196780574        0.16191942907203
C            7.27459516160425       -3.83918400790259       -1.00839249105853
C            7.29084467557053       -2.45628204585599       -1.08053176564623
C            6.94192332244158        0.30933206763088        1.21693755953954
C            7.61008203709285        0.60622083975478        2.39415404515146
C            6.91798435952096        0.87297722811016        3.56292651098067
C            5.53562691529114        0.81803536134364        3.56294632502762
C            4.85029382962517        0.55126097842078        2.39450429091174
C            5.54179420297989        0.32192039184152        1.20485104535772
C            2.91476818477887       -1.29384254669574       -0.19407300747401
C            1.54415584351706       -1.46586750834258       -0.21123792334155
C           -1.59277395762314        0.35512606173582       -0.70515256393305
C           -2.96318656399266        0.19461946748092       -0.72416502358859
N           -5.51503268770864       -2.32041675780835       -0.05759840418666
C           -6.86017905478032       -2.13994852632322       -0.03821013977494
C           -7.87535411823454       -3.13607371248230       -0.07630492402391
C           -7.55389827175583       -4.49519516229051       -0.15240978738168
C           -8.54733784464879       -5.43957425162015       -0.22015129415054
C           -9.87985555740588       -5.03202672782403       -0.21666082215363
C          -10.20710875053841       -3.69864314341338       -0.13653088840411
C           -9.22086912565176       -2.70350042638455       -0.05649315278766
C           -9.53412378610301       -1.28973627034522        0.06231083192655
C          -10.85724108694980       -0.83653357739673        0.16089602847539
C          -11.16351411839421        0.49462091828330        0.31585056517813
C          -10.14615696738997        1.43986791590901        0.39660102831086
C           -8.83673789166183        1.03922362082157        0.29701786518383
C           -8.50397961095011       -0.31020260851497        0.11071022589490
C           -7.16471598186785       -0.77957255832645       -0.00010321309601
C           -5.00850347991221        1.81501135067249        1.06830321329419
C           -4.71046234920793        3.16271378693685        1.05831107901053
H           -6.26909503706746        6.17441472297782       -1.30600117779803
H           -4.73127600105836        5.81824965516013       -2.11399093350925
H           -4.90013518827405        7.26436650793597       -1.12717279017830
H           -6.44019286309468        5.99350225589555        1.22209744793449
H           -5.12329704319619        7.16691217757710        1.29672302374707
H           -5.00433989110945        5.65065085996643        2.18454635230750
H           -2.89768264530553        6.64035584852144        0.12656086040093
H           -2.71623785055658        5.11540650759342       -0.74471821949276
H           -2.79305804568909        5.12335452736537        1.01600546073930
H           -6.06427882467829        3.99199835167756       -1.91558352945084
H           -6.58763304300904        1.61428609346851       -1.90972758029580
H           -3.19120658050903       -2.67256441097072        1.03471913879087
H           -0.74134448671500       -2.38454285198985        1.07380042880763
H            0.59014773597446        1.73281773830365        0.30893196227762
H            3.03484156938449        2.04306023592936        0.32800024098641
H            3.71756472176270        0.66025384117992       -2.32004255978101
H            4.88020611039972        1.14517898628298       -4.42131976059229
H            7.35434461041287        1.13920116125058       -4.50105507434473
H            8.63565050841428        0.57128573848139       -2.48161544667766
H            8.39358105618299        2.40196924859175        0.12836350452214
H           10.64083392779450        3.39729995508438        0.05070501592529
H           12.62701468915499        1.94788988788678       -0.19162406592640
H           12.33886713023667       -0.49724345691971       -0.36753194109307
H           10.09919434064810       -1.48830866100640       -0.29145172374287
H            8.31896753130254       -1.77887713396930        2.05655891898393
H            8.29716747274388       -4.22277015783772        2.18051863032471
H            7.61766241778429       -5.56209437917993        0.21733001258918
H            6.98113742783107       -4.41342215225262       -1.87546740869818
H            7.01423055185156       -1.97505946419075       -2.00666717086760
H            8.69057666392509        0.61956627535696        2.40093933070129
H            7.45733651675815        1.09829364891849        4.47028529288326
H            4.98376407526055        0.99183464154189        4.47488797600652
H            3.77158902581256        0.51716956952565        2.40276299706365
H            3.57915403585239       -2.13345316733070       -0.33700464016535
H            1.13074186544308       -2.44841263009046       -0.38299006965105
H           -1.15051695826066        1.19207262827267       -1.22584435164343
H           -3.56828555231786        0.90473169717266       -1.26648028219850
H           -6.50962196907362       -4.76623298756749       -0.16246847698725
H           -8.30407462912077       -6.49013380542275       -0.28076113515395
H          -10.66575429653377       -5.77117493517042       -0.27753166498103
H          -11.25199895282242       -3.43146964356599       -0.14017110005802
H          -11.67015347951999       -1.54361365649311        0.12483989132574
H          -12.19549028601326        0.80527381362200        0.38810106355056
H          -10.38375437755303        2.48349933211401        0.54147354477417
H           -8.05095361749192        1.77329066498800        0.37890243820084
H           -4.71371169235832        1.19268684166097        1.90030892405177
H           -4.18140750170387        3.57408551723904        1.90397126584040

          :  Hamiltonian                  GFN2-xTB          :
         :: gradient norm              0.000047246210 Eh/a0 ::
         :: HOMO-LUMO gap              2.192090830741 eV    ::
         :: SCC energy              -168.683257596334 Eh    ::
         :: -> dispersion             -0.164651645925 Eh    ::
         :: repulsion energy           3.097222023974 Eh    ::

    * Orbital Energies and Occupations

         #    Occupation            Energy/Eh            Energy/eV
      -------------------------------------------------------------
         1        2.0000           -0.6842084             -18.6183
       ...           ...                  ...                  ...
       143        2.0000           -0.4016100             -10.9284
       144        2.0000           -0.4010058             -10.9119
       145        2.0000           -0.3993844             -10.8678
       146        2.0000           -0.3976894             -10.8217
       147        2.0000           -0.3953942             -10.7592
       148        2.0000           -0.3939935             -10.7211
       149        2.0000           -0.3913667             -10.6496
       150        2.0000           -0.3886164             -10.5748
       151        2.0000           -0.3847461             -10.4695
       152        2.0000           -0.3778840             -10.2827
       153        2.0000           -0.3732879             -10.1577
       154        2.0000           -0.3603123              -9.8046
       155        2.0000           -0.3460071              -9.4153 (HOMO)
       156                         -0.2654493              -7.2232 (LUMO)
       157                         -0.2478263              -6.7437
       158                         -0.2446796              -6.6581
       159                         -0.2381434              -6.4802
       160                         -0.2361591              -6.4262
       161                         -0.2340886              -6.3699
       162                         -0.2271895              -6.1821
       163                         -0.2244619              -6.1079
       164                         -0.2242544              -6.1023
       165                         -0.2225225              -6.0551
       166                         -0.2205894              -6.0025
       ...                                ...                  ...
       307                          0.7314575              19.9040
      -------------------------------------------------------------
                  HL-Gap            0.0805578 Eh            2.1921 eV

     #   Z          covCN         q      C6AA      α(0)
     1   6 C        3.761    -0.109    22.627     6.781
     2   6 C        3.903     0.026    20.079     6.369
     3   6 C        3.762    -0.106    22.581     6.774
     4   6 C        3.762    -0.106    22.570     6.772
     5   6 C        2.973     0.010    27.787     8.647
     6   6 C        2.925    -0.038    28.950     8.824
     7   6 C        2.920    -0.040    28.997     8.830
     8   6 C        2.913     0.063    26.580     8.454
     9   7 N        2.841    -0.045    22.100     6.982
    10   6 C        3.193     0.126    24.769     8.116
    11   6 C        2.974     0.002    27.970     8.675
    12   6 C        2.927    -0.028    28.703     8.786
    13   6 C        2.923    -0.033    28.812     8.802
    14   6 C        2.977     0.010    27.792     8.648
    15   6 C        2.976     0.010    27.783     8.646
    16   6 C        2.925    -0.035    28.859     8.810
    17   6 C        2.919    -0.039    28.959     8.825
    18   6 C        2.926     0.067    26.500     8.442
    19   7 N        2.754    -0.076    22.724     7.080
    20   6 C        2.934     0.060    26.661     8.468
    21   6 C        2.922    -0.057    29.424     8.895
    22   6 C        2.920    -0.033    28.824     8.804
    23   6 C        2.918    -0.044    29.090     8.845
    24   6 C        2.923    -0.036    28.894     8.815
    25   6 C        2.987    -0.010    28.251     8.719
    26   6 C        3.923     0.009    20.360     6.413
    27   6 C        2.978     0.015    27.664     8.628
    28   6 C        2.926    -0.031    28.784     8.798
    29   6 C        2.919    -0.030    28.761     8.794
    30   6 C        2.920    -0.033    28.816     8.803
    31   6 C        2.920    -0.031    28.766     8.795
    32   6 C        2.922    -0.036    28.900     8.816
    33   6 C        2.980     0.013    27.715     8.636
    34   6 C        2.925    -0.035    28.872     8.812
    35   6 C        2.920    -0.031    28.769     8.796
    36   6 C        2.919    -0.033    28.819     8.803
    37   6 C        2.920    -0.031    28.776     8.797
    38   6 C        2.923    -0.037    28.908     8.817
    39   6 C        2.990    -0.010    28.261     8.720
    40   6 C        2.923    -0.036    28.886     8.814
    41   6 C        2.918    -0.044    29.104     8.847
    42   6 C        2.920    -0.033    28.827     8.805
    43   6 C        2.922    -0.058    29.444     8.898
    44   6 C        2.931     0.059    26.683     8.472
    45   6 C        2.921    -0.038    28.945     8.823
    46   6 C        2.925    -0.033    28.815     8.803
    47   6 C        2.924    -0.034    28.850     8.808
    48   6 C        2.920    -0.035    28.869     8.811
    49   7 N        1.895    -0.292    28.422     7.904
    50   6 C        3.207     0.057    26.137     8.325
    51   6 C        2.986     0.003    27.959     8.674
    52   6 C        2.922    -0.031    28.779     8.797
    53   6 C        2.917    -0.030    28.758     8.794
    54   6 C        2.917    -0.033    28.824     8.804
    55   6 C        2.922    -0.035    28.869     8.811
    56   6 C        2.979    -0.002    28.061     8.689
    57   6 C        2.980     0.002    27.980     8.677
    58   6 C        2.922    -0.034    28.843     8.807
    59   6 C        2.916    -0.034    28.837     8.806
    60   6 C        2.917    -0.032    28.799     8.800
    61   6 C        2.919    -0.040    29.000     8.831
    62   6 C        2.978    -0.002    28.065     8.690
    63   6 C        3.075     0.020    27.482     8.595
    64   6 C        2.920    -0.041    29.013     8.833
    65   6 C        2.928    -0.033    28.814     8.803
    66   1 H        0.925     0.037     2.485     2.465
    67   1 H        0.925     0.037     2.490     2.468
    68   1 H        0.925     0.039     2.457     2.451
    69   1 H        0.925     0.035     2.513     2.479
    70   1 H        0.925     0.040     2.443     2.444
    71   1 H        0.925     0.038     2.481     2.463
    72   1 H        0.925     0.041     2.441     2.443
    73   1 H        0.925     0.034     2.526     2.485
    74   1 H        0.925     0.037     2.486     2.466
    75   1 H        0.926     0.045     2.380     2.412
    76   1 H        0.926     0.040     2.453     2.449
    77   1 H        0.926     0.054     2.270     2.356
    78   1 H        0.926     0.038     2.478     2.462
    79   1 H        0.926     0.037     2.486     2.465
    80   1 H        0.926     0.040     2.445     2.445
    81   1 H        0.926     0.024     2.675     2.558
    82   1 H        0.926     0.028     2.621     2.532
    83   1 H        0.926     0.027     2.632     2.537
    84   1 H        0.926     0.030     2.592     2.518
    85   1 H        0.926     0.028     2.617     2.530
    86   1 H        0.926     0.028     2.610     2.527
    87   1 H        0.926     0.028     2.615     2.529
    88   1 H        0.926     0.028     2.613     2.528
    89   1 H        0.926     0.030     2.585     2.514
    90   1 H        0.926     0.033     2.543     2.494
    91   1 H        0.926     0.028     2.611     2.527
    92   1 H        0.926     0.028     2.615     2.529
    93   1 H        0.926     0.028     2.619     2.531
    94   1 H        0.926     0.031     2.579     2.511
    95   1 H        0.926     0.029     2.599     2.521
    96   1 H        0.926     0.026     2.639     2.540
    97   1 H        0.926     0.027     2.624     2.533
    98   1 H        0.926     0.025     2.654     2.547
    99   1 H        0.926     0.042     2.423     2.434
   100   1 H        0.926     0.041     2.433     2.439
   101   1 H        0.926     0.033     2.549     2.497
   102   1 H        0.926     0.029     2.597     2.520
   103   1 H        0.926     0.050     2.321     2.382
   104   1 H        0.926     0.029     2.594     2.519
   105   1 H        0.926     0.027     2.625     2.534
   106   1 H        0.926     0.030     2.587     2.515
   107   1 H        0.926     0.034     2.534     2.489
   108   1 H        0.926     0.028     2.618     2.530
   109   1 H        0.926     0.026     2.648     2.545
   110   1 H        0.926     0.026     2.640     2.541
   111   1 H        0.926     0.036     2.496     2.471
   112   1 H        0.926     0.038     2.473     2.459

molecular dipole:
                 x           y           z       tot (Debye)
 q only:       -0.238       1.192       0.054
   full:       -0.464       1.585       0.065       4.200

 projected vibrational frequencies (cm⁻¹)
eigval :       -0.00    -0.00    -0.00     0.00     0.00     0.00
eigval :        2.98     5.95     8.21    11.17    15.24    18.07
eigval :       22.36    27.14    28.59    36.17    45.53    45.93
eigval :       55.66    60.50    62.72    67.76    70.49    76.52
eigval :       82.33    84.65    85.15    88.45    97.89   111.06
eigval :      126.50   134.16   142.04   167.12   172.72   179.08
eigval :      181.95   199.71   206.55   208.61   214.94   227.54
eigval :      233.92   235.52   249.24   256.08   263.42   268.71
eigval :      273.70   281.99   294.95   301.55   309.24   316.13
eigval :      318.96   341.91   352.91   361.70   367.75   368.84
eigval :      373.03   373.31   375.79   380.52   383.11   394.44
eigval :      398.17   398.47   411.78   418.40   429.80   433.09
eigval :      434.69   444.89   450.66   452.18   455.62   466.98
eigval :      474.45   485.64   495.87   503.50   511.82   517.89
eigval :      520.74   525.83   535.29   543.91   547.20   584.83
eigval :      588.40   588.77   593.03   593.80   601.68   601.90
eigval :      608.19   608.93   611.41   612.14   631.83   644.52
eigval :      654.47   664.12   669.07   671.87   673.06   675.19
eigval :      682.37   684.37   691.62   692.96   696.33   706.82
eigval :      713.71   724.11   735.67   754.24   756.67   757.49
eigval :      763.82   766.39   775.08   778.06   782.59   798.93
eigval :      807.80   823.41   833.12   862.72   866.91   868.13
eigval :      870.11   870.95   875.10   877.38   878.17   879.73
eigval :      883.89   894.23   899.54   901.08   904.57   907.26
eigval :      912.14   913.96   915.08   915.75   916.00   917.57
eigval :      919.85   921.73   923.22   923.94   924.79   927.28
eigval :      927.60   927.77   930.57   931.53   932.48   933.05
eigval :      933.47   940.14   945.57   960.23   961.01   963.57
eigval :      964.24   986.22   991.35  1001.08  1010.95  1018.60
eigval :     1033.33  1035.69  1036.21  1073.80  1079.72  1086.11
eigval :     1088.09  1092.03  1106.21  1107.34  1108.50  1119.95
eigval :     1123.88  1128.55  1131.02  1133.61  1135.77  1142.28
eigval :     1143.25  1145.84  1153.30  1175.01  1182.01  1182.29
eigval :     1182.71  1183.16  1184.49  1185.04  1186.13  1186.51
eigval :     1199.41  1201.64  1204.18  1205.53  1212.32  1215.75
eigval :     1219.72  1225.36  1228.00  1234.09  1243.61  1253.99
eigval :     1258.04  1263.68  1266.76  1267.65  1271.90  1275.78
eigval :     1283.96  1286.00  1288.08  1288.82  1292.45  1308.01
eigval :     1311.27  1314.02  1318.10  1320.87  1320.94  1327.87
eigval :     1329.19  1333.97  1337.70  1339.53  1340.13  1349.46
eigval :     1379.54  1392.91  1399.59  1406.90  1407.41  1410.04
eigval :     1411.48  1422.16  1430.46  1431.53  1433.15  1434.58
eigval :     1437.05  1440.62  1443.09  1462.38  1470.91  1474.50
eigval :     1476.48  1486.02  1491.25  1491.47  1493.47  1498.03
eigval :     1502.81  1506.54  1514.64  1514.78  1517.75  1518.90
eigval :     1541.83  1556.32  1562.26  1566.23  1569.97  1571.23
eigval :     1572.96  1583.73  1587.42  1588.28  1589.53  1590.93
eigval :     1595.03  1598.65  1601.03  1601.46  1603.00  1603.89
eigval :     1605.01  3025.60  3026.76  3029.03  3031.66  3034.30
eigval :     3037.09  3040.95  3047.78  3051.59  3069.89  3070.69
eigval :     3071.58  3072.81  3074.57  3074.98  3076.12  3076.37
eigval :     3077.67  3079.28  3079.51  3080.46  3081.52  3082.89
eigval :     3083.12  3084.04  3084.72  3084.77  3085.29  3086.58
eigval :     3088.35  3089.07  3092.25  3092.92  3093.45  3094.17
eigval :     3094.88  3096.56  3096.78  3097.37  3098.47  3099.16
eigval :     3100.54  3104.89  3106.89  3110.41  3113.71  3120.06

   temp. (K)  partition function   enthalpy   heat capacity  entropy
                                   cal/mol     cal/K/mol   cal/K/mol   J/K/mol
 298.15  VIB  0.120E+28            31958.975    198.975    202.889
         ROT  0.274E+09              888.752      2.981     41.591
         INT  0.328E+36            32847.728    201.955    244.480
         TR   0.233E+29             1481.254      4.968     46.020
         TOT                       34328.9816   206.9236   290.4998  1215.4510

       T/K    H(0)-H(T)+PV         H(T)/Eh          T*S/Eh         G(T)/Eh
   ------------------------------------------------------------------------
    298.15    0.547067E-01    0.941617E+00    0.138026E+00    0.803592E+00
   ------------------------------------------------------------------------

         :::::::::::::::::::::::::::::::::::::::::::::::::::::
         ::                  THERMODYNAMIC                  ::
         :::::::::::::::::::::::::::::::::::::::::::::::::::::
         :: total free energy        -164.782444026941 Eh   ::
         ::.................................................::
         :: total energy             -165.586035572354 Eh   ::
         :: zero point energy           0.886910636327 Eh   ::
         :: G(RRHO) w/o ZPVE           -0.083319090913 Eh   ::
         :: G(RRHO) contrib.            0.803591545414 Eh   ::
         :::::::::::::::::::::::::::::::::::::::::::::::::::::

           -------------------------------------------------
          | TOTAL ENERGY             -165.586035572354 Eh   |
          | TOTAL ENTHALPY           -164.644418221665 Eh   |
          | TOTAL FREE ENERGY        -164.782444026941 Eh   |
          | GRADIENT NORM               0.000047246051 Eh/α |
          | HOMO-LUMO GAP               2.192089504957 eV   |
           -------------------------------------------------

 * finished run on 2025/08/21 at 15:05:47.068
