   * xtb version 6.7.1 (edcfbbe) compiled by 'albert@albert-system' on 2024-07-22

   ID    Z sym.   atoms
    1    6 C      1-8, 10-18, 20-48, 50-65
    2    7 N      9, 19, 49
    3    1 H      66-112

          program call               : xtb data2507/gas/DPACPhTPI/DPACPhTPI.xyz --gfn 2 --ohess vtight --parallel 40 --molden --ceasefiles --namespace data2507/gas/DPACPhTPI/DPACPhTPI_gas_S0_preOpt
          :  Hamiltonian                  GFN2-xTB          :
 * total energy  :  -165.5442026 Eh     change       -0.4546536E-08 Eh
 * total energy  :  -165.5670895 Eh     change       -0.2288685E-01 Eh
 * total energy  :  -165.5756810 Eh     change       -0.8591490E-02 Eh
 * total energy  :  -165.5779237 Eh     change       -0.2242708E-02 Eh
 * total energy  :  -165.5790465 Eh     change       -0.1122795E-02 Eh
 * total energy  :  -165.5797302 Eh     change       -0.6837106E-03 Eh
 * total energy  :  -165.5801868 Eh     change       -0.4566291E-03 Eh
 * total energy  :  -165.5804949 Eh     change       -0.3080219E-03 Eh
 * total energy  :  -165.5807009 Eh     change       -0.2060370E-03 Eh
 * total energy  :  -165.5808732 Eh     change       -0.1722846E-03 Eh
 * total energy  :  -165.5859242 Eh     change       -0.8351251E-06 Eh
 * total energy  :  -165.5859250 Eh     change       -0.7301544E-06 Eh
 * total energy  :  -165.5859257 Eh     change       -0.7355914E-06 Eh
 * total energy  :  -165.5859265 Eh     change       -0.7503937E-06 Eh
 * total energy  :  -165.5859273 Eh     change       -0.8738575E-06 Eh
 * total energy  :  -165.5859283 Eh     change       -0.9251113E-06 Eh
 * total energy  :  -165.5859292 Eh     change       -0.8960478E-06 Eh
 * total energy  :  -165.5859300 Eh     change       -0.8396635E-06 Eh
 * total energy  :  -165.5859300 Eh     change       -0.4770669E-08 Eh
   *** GEOMETRY OPTIMIZATION CONVERGED AFTER 221 ITERATIONS ***

 final structure:
================
112
 xtb: 6.7.1 (edcfbbe)
C           -6.24390490120857        5.34155892830274        1.90347065774286
C           -4.90050212918521        4.66433258251739        1.59732697041841
C           -4.08143894922947        4.52155891538934        2.88810649916224
C           -4.12165035815729        5.56353504155371        0.63368006767250
C           -5.16144481271946        3.28034213414091        1.02560719966209
C           -4.71528639711883        2.88402351891975       -0.22947932540840
C           -4.96881495729304        1.61377215206766       -0.71637637729759
C           -5.68127436289800        0.70452573129585        0.05090351617499
N           -5.91020206075624       -0.60024711139632       -0.42979748620510
C           -4.93360436413630       -1.54137345308821       -0.67160285549394
C           -3.50999937226110       -1.35293359331489       -0.45434648196998
C           -2.62844962175151       -2.04802894961183       -1.28501834839263
C           -1.26566569159264       -1.92273442779453       -1.12754079628907
C           -0.73621638375421       -1.10939159327143       -0.12592474891335
C            0.71640152569337       -0.97687082759888        0.04547945480062
C            1.28291700428801       -0.96912411530146        1.31925437299796
C            2.64869063818567       -0.85334782086063        1.48478252909867
C            3.47602651007022       -0.72940970094824        0.37392698232261
N            4.88473786675146       -0.61383768131874        0.50822490162819
C            5.45004106818264        0.55687496715233        0.99320504316385
C            4.65975993219040        1.58203275005389        1.51352953764545
C            5.24219304762405        2.71084072953011        2.05451682022289
C            6.61956765969570        2.83232954574189        2.09687974568574
C            7.40742992104008        1.83911525785469        1.54112966200802
C            6.84179741515043        0.71144865252755        0.96766141642347
C            7.67217829806057       -0.29218693169445        0.18728740010194
C            9.10314669736815       -0.32071853535742        0.69204708813667
C            9.31948196292741       -0.56809434705473        2.04522251352667
C           10.60118281678237       -0.62391571114933        2.55708144170044
C           11.69110399359391       -0.43829508582168        1.72185030749352
C           11.48563774116203       -0.20293662600537        0.37471346291503
C           10.20003875444682       -0.14643899549735       -0.13890356588283
C            7.59476734216137        0.13363667324385       -1.28176635670913
C            7.30174708973167       -0.77140279325974       -2.29343911519086
C            7.22675951622835       -0.35680404292910       -3.61267529587370
C            7.44673093645011        0.96770713378420       -3.94393959520139
C            7.74721296142634        1.87636438672337       -2.94329677020278
C            7.81842451060543        1.46297513575275       -1.62616363231438
C            7.04990987224744       -1.66411844611353        0.34773961852368
C            7.81203849770636       -2.82134829219783        0.32323068152934
C            7.21578616609496       -4.07024858362987        0.35119695480051
C            5.83578433325163       -4.16693605501755        0.39280434836971
C            5.05970788265388       -3.02579526024761        0.43392514878968
C            5.65611676844583       -1.76447676056428        0.42064949564195
C            2.92289180876133       -0.73736578814405       -0.89993796151998
C            1.55682909874372       -0.86391394221558       -1.06046325684388
C           -1.61815559017880       -0.43750565692109        0.71747796462772
C           -2.98431761552230       -0.55443903298088        0.56022334702881
N           -5.43577374275138       -2.66406711228243       -1.12634848255534
C           -6.77854284581246       -2.47833237541033       -1.18622779712615
C           -7.77251180364390       -3.41627611104044       -1.58186895240542
C           -7.42884856231411       -4.71629380322123       -1.96678423578936
C           -8.40397517250674       -5.61526910502506       -2.31932475048290
C           -9.74045539310638       -5.22224037053809       -2.28687902341717
C          -10.08903404499866       -3.94515179090585       -1.91408647775384
C           -9.12128003477318       -2.99465175944182       -1.55426770193452
C           -9.45452512026880       -1.62930912283269       -1.18567608846663
C          -10.77672804353089       -1.16368179729651       -1.21244558185908
C          -11.09947392447287        0.13676537631105       -0.90512356800151
C          -10.09909321758916        1.04318091070236       -0.56954738442020
C           -8.79175933188118        0.62628789757002       -0.52369296548258
C           -8.44426397374732       -0.70256727561847       -0.80633249148790
C           -7.10694188484006       -1.18884871157155       -0.76887359533307
C           -6.13326097497453        1.08033669868690        1.31181899711731
C           -5.87501496079181        2.35138374658820        1.78220224558429
H           -6.81420468392820        4.78227417887851        2.63979754891374
H           -6.84068065151429        5.42022877910747        0.99703779646741
H           -6.07635923781075        6.34303085851877        2.29353292691081
H           -3.86928967482476        5.50309391245264        3.30611499482275
H           -3.13647671524770        4.02365412646581        2.68035956764869
H           -4.61544321170281        3.94213756648431        3.63613971876814
H           -4.67046157176634        5.71282321033140       -0.29331674714065
H           -3.14435058193256        5.14345607387425        0.40753809413784
H           -3.96886176056588        6.53793577342152        1.09294480415791
H           -4.15941169835586        3.56241709440633       -0.85481971976916
H           -4.61129121687910        1.32159261453336       -1.69276741169202
H           -3.04132222335684       -2.68683994790578       -2.04990982945904
H           -0.59843050838978       -2.47705809526008       -1.77112417582904
H            0.64785556246019       -1.08314759413342        2.18535933044707
H            3.08438600869710       -0.86616941054486        2.47347762520427
H            3.58436011777558        1.49543647360661        1.48932731351632
H            4.61395954194044        3.49443662654999        2.45173242051896
H            7.07963815085034        3.70463127362766        2.53549115810261
H            8.48242107378084        1.94893095028795        1.54410201226281
H            8.47031148494682       -0.71664226771846        2.69736865119228
H           10.75164569212586       -0.81407400341282        3.60985721093874
H           12.69425944316618       -0.48088852020873        2.11997289870044
H           12.32961279442791       -0.06380333024822       -0.28539003898602
H           10.05623779507507        0.03144118552689       -1.19434404265815
H            7.13291518901752       -1.81175689130596       -2.05885013635680
H            6.99589354124343       -1.07728921825528       -4.38424002964396
H            7.38690256716138        1.29009947268940       -4.97311165297092
H            7.92636261172496        2.91321412793074       -3.18864187165081
H            8.05204025093666        2.18313048929281       -0.85646221506615
H            8.88738508363021       -2.74383632155056        0.25983178529360
H            7.82588715405970       -4.96008286490270        0.32416801653298
H            5.35772556855794       -5.13528284282719        0.39981887545148
H            3.98423062027986       -3.10834413315275        0.47901467215692
H            3.57394453522529       -0.64371335539684       -1.75683064294325
H            1.13200015565450       -0.85334030860799       -2.05320327741135
H           -1.22804929620616        0.19817341310859        1.49914505821411
H           -3.63796991546807       -0.03711232911218        1.24542565983814
H           -6.38296502201324       -4.98124250051310       -1.96933108146946
H           -8.14370663392417       -6.62066965951310       -2.61590486857427
H          -10.51256916628675       -5.92809232647538       -2.55761993703847
H          -11.13642508875920       -3.68824906308810       -1.90207712642468
H          -11.57528859762652       -1.83314557051767       -1.48849307299512
H          -12.13027480335835        0.45797392887137       -0.93638291316916
H          -10.34771711251921        2.07100155768763       -0.34962570939313
H           -8.01832284709261        1.33707935331546       -0.27996425392966
H           -6.68698002367285        0.37292813095712        1.91223475658701
H           -6.23775073764687        2.61565901375291        2.76361152957616

          :  Hamiltonian                  GFN2-xTB          :
         :: gradient norm              0.000050209532 Eh/a0 ::
         :: HOMO-LUMO gap              2.203299265613 eV    ::
         :: SCC energy              -168.683078839347 Eh    ::
         :: -> dispersion             -0.164415435285 Eh    ::
         :: repulsion energy           3.097148840084 Eh    ::

    * Orbital Energies and Occupations

         #    Occupation            Energy/Eh            Energy/eV
      -------------------------------------------------------------
         1        2.0000           -0.6839520             -18.6113
       ...           ...                  ...                  ...
       143        2.0000           -0.4019409             -10.9374
       144        2.0000           -0.4010833             -10.9140
       145        2.0000           -0.3994769             -10.8703
       146        2.0000           -0.3979336             -10.8283
       147        2.0000           -0.3959790             -10.7751
       148        2.0000           -0.3941672             -10.7258
       149        2.0000           -0.3910005             -10.6397
       150        2.0000           -0.3889502             -10.5839
       151        2.0000           -0.3848551             -10.4724
       152        2.0000           -0.3777289             -10.2785
       153        2.0000           -0.3729946             -10.1497
       154        2.0000           -0.3600465              -9.7974
       155        2.0000           -0.3461297              -9.4187 (HOMO)
       156                         -0.2651600              -7.2154 (LUMO)
       157                         -0.2474223              -6.7327
       158                         -0.2444773              -6.6526
       159                         -0.2377717              -6.4701
       160                         -0.2363814              -6.4323
       161                         -0.2337247              -6.3600
       162                         -0.2270352              -6.1779
       163                         -0.2247847              -6.1167
       164                         -0.2241002              -6.0981
       165                         -0.2226553              -6.0588
       166                         -0.2208044              -6.0084
       ...                                ...                  ...
       307                          0.7315898              19.9076
      -------------------------------------------------------------
                  HL-Gap            0.0809697 Eh            2.2033 eV

     #   Z          covCN         q      C6AA      α(0)
     1   6 C        3.762    -0.106    22.578     6.774
     2   6 C        3.903     0.026    20.079     6.369
     3   6 C        3.762    -0.106    22.574     6.773
     4   6 C        3.761    -0.109    22.631     6.782
     5   6 C        2.973     0.010    27.784     8.646
     6   6 C        2.925    -0.037    28.917     8.819
     7   6 C        2.920    -0.041    29.014     8.833
     8   6 C        2.913     0.063    26.579     8.454
     9   7 N        2.841    -0.045    22.105     6.983
    10   6 C        3.192     0.126    24.778     8.118
    11   6 C        2.974     0.002    27.974     8.676
    12   6 C        2.927    -0.028    28.706     8.787
    13   6 C        2.923    -0.033    28.811     8.802
    14   6 C        2.977     0.010    27.793     8.648
    15   6 C        2.976     0.010    27.789     8.647
    16   6 C        2.925    -0.034    28.854     8.809
    17   6 C        2.919    -0.039    28.963     8.825
    18   6 C        2.926     0.067    26.507     8.443
    19   7 N        2.754    -0.076    22.710     7.078
    20   6 C        2.930     0.059    26.684     8.472
    21   6 C        2.922    -0.058    29.451     8.899
    22   6 C        2.920    -0.033    28.831     8.805
    23   6 C        2.918    -0.045    29.106     8.847
    24   6 C        2.923    -0.036    28.886     8.814
    25   6 C        2.990    -0.010    28.261     8.720
    26   6 C        3.923     0.009    20.360     6.413
    27   6 C        2.978     0.015    27.665     8.628
    28   6 C        2.926    -0.031    28.783     8.798
    29   6 C        2.919    -0.030    28.760     8.794
    30   6 C        2.920    -0.033    28.815     8.803
    31   6 C        2.920    -0.031    28.767     8.795
    32   6 C        2.922    -0.036    28.901     8.816
    33   6 C        2.980     0.013    27.714     8.635
    34   6 C        2.923    -0.036    28.908     8.817
    35   6 C        2.920    -0.031    28.777     8.797
    36   6 C        2.919    -0.033    28.821     8.804
    37   6 C        2.920    -0.031    28.771     8.796
    38   6 C        2.925    -0.035    28.873     8.812
    39   6 C        2.987    -0.010    28.249     8.719
    40   6 C        2.923    -0.036    28.894     8.815
    41   6 C        2.918    -0.044    29.083     8.843
    42   6 C        2.920    -0.033    28.820     8.803
    43   6 C        2.922    -0.057    29.414     8.894
    44   6 C        2.934     0.060    26.665     8.469
    45   6 C        2.921    -0.038    28.956     8.824
    46   6 C        2.925    -0.033    28.824     8.804
    47   6 C        2.924    -0.034    28.852     8.809
    48   6 C        2.920    -0.035    28.879     8.813
    49   7 N        1.896    -0.292    28.430     7.905
    50   6 C        3.207     0.057    26.141     8.326
    51   6 C        2.986     0.003    27.960     8.674
    52   6 C        2.922    -0.031    28.780     8.797
    53   6 C        2.917    -0.030    28.759     8.794
    54   6 C        2.917    -0.033    28.825     8.804
    55   6 C        2.922    -0.035    28.870     8.811
    56   6 C        2.979    -0.002    28.062     8.689
    57   6 C        2.980     0.002    27.981     8.677
    58   6 C        2.922    -0.034    28.844     8.807
    59   6 C        2.916    -0.034    28.837     8.806
    60   6 C        2.917    -0.032    28.800     8.800
    61   6 C        2.919    -0.040    29.003     8.831
    62   6 C        2.978    -0.002    28.066     8.690
    63   6 C        3.075     0.020    27.481     8.595
    64   6 C        2.919    -0.040    28.993     8.830
    65   6 C        2.927    -0.034    28.844     8.808
    66   1 H        0.925     0.038     2.479     2.462
    67   1 H        0.925     0.035     2.514     2.480
    68   1 H        0.925     0.040     2.444     2.445
    69   1 H        0.925     0.041     2.441     2.443
    70   1 H        0.925     0.035     2.521     2.483
    71   1 H        0.925     0.037     2.483     2.464
    72   1 H        0.925     0.037     2.487     2.466
    73   1 H        0.925     0.037     2.488     2.467
    74   1 H        0.925     0.039     2.456     2.451
    75   1 H        0.926     0.045     2.380     2.412
    76   1 H        0.926     0.037     2.494     2.470
    77   1 H        0.926     0.055     2.261     2.351
    78   1 H        0.926     0.038     2.480     2.462
    79   1 H        0.926     0.038     2.470     2.458
    80   1 H        0.926     0.041     2.438     2.442
    81   1 H        0.926     0.026     2.651     2.546
    82   1 H        0.926     0.027     2.631     2.537
    83   1 H        0.926     0.026     2.642     2.542
    84   1 H        0.926     0.029     2.599     2.521
    85   1 H        0.926     0.028     2.614     2.528
    86   1 H        0.926     0.029     2.608     2.525
    87   1 H        0.926     0.028     2.614     2.528
    88   1 H        0.926     0.028     2.614     2.528
    89   1 H        0.926     0.030     2.587     2.515
    90   1 H        0.926     0.031     2.576     2.510
    91   1 H        0.926     0.028     2.620     2.531
    92   1 H        0.926     0.028     2.618     2.530
    93   1 H        0.926     0.028     2.614     2.528
    94   1 H        0.926     0.033     2.543     2.494
    95   1 H        0.926     0.030     2.592     2.517
    96   1 H        0.926     0.027     2.626     2.534
    97   1 H        0.926     0.028     2.608     2.526
    98   1 H        0.926     0.025     2.664     2.552
    99   1 H        0.926     0.041     2.432     2.439
   100   1 H        0.926     0.040     2.454     2.450
   101   1 H        0.926     0.032     2.555     2.499
   102   1 H        0.926     0.029     2.596     2.520
   103   1 H        0.926     0.050     2.322     2.383
   104   1 H        0.926     0.029     2.594     2.519
   105   1 H        0.926     0.027     2.626     2.534
   106   1 H        0.926     0.030     2.587     2.515
   107   1 H        0.926     0.034     2.535     2.490
   108   1 H        0.926     0.028     2.619     2.531
   109   1 H        0.926     0.026     2.645     2.543
   110   1 H        0.926     0.026     2.638     2.540
   111   1 H        0.926     0.039     2.456     2.451
   112   1 H        0.926     0.038     2.470     2.457

molecular dipole:
                 x           y           z       tot (Debye)
 q only:       -0.250       1.177       0.344
   full:       -0.487       1.534       0.482       4.270

 projected vibrational frequencies (cm⁻¹)
eigval :       -0.00    -0.00     0.00     0.00     0.00     0.00
eigval :        4.30     6.27     7.35    14.31    16.02    17.70
eigval :       20.47    25.07    33.49    36.00    42.44    46.20
eigval :       56.37    60.24    62.76    68.60    71.23    75.11
eigval :       82.65    83.39    85.97    91.43    97.21   107.80
eigval :      129.33   134.37   145.47   164.53   172.10   175.20
eigval :      182.54   190.00   210.40   212.07   225.14   233.19
eigval :      235.03   237.03   243.43   253.64   260.59   267.19
eigval :      270.64   282.62   294.62   302.67   310.72   316.81
eigval :      318.48   342.06   354.74   361.73   367.39   368.82
eigval :      372.89   373.35   374.65   381.31   382.53   394.98
eigval :      397.87   401.52   410.24   419.71   423.48   434.74
eigval :      436.90   444.67   449.93   454.07   456.38   466.33
eigval :      474.07   481.50   495.59   508.44   512.79   517.89
eigval :      519.53   525.27   535.23   543.88   547.01   584.80
eigval :      588.40   588.77   591.96   595.83   600.41   603.76
eigval :      607.46   608.32   610.29   613.69   631.59   645.41
eigval :      653.72   664.09   669.00   671.67   672.32   674.44
eigval :      682.11   684.62   691.45   694.65   696.44   705.66
eigval :      713.22   724.11   735.65   754.28   756.52   757.51
eigval :      763.78   766.31   775.44   778.07   782.51   798.58
eigval :      807.77   823.16   832.90   862.44   867.56   867.91
eigval :      870.73   870.92   875.02   877.65   878.67   879.70
eigval :      883.93   894.26   899.55   901.14   904.54   907.22
eigval :      912.28   912.69   914.21   915.12   915.66   917.66
eigval :      919.66   922.14   922.77   923.79   924.56   927.27
eigval :      928.30   929.14   930.58   931.52   932.45   933.06
eigval :      933.76   940.15   945.57   960.20   961.14   963.65
eigval :      964.20   986.20   991.28  1001.06  1010.88  1018.51
eigval :     1033.46  1035.67  1035.94  1073.87  1079.85  1086.19
eigval :     1088.09  1091.99  1106.27  1107.62  1108.59  1119.88
eigval :     1123.93  1128.59  1131.40  1133.58  1135.35  1141.73
eigval :     1143.09  1146.01  1153.15  1174.87  1182.15  1182.28
eigval :     1182.76  1183.18  1184.49  1185.18  1186.42  1186.58
eigval :     1199.37  1201.75  1204.19  1205.52  1212.34  1215.84
eigval :     1219.88  1225.45  1228.07  1234.01  1243.66  1254.07
eigval :     1258.14  1263.61  1267.03  1267.60  1271.68  1275.58
eigval :     1283.97  1286.16  1288.07  1288.86  1292.42  1307.75
eigval :     1309.59  1316.63  1318.11  1320.94  1321.51  1327.76
eigval :     1329.43  1334.06  1337.05  1339.42  1340.31  1349.78
eigval :     1379.49  1393.27  1399.46  1406.68  1407.34  1410.16
eigval :     1411.40  1422.06  1430.50  1431.52  1433.12  1434.59
eigval :     1437.05  1440.56  1443.04  1461.99  1470.76  1474.56
eigval :     1476.43  1485.71  1491.03  1491.76  1493.63  1497.85
eigval :     1502.88  1506.72  1514.46  1514.64  1517.19  1519.07
eigval :     1541.03  1556.33  1562.15  1565.97  1570.21  1570.90
eigval :     1573.00  1583.69  1587.42  1588.27  1589.52  1590.53
eigval :     1594.99  1598.62  1600.95  1601.44  1602.95  1603.85
eigval :     1604.97  3025.66  3026.97  3029.16  3031.66  3034.42
eigval :     3037.24  3040.97  3047.42  3051.22  3070.12  3070.47
eigval :     3071.56  3072.87  3074.62  3074.77  3076.07  3076.81
eigval :     3078.37  3079.13  3079.84  3080.56  3080.68  3081.44
eigval :     3083.11  3083.35  3084.85  3085.31  3086.40  3086.99
eigval :     3088.48  3090.46  3092.60  3092.73  3093.16  3093.51
eigval :     3094.63  3095.60  3096.55  3096.61  3098.83  3099.58
eigval :     3101.64  3104.87  3107.26  3110.59  3115.32  3121.88

   temp. (K)  partition function   enthalpy   heat capacity  entropy
                                   cal/mol     cal/K/mol   cal/K/mol   J/K/mol
 298.15  VIB  0.706E+27            31951.566    198.973    202.340
         ROT  0.274E+09              888.752      2.981     41.589
         INT  0.193E+36            32840.318    201.954    243.929
         TR   0.233E+29             1481.254      4.968     46.020
         TOT                       34321.5722   206.9224   289.9484  1213.1439

       T/K    H(0)-H(T)+PV         H(T)/Eh          T*S/Eh         G(T)/Eh
   ------------------------------------------------------------------------
    298.15    0.546949E-01    0.941624E+00    0.137764E+00    0.803860E+00
   ------------------------------------------------------------------------

         :::::::::::::::::::::::::::::::::::::::::::::::::::::
         ::                  THERMODYNAMIC                  ::
         :::::::::::::::::::::::::::::::::::::::::::::::::::::
         :: total free energy        -164.782069926036 Eh   ::
         ::.................................................::
         :: total energy             -165.585929999259 Eh   ::
         :: zero point energy           0.886928984281 Eh   ::
         :: G(RRHO) w/o ZPVE           -0.083068911059 Eh   ::
         :: G(RRHO) contrib.            0.803860073223 Eh   ::
         :::::::::::::::::::::::::::::::::::::::::::::::::::::

           -------------------------------------------------
          | TOTAL ENERGY             -165.585929999259 Eh   |
          | TOTAL ENTHALPY           -164.644306108223 Eh   |
          | TOTAL FREE ENERGY        -164.782069926036 Eh   |
          | GRADIENT NORM               0.000050208554 Eh/α |
          | HOMO-LUMO GAP               2.203298178933 eV   |
           -------------------------------------------------

 * finished run on 2025/08/21 at 14:53:59.617
