   * xtb version 6.7.1 (edcfbbe) compiled by 'albert@albert-system' on 2024-07-22

   ID    Z sym.   atoms
    1    6 C      1-8, 10-18, 20-48, 50-65
    2    7 N      9, 19, 49
    3    1 H      66-112

          program call               : xtb data2507/gas/DPACPhTPI/DPACPhTPI_gas_S0_finalOpt.xtbopt.xyz --gfn 2 --spinpol --tblite --uhf 2 --ohess vtight --parallel 40 --molden --ceasefiles --namespace data2507/gas/DPACPhTPI/DPACPhTPI_gas_T1_preOpt
 * total energy  :  -165.4904506 Eh     change       -0.4051259E-08 Eh
 * total energy  :  -165.4964038 Eh     change       -0.5953233E-02 Eh
 * total energy  :  -165.4992361 Eh     change       -0.2832338E-02 Eh
 * total energy  :  -165.4998768 Eh     change       -0.6406025E-03 Eh
 * total energy  :  -165.5007179 Eh     change       -0.8411747E-03 Eh
 * total energy  :  -165.5011359 Eh     change       -0.4180111E-03 Eh
 * total energy  :  -165.5014228 Eh     change       -0.2869077E-03 Eh
 * total energy  :  -165.5015976 Eh     change       -0.1747277E-03 Eh
 * total energy  :  -165.5017130 Eh     change       -0.1154383E-03 Eh
 * total energy  :  -165.5017861 Eh     change       -0.7312830E-04 Eh
 * total energy  :  -165.5029722 Eh     change       -0.7048729E-06 Eh
 * total energy  :  -165.5029729 Eh     change       -0.6690654E-06 Eh
 * total energy  :  -165.5029735 Eh     change       -0.6434039E-06 Eh
 * total energy  :  -165.5029741 Eh     change       -0.5865663E-06 Eh
 * total energy  :  -165.5029747 Eh     change       -0.5652122E-06 Eh
 * total energy  :  -165.5029750 Eh     change       -0.3670274E-06 Eh
 * total energy  :  -165.5029754 Eh     change       -0.4108228E-06 Eh
 * total energy  :  -165.5029759 Eh     change       -0.4641427E-06 Eh
 * total energy  :  -165.5029759 Eh     change       -0.4715531E-08 Eh
   *** GEOMETRY OPTIMIZATION CONVERGED AFTER 94 ITERATIONS ***

 final structure:
================
112
 xtb: 6.7.1 (edcfbbe)
C           -5.65218177415100        6.44492194227264       -0.99179700904529
C           -5.29486454324206        5.69605816999374        0.29493017450489
C           -6.19535641973723        6.22298204283276        1.42116749679354
C           -3.82338121663772        5.98523499988850        0.62437933863212
C           -5.48408667298251        4.19297465710522        0.17069661724272
C           -5.92937154952737        3.58094412041756       -0.99614439336663
C           -6.07897681831933        2.20846991825880       -1.07681950967957
C           -5.78352476600898        1.40857678276079        0.02076881882822
N           -5.91995311311399        0.01060906808252       -0.05809218697258
C           -4.86745588880926       -0.92828397671620       -0.09998109736961
C           -3.49392180216719       -0.68207726669052       -0.14607852577292
C           -2.61734605420053       -1.81213736916313       -0.04000366240624
C           -1.26938401933028       -1.67564570607458       -0.05088151848287
C           -0.64188671360514       -0.40035250510675       -0.16099668901771
C            0.77970565537803       -0.24841786935418       -0.13487253568667
C            1.38738913217185        0.98336051242305        0.20440617532563
C            2.75088857462723        1.12739504766847        0.25109407769144
C            3.58669339886933        0.05084651957977       -0.05835532400001
N            4.99662918766278        0.16638238513945       -0.04558456182365
C            5.66284075657439        0.19146057202712       -1.26138496836516
C            4.95746641002058        0.42462149993483       -2.44530278934624
C            5.62110263044014        0.50311580207156       -3.65186138961774
C            6.99895870025678        0.36763185700519       -3.69976534772512
C            7.70392262396843        0.13710393458347       -2.53132924994907
C            7.05413196178823        0.04140276991052       -1.31069608371726
C            7.79449843493043       -0.31889684700380       -0.04178284391792
C            9.23283130408227        0.15637309679083       -0.14392527494854
C            9.46918205206725        1.52704702744942       -0.20797684319598
C           10.75564665913664        2.01701665243706       -0.32223334084306
C           11.82889136626741        1.14261787812972       -0.38062683884535
C           11.60181092310642       -0.22063998594756       -0.33041535720939
C           10.31164250256974       -0.71255868097994       -0.21551092213015
C            7.70549815486559       -1.83144390891549        0.19083335215947
C            8.09632458126999       -2.36344980186323        1.41550640438202
C            8.01707368106826       -3.72223800272223        1.65633774464902
C            7.53977724685143       -4.57720262024637        0.67736818995516
C            7.15133508113838       -4.05871015961512       -0.54418315678361
C            7.23453136270590       -2.69772768874456       -0.78689797927866
C            7.09036015799852        0.32616344684959        1.13784057265642
C            7.78308393634112        0.69228177550222        2.28111729710460
C            7.11673368026805        1.09402499637818        3.42579339923668
C            5.73244077959336        1.08856126875966        3.44371766928204
C            5.02393422493577        0.75582321070170        2.30776671166379
C            5.69049742679414        0.41702243257166        1.12755641376669
C            3.01214463161743       -1.16820585441416       -0.42942290026216
C            1.64964151899861       -1.31873603092949       -0.45076739730485
C           -1.51468748010850        0.71498693800343       -0.31070178258670
C           -2.86700012512600        0.59017915558993       -0.31625506174527
N           -5.36764220127082       -2.18151504180119       -0.12788443551615
C           -6.68737069835926       -2.07069527690820       -0.13310008879921
C           -7.65024455653322       -3.12127332578428       -0.19574857662518
C           -7.24459404678996       -4.45434587255670       -0.28606954257375
C           -8.17765828436397       -5.46245843333245       -0.37104054187581
C           -9.52963750057336       -5.13666598713027       -0.37146219750348
C           -9.94026813644019       -3.82368771262434       -0.27891323564818
C           -9.02021809190695       -2.77054943236146       -0.18137174340977
C           -9.42097882261144       -1.37968053674947       -0.05570355661129
C          -10.76588391471810       -1.00975119202232        0.02521764785858
C          -11.16148696297940        0.30174841143855        0.17468921299243
C          -10.20512423861499        1.31314285632212        0.26453566671795
C           -8.87456610597268        1.00007818900991        0.18416379818059
C           -8.44324578382113       -0.33278669306430        0.01017186081488
C           -7.08893721524639       -0.70604815746595       -0.07702997885680
C           -5.34375676830115        2.00395463118019        1.19878076662725
C           -5.19872735787399        3.37457190232945        1.26278562496039
H           -6.69524285275835        6.29112203369144       -1.25867561740209
H           -5.02068239205165        6.12789231092337       -1.81855535574747
H           -5.49849756103887        7.51178898723860       -0.84329927777024
H           -7.23826625490047        6.00151346864861        1.20369736121775
H           -6.08424035622403        7.30105510858286        1.51477342481907
H           -5.94333766763014        5.77153284631493        2.37663300963963
H           -3.66075946701456        7.05829843235351        0.69840946027698
H           -3.17861976740923        5.59185304550365       -0.15894008142290
H           -3.53021156742920        5.53109680804254        1.56678417500664
H           -6.16412113865815        4.16671744628175       -1.86936145937418
H           -6.42488936907291        1.74877306202462       -1.99123486429055
H           -3.07988341708250       -2.77950000077431        0.07151866287174
H           -0.65464733796948       -2.55380913358586        0.07455025510785
H            0.76838504801442        1.82923026111897        0.45992744808592
H            3.18898296555595        2.08266010653847        0.50438054710593
H            3.88645368176935        0.55204930279897       -2.40916722652603
H            5.05995732699032        0.67970573968825       -4.55720069084157
H            7.52204443576780        0.43215037072859       -4.64143754791752
H            8.77573440187926        0.01099152046001       -2.56892455520652
H            8.63262323811708        2.21040951873877       -0.16599769553703
H           10.92235310130362        3.08334985619214       -0.36734106598922
H           12.83565715079732        1.52347287285393       -0.46882297520420
H           12.43191160026409       -0.91006847937260       -0.38291282127036
H           10.14977201620414       -1.77983103488149       -0.18515059932577
H            8.46826970574233       -1.70950864000204        2.18965463036094
H            8.32818671213677       -4.11411741990175        2.61373599960236
H            7.47308092079372       -5.63848175519731        0.86573704754149
H            6.78072410123781       -4.71473271430729       -1.31853141620462
H            6.93267429447019       -2.31778343180299       -1.75149622979949
H            8.86292090015842        0.65481718854911        2.27983106001157
H            7.67529443712298        1.37707894959991        4.30475352593416
H            5.19883923701384        1.35014522829051        4.34516484928267
H            3.94612492928097        0.74890191646772        2.33536795902742
H            3.66137867009583       -1.99280925614149       -0.68838623937058
H            1.23662562425513       -2.26962080080630       -0.74800924566809
H           -1.08861320027447        1.69269591794380       -0.48031747586156
H           -3.47052903225839        1.46576532357832       -0.48993185425685
H           -6.18541253613592       -4.65926759502792       -0.29082744810873
H           -7.86752171681231       -6.49430787178034       -0.44077459738748
H          -10.27010989206897       -5.92031778626440       -0.44480744948581
H          -10.99994670535498       -3.62358671302080       -0.28604682830101
H          -11.53344702136007       -1.76556203747099       -0.02181231807575
H          -12.21194598251958        0.54484421388916        0.23270592379013
H          -10.51340701625715        2.33927120402369        0.40057820463212
H           -8.13981362242680        1.78393856715340        0.26903630262219
H           -5.11063490706886        1.38450340171295        2.05208247842311
H           -4.85475071319679        3.80856538856150        2.18899627380460

 projected vibrational frequencies (cm⁻¹)
eigval :       -0.00    -0.00    -0.00     0.00     0.00     0.00
eigval :        4.36     6.48     7.06    12.64    14.98    17.38
eigval :       19.47    26.13    29.61    40.75    45.61    49.43
eigval :       50.59    58.40    62.68    68.25    71.46    79.25
eigval :       82.07    85.56    87.54    97.27   103.25   112.69
eigval :      119.29   134.97   137.09   169.35   173.48   175.73
eigval :      180.93   191.36   208.88   210.95   216.36   228.22
eigval :      233.69   234.95   246.91   250.47   259.60   265.08
eigval :      266.94   282.46   294.79   299.51   306.18   315.19
eigval :      318.09   338.89   344.54   356.36   361.21   368.36
eigval :      369.15   372.55   373.79   377.62   380.57   386.49
eigval :      392.71   393.62   403.63   407.64   413.14   425.82
eigval :      432.22   435.33   444.18   447.14   458.32   458.39
eigval :      462.45   473.73   486.29   495.00   497.31   503.53
eigval :      515.55   517.21   524.86   526.45   544.92   582.04
eigval :      584.08   587.22   588.24   588.64   592.41   596.13
eigval :      601.18   605.51   608.46   612.42   616.53   626.01
eigval :      646.13   652.58   659.74   662.85   664.69   669.22
eigval :      670.29   672.20   682.66   687.55   688.78   698.06
eigval :      702.65   720.28   728.23   745.49   753.62   755.24
eigval :      756.28   758.21   774.65   775.15   778.08   787.06
eigval :      790.89   802.82   811.51   820.40   841.40   853.10
eigval :      866.79   867.18   870.88   872.77   877.03   879.75
eigval :      881.92   892.90   898.38   898.84   900.89   901.09
eigval :      904.02   905.39   909.19   911.10   912.13   913.02
eigval :      913.43   914.60   915.04   918.38   921.90   922.87
eigval :      924.21   924.53   925.87   929.93   931.00   931.64
eigval :      932.37   933.15   941.40   944.32   953.95   960.57
eigval :      962.63   963.49   985.54   994.50   997.64  1000.67
eigval :     1009.16  1031.38  1034.65  1035.27  1058.92  1081.19
eigval :     1088.19  1092.30  1092.95  1103.29  1104.50  1106.30
eigval :     1119.76  1123.27  1127.97  1131.71  1133.79  1138.55
eigval :     1142.32  1145.44  1151.10  1158.59  1174.17  1181.37
eigval :     1181.88  1182.12  1182.41  1182.77  1183.72  1184.86
eigval :     1194.51  1198.27  1199.90  1204.90  1212.59  1214.38
eigval :     1219.92  1224.38  1227.63  1233.56  1234.67  1243.90
eigval :     1246.25  1253.28  1257.50  1261.88  1264.89  1271.06
eigval :     1274.71  1281.59  1283.83  1288.04  1288.26  1292.45
eigval :     1304.80  1310.74  1314.89  1317.86  1319.55  1321.19
eigval :     1325.66  1330.91  1331.97  1334.32  1339.34  1340.89
eigval :     1361.23  1380.27  1394.32  1398.31  1405.71  1408.46
eigval :     1410.53  1413.07  1421.42  1427.85  1429.61  1429.89
eigval :     1433.53  1435.92  1437.77  1443.96  1454.42  1456.75
eigval :     1465.01  1473.88  1475.43  1478.58  1479.95  1486.32
eigval :     1490.83  1491.73  1492.57  1501.36  1503.57  1505.56
eigval :     1513.94  1514.34  1517.91  1542.40  1546.31  1559.76
eigval :     1562.66  1564.86  1573.11  1576.90  1580.83  1581.82
eigval :     1586.97  1588.03  1589.30  1594.43  1597.24  1600.03
eigval :     1602.65  3023.75  3025.50  3027.51  3030.02  3032.37
eigval :     3035.83  3038.52  3046.23  3050.13  3070.87  3071.64
eigval :     3072.75  3073.35  3073.70  3074.47  3076.55  3077.36
eigval :     3078.61  3078.89  3081.65  3082.60  3084.06  3084.07
eigval :     3085.40  3085.84  3086.04  3087.46  3088.11  3088.87
eigval :     3090.05  3094.70  3094.92  3096.60  3096.71  3097.11
eigval :     3097.77  3098.00  3098.61  3102.27  3102.48  3106.59
eigval :     3109.19  3109.67  3113.29  3118.98  3121.89  3123.73

   temp. (K)  partition function   enthalpy   heat capacity  entropy
                                   cal/mol     cal/K/mol   cal/K/mol   J/K/mol
 298.15  VIB  0.104E+28            32245.996    201.075    204.031
         ROT  0.285E+09              888.752      2.981     41.666
         INT  0.296E+36            33134.748    204.056    245.696
         TR   0.233E+29             1481.254      4.968     46.020
         TOT                       34616.0024   209.0239   291.7160  1220.5396

       T/K    H(0)-H(T)+PV         H(T)/Eh          T*S/Eh         G(T)/Eh
   ------------------------------------------------------------------------
    298.15    0.551641E-01    0.938050E+00    0.138604E+00    0.799447E+00
   ------------------------------------------------------------------------

         :::::::::::::::::::::::::::::::::::::::::::::::::::::
         ::                  THERMODYNAMIC                  ::
         :::::::::::::::::::::::::::::::::::::::::::::::::::::
         :: total free energy        -164.703529106172 Eh   ::
         ::.................................................::
         :: total energy             -165.502975908947 Eh   ::
         :: zero point energy           0.882886355082 Eh   ::
         :: G(RRHO) w/o ZPVE           -0.083439552307 Eh   ::
         :: G(RRHO) contrib.            0.799446802775 Eh   ::
         :::::::::::::::::::::::::::::::::::::::::::::::::::::

           -------------------------------------------------
          | TOTAL ENERGY             -165.502975908947 Eh   |
          | TOTAL ENTHALPY           -164.564925442731 Eh   |
          | TOTAL FREE ENERGY        -164.703529106172 Eh   |
          | GRADIENT NORM               0.000051451821 Eh/α |
           -------------------------------------------------

 * finished run on 2025/08/21 at 15:06:18.997
