   * xtb version 6.7.1 (edcfbbe) compiled by 'albert@albert-system' on 2024-07-22

   ID    Z sym.   atoms
    1    7 N      1, 15, 23, 31
    2    6 C      2-8, 10-14, 16-22, 24-30, 32, 33
    3   16 S      9
    4    1 H      34-49

          program call               : xtb data2507/gas/2Trz6CNDBT/2Trz6CNDBT_gas_T1_crest.xyz --gfn 2 --spinpol --tblite --uhf 2 --ohess vtight --parallel 40 --molden --ceasefiles --namespace data2507/gas/2Trz6CNDBT/2Trz6CNDBT_gas_T1_finalOpt
 * total energy  :   -82.9642069 Eh     change        0.5423473E-08 Eh
 * total energy  :   -82.9643021 Eh     change       -0.9519090E-04 Eh
 * total energy  :   -82.9643297 Eh     change       -0.2758041E-04 Eh
 * total energy  :   -82.9643463 Eh     change       -0.1658476E-04 Eh
 * total energy  :   -82.9643478 Eh     change       -0.1540399E-05 Eh
 * total energy  :   -82.9643491 Eh     change       -0.1308686E-05 Eh
 * total energy  :   -82.9643507 Eh     change       -0.1540666E-05 Eh
 * total energy  :   -82.9643521 Eh     change       -0.1393792E-05 Eh
 * total energy  :   -82.9643533 Eh     change       -0.1263221E-05 Eh
 * total energy  :   -82.9643544 Eh     change       -0.1106944E-05 Eh
 * total energy  :   -82.9643553 Eh     change       -0.8191663E-06 Eh
 * total energy  :   -82.9643557 Eh     change       -0.4815141E-06 Eh
 * total energy  :   -82.9643561 Eh     change       -0.3730782E-06 Eh
 * total energy  :   -82.9643565 Eh     change       -0.3669382E-06 Eh
 * total energy  :   -82.9643568 Eh     change       -0.2776173E-06 Eh
 * total energy  :   -82.9643570 Eh     change       -0.2379299E-06 Eh
 * total energy  :   -82.9643572 Eh     change       -0.1933877E-06 Eh
 * total energy  :   -82.9643573 Eh     change       -0.1406981E-06 Eh
 * total energy  :   -82.9643574 Eh     change       -0.9180127E-07 Eh
   *** GEOMETRY OPTIMIZATION CONVERGED AFTER 19 ITERATIONS ***

 final structure:
================
49
 xtb: 6.7.1 (edcfbbe)
N            8.37863974158296       -1.14824637949795        0.00918804057060
C            7.42968055420568       -0.50463322841603        0.00880641127588
C            6.26689946842159        0.29559983365902        0.00810903102708
C            6.36818434639755        1.68667472158336        0.01055509335497
C            5.22740846102584        2.47338869198605        0.00993187035158
C            3.96787895591345        1.89814800979214        0.00691620283541
C            3.83827579880450        0.51472490037949        0.00447854899786
C            4.99530334714499       -0.28457243463487        0.00507916755444
S            4.64759152586895       -1.99244430249142        0.00206178681973
C            2.92802657352628       -1.66341899435805        0.00035289381454
C            1.91443272869901       -2.61663389851654       -0.00171054453454
C            0.60913614337950       -2.19406468613664       -0.00220356626550
C            0.28405883395859       -0.81783616054394       -0.00096031055902
C           -1.07474098297570       -0.40030579842039       -0.00104636073607
N           -2.07655773731506       -1.31725197745486       -0.00027567071508
C           -3.31923645395761       -0.92625038249911        0.00082844734780
C           -4.38996238417378       -1.90873809184673        0.00293552787667
C           -4.09527775679312       -3.27377324626655        0.00069229945657
C           -5.11648712018600       -4.20114452211607        0.00306282512174
C           -6.43957379803366       -3.78288445823873        0.00779355648233
C           -6.73856706437724       -2.42883059932234        0.01009796154643
C           -5.72306997049847       -1.49408867738245        0.00763260594516
N           -3.64553354075452        0.38393556798093        0.00036429879373
C           -2.63755507173049        1.29022814902809       -0.00142259490346
C           -2.97569363164337        2.70119332187956       -0.00334600771449
C           -4.31343937820778        3.10340380661778       -0.00571854472469
C           -4.63308203188378        4.44579116751371       -0.00800630369816
C           -3.62888666413186        5.40222516643661       -0.00786706470788
C           -2.29777507585709        5.00944724104517       -0.00544304188729
C           -1.96902119688299        3.67017066101615       -0.00322355241051
N           -1.38885418905681        0.91706375083819       -0.00163267417699
C            1.31992741288667        0.13235572126890        0.00076505506187
C            2.63615327229242       -0.28479622100436        0.00170531207523
H            7.34797769470901        2.14006166536795        0.01298397184288
H            5.32584109569451        3.54820932432438        0.01190114483348
H            3.08430877992738        2.51748572634400        0.00653140593055
H            2.15976769331514       -3.66740132880536       -0.00275085662541
H           -0.19859915765525       -2.90860545202134       -0.00356693815690
H           -3.06160877542034       -3.58363246880133       -0.00295342559437
H           -4.88524265889386       -5.25613135172728        0.00121475074567
H           -7.23616712743417       -4.51193317319140        0.00967393643192
H           -7.76870981565785       -2.10419658274929        0.01387732504939
H           -5.94011970721880       -0.43686494067134        0.00951669439705
H           -5.08441486071361        2.34817795342411       -0.00589618729590
H           -5.66886300633088        4.75205934293112       -0.01000119408373
H           -3.88218081664170        6.45191065392895       -0.00973187588358
H           -1.51679210353787        5.75565995456788       -0.00532679433534
H           -0.93871837879869        3.34941040470495       -0.00134112296359
H            1.06837528840861        1.18082582439550        0.00167939283193

 projected vibrational frequencies (cm⁻¹)
eigval :       -0.00    -0.00    -0.00    -0.00     0.00     0.00
eigval :       16.80    23.14    27.44    28.81    29.09    47.88
eigval :       54.97    82.94    88.82    97.31   113.17   115.44
eigval :      139.26   172.24   178.14   189.14   199.94   220.00
eigval :      240.74   246.78   263.69   274.83   285.65   364.44
eigval :      366.21   367.02   371.47   375.15   384.28   397.06
eigval :      405.28   407.98   414.19   458.81   461.52   506.93
eigval :      512.05   538.10   540.04   556.96   559.34   575.25
eigval :      587.75   588.43   590.48   600.72   609.67   642.39
eigval :      649.07   649.95   657.90   660.26   682.94   688.87
eigval :      725.61   757.86   760.40   794.07   796.51   802.49
eigval :      804.93   835.86   865.57   868.35   888.42   896.93
eigval :      898.44   900.78   916.01   918.14   924.60   925.89
eigval :      928.01   929.21   949.31   981.02   984.56  1008.74
eigval :     1052.09  1061.35  1073.13  1074.92  1096.24  1108.75
eigval :     1109.69  1120.43  1134.72  1153.68  1154.72  1178.86
eigval :     1179.28  1179.87  1184.39  1188.14  1211.94  1233.25
eigval :     1244.77  1267.27  1270.32  1277.64  1289.63  1330.69
eigval :     1332.53  1334.38  1341.26  1351.20  1354.24  1372.88
eigval :     1413.89  1427.56  1431.27  1437.88  1445.13  1457.46
eigval :     1461.15  1474.25  1500.81  1541.51  1552.23  1566.57
eigval :     1567.52  1570.09  1583.34  1589.19  2367.25  3077.18
eigval :     3078.08  3081.00  3082.27  3088.57  3091.38  3092.15
eigval :     3093.16  3095.98  3097.31  3098.37  3099.72  3100.66
eigval :     3102.87  3104.39  3106.58

   temp. (K)  partition function   enthalpy   heat capacity  entropy
                                   cal/mol     cal/K/mol   cal/K/mol   J/K/mol
 298.15  VIB  0.731E+12            15422.191     95.321     95.345
         ROT  0.385E+08              888.752      2.981     37.690
         INT  0.281E+20            16310.944     98.302    133.034
         TR   0.895E+28             1481.254      4.968     44.118
         TOT                       17792.1976   103.2697   177.1523   741.2053

       T/K    H(0)-H(T)+PV         H(T)/Eh          T*S/Eh         G(T)/Eh
   ------------------------------------------------------------------------
    298.15    0.283537E-01    0.375791E+00    0.841708E-01    0.291621E+00
   ------------------------------------------------------------------------

         :::::::::::::::::::::::::::::::::::::::::::::::::::::
         ::                  THERMODYNAMIC                  ::
         :::::::::::::::::::::::::::::::::::::::::::::::::::::
         :: total free energy         -82.672736891360 Eh   ::
         ::.................................................::
         :: total energy              -82.964357426059 Eh   ::
         :: zero point energy           0.347437648798 Eh   ::
         :: G(RRHO) w/o ZPVE           -0.055817114099 Eh   ::
         :: G(RRHO) contrib.            0.291620534699 Eh   ::
         :::::::::::::::::::::::::::::::::::::::::::::::::::::

           -------------------------------------------------
          | TOTAL ENERGY              -82.964357426059 Eh   |
          | TOTAL ENTHALPY            -82.588566105664 Eh   |
          | TOTAL FREE ENERGY         -82.672736891360 Eh   |
          | GRADIENT NORM               0.000123805407 Eh/α |
           -------------------------------------------------

 * finished run on 2025/08/25 at 22:16:24.832
