   * xtb version 6.7.1 (edcfbbe) compiled by 'albert@albert-system' on 2024-07-22

   ID    Z sym.   atoms
    1    7 N      1, 15, 23, 31
    2    6 C      2-8, 10-14, 16-22, 24-30, 32, 33
    3   16 S      9
    4    1 H      34-49

          program call               : xtb data2507/gas/2Trz6CNDBT/2Trz6CNDBT_gas_S0_crest.xyz --gfn 2 --ohess vtight --parallel 40 --molden --ceasefiles --namespace data2507/gas/2Trz6CNDBT/2Trz6CNDBT_gas_S0_finalOpt
          :  Hamiltonian                  GFN2-xTB          :
 * total energy  :   -83.0436579 Eh     change       -0.1896723E-08 Eh
 * total energy  :   -83.0436549 Eh     change        0.2975892E-05 Eh
 * total energy  :   -83.0436587 Eh     change       -0.3817499E-05 Eh
 * total energy  :   -83.0436591 Eh     change       -0.3511134E-06 Eh
 * total energy  :   -83.0436595 Eh     change       -0.4498484E-06 Eh
 * total energy  :   -83.0436604 Eh     change       -0.8629509E-06 Eh
 * total energy  :   -83.0436615 Eh     change       -0.1111620E-05 Eh
 * total energy  :   -83.0436625 Eh     change       -0.9982717E-06 Eh
 * total energy  :   -83.0436632 Eh     change       -0.6924666E-06 Eh
 * total energy  :   -83.0436636 Eh     change       -0.3697103E-06 Eh
 * total energy  :   -83.0436638 Eh     change       -0.2139489E-06 Eh
 * total energy  :   -83.0436639 Eh     change       -0.1215736E-06 Eh
 * total energy  :   -83.0436640 Eh     change       -0.8125770E-07 Eh
   *** GEOMETRY OPTIMIZATION CONVERGED AFTER 13 ITERATIONS ***

 final structure:
================
49
 xtb: 6.7.1 (edcfbbe)
N            8.36567007981947       -1.10907917449385        0.01348001195790
C            7.41451896779099       -0.46929356214393        0.01680395666576
C            6.24705637707472        0.32555439805963        0.02112938118222
C            6.33977658021284        1.71599368769112        0.03871656265032
C            5.19384002069989        2.49760826140548        0.04319894861279
C            3.93934776442364        1.91680187869251        0.03052796148254
C            3.81905391823350        0.53068891746304        0.01296599020825
C            4.97948004882428       -0.26190567822249        0.00818756943352
S            4.63960930225918       -1.97320265094833       -0.01428451175752
C            2.92106974169898       -1.65123794282426       -0.01701106740883
C            1.91692695251684       -2.60863573785079       -0.03178942584794
C            0.60531785911517       -2.18753990558727       -0.03038454440702
C            0.28915452264661       -0.82315586824610       -0.01517209062740
C           -1.11106005464564       -0.39830909463864       -0.01249708320143
N           -2.04870705705573       -1.33998223602707       -0.00931276956831
C           -3.30754329996869       -0.90830514695330       -0.00319814590423
C           -4.37661194909724       -1.90622261180691        0.00460825562346
C           -5.71062295200185       -1.50307023490606        0.01768728715083
C           -6.71834168315165       -2.44754864925028        0.02614873592963
C           -6.40565830632491       -3.79816541280643        0.02137797353660
C           -5.08026948934017       -4.20446852957278        0.00816586464085
C           -4.06767430250350       -3.26518321246794       -0.00008232159206
N           -3.65106915918950        0.37630511174652       -0.00312261209882
C           -2.64945433212569        1.25053918886977       -0.00903995544808
C           -2.98066903860129        2.67545770572669       -0.01145652613110
C           -4.31267683617306        3.08477765217867       -0.00355051796620
C           -4.62259404992948        4.43080165435869       -0.00584273128268
C           -3.61013493695253        5.37767757580480       -0.01609987439569
C           -2.28336289315855        4.97587297629119       -0.02417794403085
C           -1.96688860659062        3.63148722051030       -0.02190176224003
N           -1.36385045915286        0.90730740116123       -0.01244796522459
C            1.29841830324415        0.13037614316653       -0.00121477165147
C            2.62494720973749       -0.27579320054150       -0.00157300970986
H            7.31667404941176        2.17544302480500        0.04886576123504
H            5.28766660661036        3.57267082882429        0.05687277473980
H            3.05133710635584        2.52963573479647        0.03423744610184
H            2.16651047676915       -3.65811020417977       -0.04372082974904
H           -0.20287859686895       -2.90081702263792       -0.04111316915245
H           -5.93473581915329       -0.44805869033690        0.02128587305229
H           -7.75177852113004       -2.13344259960462        0.03656426459668
H           -7.19569683853923       -4.53486071907691        0.02805831444685
H           -4.83917507067043       -5.25737962411020        0.00446822257289
H           -3.03107008015585       -3.56297499660588       -0.01005093267856
H           -5.08684109660917        2.33390367604255        0.00429333943030
H           -5.65560379195081        4.74629572382344        0.00030654720059
H           -3.85513186504348        6.42975973451055       -0.01783255056214
H           -1.49631720614745        5.71578253983279       -0.03230071449749
H           -0.94048952686465        3.30013292826596       -0.02841932547848
H            1.03503634905153        1.17568149961284        0.01056656936121

          :  Hamiltonian                  GFN2-xTB          :
         :: gradient norm              0.000033148066 Eh/a0 ::
         :: HOMO-LUMO gap              2.225870509082 eV    ::
         :: SCC energy               -84.550741354533 Eh    ::
         :: -> dispersion             -0.065227528595 Eh    ::
         :: repulsion energy           1.507077379884 Eh    ::

    * Orbital Energies and Occupations

         #    Occupation            Energy/Eh            Energy/eV
      -------------------------------------------------------------
         1        2.0000           -0.7425167             -20.2049
       ...           ...                  ...                  ...
        65        2.0000           -0.4332673             -11.7898
        66        2.0000           -0.4317382             -11.7482
        67        2.0000           -0.4289847             -11.6733
        68        2.0000           -0.4273764             -11.6295
        69        2.0000           -0.4237538             -11.5309
        70        2.0000           -0.4153585             -11.3025
        71        2.0000           -0.4141491             -11.2696
        72        2.0000           -0.4114954             -11.1974
        73        2.0000           -0.4099527             -11.1554
        74        2.0000           -0.4080142             -11.1026
        75        2.0000           -0.3893522             -10.5948
        76        2.0000           -0.3752548             -10.2112
        77        2.0000           -0.3743356             -10.1862 (HOMO)
        78                         -0.2925363              -7.9603 (LUMO)
        79                         -0.2896379              -7.8814
        80                         -0.2838572              -7.7241
        81                         -0.2664979              -7.2518
        82                         -0.2502301              -6.8091
        83                         -0.2324007              -6.3239
        84                         -0.2311691              -6.2904
        85                         -0.2252300              -6.1288
        86                         -0.2248313              -6.1180
        87                         -0.2069712              -5.6320
        88                         -0.2042457              -5.5578
       ...                                ...                  ...
       153                          1.1697286              31.8299
      -------------------------------------------------------------
                  HL-Gap            0.0817992 Eh            2.2259 eV

     #   Z          covCN         q      C6AA      α(0)
     1   7 N        0.911    -0.226    25.931     7.365
     2   6 C        1.910     0.114    28.287     8.589
     3   6 C        2.987     0.010    27.792     8.648
     4   6 C        2.928    -0.022    28.550     8.763
     5   6 C        2.917    -0.031    28.782     8.798
     6   6 C        2.916    -0.025    28.634     8.775
     7   6 C        3.101     0.001    27.870     8.651
     8   6 C        3.008     0.041    27.070     8.535
     9  16 S        2.206    -0.049   143.090    20.133
    10   6 C        3.004     0.040    27.088     8.537
    11   6 C        2.934    -0.036    28.894     8.816
    12   6 C        2.927    -0.024    28.610     8.772
    13   6 C        2.983    -0.003    28.094     8.695
    14   6 C        2.984     0.202    23.710     7.987
    15   7 N        1.844    -0.295    28.496     7.911
    16   6 C        2.982     0.203    23.699     7.985
    17   6 C        2.984    -0.000    28.026     8.684
    18   6 C        2.924    -0.023    28.581     8.767
    19   6 C        2.918    -0.027    28.678     8.782
    20   6 C        2.920    -0.023    28.575     8.766
    21   6 C        2.918    -0.027    28.679     8.782
    22   6 C        2.924    -0.023    28.582     8.767
    23   7 N        1.844    -0.293    28.449     7.905
    24   6 C        2.982     0.203    23.702     7.986
    25   6 C        2.984    -0.000    28.023     8.684
    26   6 C        2.924    -0.023    28.578     8.767
    27   6 C        2.918    -0.027    28.674     8.781
    28   6 C        2.920    -0.023    28.579     8.767
    29   6 C        2.918    -0.027    28.686     8.783
    30   6 C        2.924    -0.023    28.585     8.768
    31   7 N        1.844    -0.297    28.546     7.918
    32   6 C        2.922    -0.026    28.648     8.777
    33   6 C        3.104    -0.002    27.933     8.660
    34   1 H        0.926     0.048     2.344     2.394
    35   1 H        0.926     0.044     2.392     2.418
    36   1 H        0.926     0.048     2.349     2.397
    37   1 H        0.926     0.050     2.323     2.383
    38   1 H        0.926     0.065     2.136     2.286
    39   1 H        0.926     0.055     2.253     2.347
    40   1 H        0.926     0.038     2.480     2.462
    41   1 H        0.926     0.038     2.479     2.462
    42   1 H        0.926     0.038     2.479     2.462
    43   1 H        0.926     0.055     2.264     2.353
    44   1 H        0.926     0.056     2.247     2.344
    45   1 H        0.926     0.038     2.477     2.461
    46   1 H        0.926     0.038     2.481     2.463
    47   1 H        0.926     0.037     2.494     2.470
    48   1 H        0.926     0.052     2.291     2.367
    49   1 H        0.926     0.064     2.157     2.296

molecular dipole:
                 x           y           z       tot (Debye)
 q only:       -1.411       0.758       0.006
   full:       -1.868       1.140       0.009       5.562

 projected vibrational frequencies (cm⁻¹)
eigval :       -0.00    -0.00    -0.00     0.00     0.00     0.00
eigval :        6.02    15.96    20.29    26.01    31.99    50.81
eigval :       59.28    82.88    89.79    90.00   104.25   120.80
eigval :      136.06   181.03   182.40   191.29   205.71   207.38
eigval :      245.59   263.68   288.13   293.21   363.73   364.56
eigval :      372.97   373.12   388.29   397.23   401.13   401.52
eigval :      403.14   436.18   451.90   471.48   525.16   530.85
eigval :      542.89   563.15   577.30   587.75   588.66   590.59
eigval :      613.10   626.50   638.99   647.15   651.67   660.81
eigval :      673.62   686.05   690.31   702.71   740.26   752.12
eigval :      775.39   794.89   796.89   831.51   832.81   847.57
eigval :      873.15   875.95   877.17   890.07   908.83   910.45
eigval :      916.02   918.15   928.96   930.20   933.57   933.93
eigval :      938.41   983.86   990.79  1018.67  1047.64  1056.68
eigval :     1074.78  1075.22  1085.04  1107.32  1109.37  1111.87
eigval :     1122.21  1148.66  1166.19  1171.89  1180.26  1181.27
eigval :     1185.11  1193.75  1203.64  1207.33  1219.61  1235.64
eigval :     1268.54  1269.27  1290.04  1327.87  1329.61  1335.26
eigval :     1344.72  1352.65  1370.82  1372.84  1375.38  1418.39
eigval :     1432.45  1434.15  1447.24  1466.43  1468.12  1476.94
eigval :     1511.32  1516.78  1550.02  1556.21  1568.35  1581.75
eigval :     1584.14  1586.47  1595.14  1595.76  2372.87  3075.02
eigval :     3075.31  3081.05  3081.57  3089.86  3090.49  3090.86
eigval :     3097.01  3098.80  3104.79  3107.28  3107.98  3108.28
eigval :     3110.08  3112.52  3117.00

   temp. (K)  partition function   enthalpy   heat capacity  entropy
                                   cal/mol     cal/K/mol   cal/K/mol   J/K/mol
 298.15  VIB  0.197E+13            14877.635     91.738     93.800
         ROT  0.381E+08              888.752      2.981     37.671
         INT  0.750E+20            15766.387     94.719    131.471
         TR   0.895E+28             1481.254      4.968     44.118
         TOT                       17247.6411    99.6872   175.5887   734.6630

       T/K    H(0)-H(T)+PV         H(T)/Eh          T*S/Eh         G(T)/Eh
   ------------------------------------------------------------------------
    298.15    0.274859E-01    0.381161E+00    0.834278E-01    0.297733E+00
   ------------------------------------------------------------------------

         :::::::::::::::::::::::::::::::::::::::::::::::::::::
         ::                  THERMODYNAMIC                  ::
         :::::::::::::::::::::::::::::::::::::::::::::::::::::
         :: total free energy         -82.745930530774 Eh   ::
         ::.................................................::
         :: total energy              -83.043663974643 Eh   ::
         :: zero point energy           0.353675417232 Eh   ::
         :: G(RRHO) w/o ZPVE           -0.055941973362 Eh   ::
         :: G(RRHO) contrib.            0.297733443870 Eh   ::
         :::::::::::::::::::::::::::::::::::::::::::::::::::::

           -------------------------------------------------
          | TOTAL ENERGY              -83.043663974643 Eh   |
          | TOTAL ENTHALPY            -82.662502691792 Eh   |
          | TOTAL FREE ENERGY         -82.745930530774 Eh   |
          | GRADIENT NORM               0.000033097482 Eh/α |
          | HOMO-LUMO GAP               2.225870722812 eV   |
           -------------------------------------------------

 * finished run on 2025/08/25 at 22:13:21.783
