   * xtb version 6.7.1 (edcfbbe) compiled by 'albert@albert-system' on 2024-07-22

   ID    Z sym.   atoms
    1    7 N      1, 15, 23, 31
    2    6 C      2-8, 10-14, 16-22, 24-30, 32, 33
    3   16 S      9
    4    1 H      34-49

          program call               : xtb data2507/gas/2Trz6CNDBT/2Trz6CNDBT.xyz --gfn 2 --ohess vtight --parallel 40 --molden --ceasefiles --namespace data2507/gas/2Trz6CNDBT/2Trz6CNDBT_gas_S0_preOpt
          :  Hamiltonian                  GFN2-xTB          :
 * total energy  :   -83.0299819 Eh     change       -0.3412879E-08 Eh
 * total energy  :   -83.0399994 Eh     change       -0.1001746E-01 Eh
 * total energy  :   -83.0427950 Eh     change       -0.2795631E-02 Eh
 * total energy  :   -83.0434443 Eh     change       -0.6493270E-03 Eh
 * total energy  :   -83.0436094 Eh     change       -0.1650466E-03 Eh
 * total energy  :   -83.0436360 Eh     change       -0.2663664E-04 Eh
 * total energy  :   -83.0436510 Eh     change       -0.1499959E-04 Eh
 * total energy  :   -83.0436172 Eh     change        0.3380175E-04 Eh
 * total energy  :   -83.0436547 Eh     change       -0.3750134E-04 Eh
 * total energy  :   -83.0436599 Eh     change       -0.5170659E-05 Eh
 * total energy  :   -83.0436617 Eh     change       -0.1852814E-05 Eh
 * total energy  :   -83.0436623 Eh     change       -0.6193572E-06 Eh
 * total energy  :   -83.0436630 Eh     change       -0.6456821E-06 Eh
 * total energy  :   -83.0436636 Eh     change       -0.6575753E-06 Eh
 * total energy  :   -83.0436642 Eh     change       -0.5190341E-06 Eh
 * total energy  :   -83.0436645 Eh     change       -0.2950784E-06 Eh
 * total energy  :   -83.0436646 Eh     change       -0.1222410E-06 Eh
 * total energy  :   -83.0436646 Eh     change       -0.6961444E-07 Eh
   *** GEOMETRY OPTIMIZATION CONVERGED AFTER 18 ITERATIONS ***

 final structure:
================
49
 xtb: 6.7.1 (edcfbbe)
N            8.77270621811968       -2.54889082632786        0.00047939903459
C            7.91665392654426       -1.78654895877762        0.00034151252675
C            6.86637457125975       -0.84223788551987        0.00005313416215
C            7.14426721780703        0.52337919458215       -0.00014599979713
C            6.11309767968322        1.45118989351934       -0.00037877395950
C            4.79215090866502        1.04330546045492       -0.00039673923068
C            4.48745153134228       -0.31436968725892       -0.00018730998555
C            5.53156473636280       -1.25495469540360        0.00001665215006
S            4.96621567741433       -2.90560709410856        0.00021715155000
C            3.30616531558000       -2.35695155712963        0.00005511230430
C            2.18336175507420       -3.17205869490512        0.00012646998354
C            0.93973018470259       -2.57977406675144        0.00005237172219
C            0.80832286849041       -1.18529548679026       -0.00008738232752
C           -0.52333301609710       -0.57884356558120       -0.00007879243386
N           -1.57669535412207       -1.38899866601968       -0.00007256459158
C           -2.76791815126295       -0.79584706787896       -0.00003956456433
C           -3.95817571135547       -1.64561429228431       -0.00004276134771
C           -3.82857074975310       -3.03324312466376        0.00002563176875
C           -4.95466459086566       -3.83293382977698        0.00000601571702
C           -6.21602219918426       -3.25771242529007       -0.00008438588956
C           -6.35044502770964       -1.87789277281379       -0.00015069482129
C           -5.22846162992153       -1.07238979293273       -0.00012604361598
N           -2.93972614606942        0.52278281935005        0.00001928685845
C           -1.83181519814505        1.25774485667992        0.00003044872503
C           -1.97271506817675        2.71387788060329        0.00009836909891
C           -0.84182129267451        3.52810874699419        0.00019524479337
C           -0.97843446478026        4.90246425325713        0.00029040230662
C           -2.24075540774246        5.47551551344430        0.00028577128987
C           -3.36913314895978        4.67021099963955        0.00018602202759
C           -3.23923535224625        3.29507393229105        0.00009057086483
N           -0.60232731202571        0.74861996918832       -0.00003850402218
C            1.93565604817606       -0.37468016091145       -0.00020226932176
C            3.19622743886616       -0.95418933148989       -0.00013602999851
H            8.17385494563568        0.84814829024847       -0.00010844840241
H            6.34987360182758        2.50413028782082       -0.00054638036957
H            3.99412016959384        1.76945340535846       -0.00057677373856
H            2.29078042992049       -4.24550092305283        0.00025947424656
H            0.04354371377651       -3.17883702521207        0.00011814375684
H           -2.83944522561825       -3.46329313964151        0.00008535492853
H           -4.85244480011643       -4.90825730972573        0.00006275385467
H           -7.09515241214286       -3.88545102645199       -0.00009363196129
H           -7.33434616792221       -1.43214152682839       -0.00021639705290
H           -5.31350642450128        0.00281671118333       -0.00017817783491
H            0.13199508521688        3.06442660799243        0.00021192654710
H           -0.10075451816995        5.53226721321971        0.00036045372822
H           -2.34503644077619        6.55070593931324        0.00033883702247
H           -4.35159726258843        5.11904751944169        0.00017661655463
H           -4.10563238732975        2.65275509247266        0.00003368205001
H            1.81405243619884        0.69649234647334       -0.00033018430620

          :  Hamiltonian                  GFN2-xTB          :
         :: gradient norm              0.000068225254 Eh/a0 ::
         :: HOMO-LUMO gap              2.225841505115 eV    ::
         :: SCC energy               -84.550737532286 Eh    ::
         :: -> dispersion             -0.065226782244 Eh    ::
         :: repulsion energy           1.507072883818 Eh    ::

    * Orbital Energies and Occupations

         #    Occupation            Energy/Eh            Energy/eV
      -------------------------------------------------------------
         1        2.0000           -0.7425237             -20.2051
       ...           ...                  ...                  ...
        65        2.0000           -0.4332561             -11.7895
        66        2.0000           -0.4317223             -11.7478
        67        2.0000           -0.4289848             -11.6733
        68        2.0000           -0.4273778             -11.6295
        69        2.0000           -0.4237561             -11.5310
        70        2.0000           -0.4153423             -11.3020
        71        2.0000           -0.4141491             -11.2696
        72        2.0000           -0.4114883             -11.1972
        73        2.0000           -0.4099479             -11.1553
        74        2.0000           -0.4080089             -11.1025
        75        2.0000           -0.3893519             -10.5948
        76        2.0000           -0.3752470             -10.2110
        77        2.0000           -0.3743298             -10.1860 (HOMO)
        78                         -0.2925317              -7.9602 (LUMO)
        79                         -0.2896331              -7.8813
        80                         -0.2838583              -7.7242
        81                         -0.2664940              -7.2517
        82                         -0.2502261              -6.8090
        83                         -0.2323860              -6.3235
        84                         -0.2311695              -6.2904
        85                         -0.2252311              -6.1289
        86                         -0.2248268              -6.1178
        87                         -0.2069658              -5.6318
        88                         -0.2042412              -5.5577
       ...                                ...                  ...
       153                          1.1697885              31.8316
      -------------------------------------------------------------
                  HL-Gap            0.0817981 Eh            2.2258 eV

     #   Z          covCN         q      C6AA      α(0)
     1   7 N        0.911    -0.226    25.931     7.365
     2   6 C        1.910     0.114    28.287     8.589
     3   6 C        2.987     0.010    27.792     8.648
     4   6 C        2.928    -0.022    28.550     8.763
     5   6 C        2.917    -0.031    28.782     8.798
     6   6 C        2.916    -0.025    28.634     8.775
     7   6 C        3.101     0.001    27.870     8.651
     8   6 C        3.008     0.041    27.070     8.535
     9  16 S        2.206    -0.049   143.089    20.133
    10   6 C        3.004     0.040    27.087     8.537
    11   6 C        2.934    -0.036    28.894     8.816
    12   6 C        2.927    -0.024    28.611     8.772
    13   6 C        2.983    -0.003    28.094     8.695
    14   6 C        2.984     0.202    23.710     7.987
    15   7 N        1.844    -0.295    28.496     7.911
    16   6 C        2.982     0.203    23.699     7.985
    17   6 C        2.984    -0.000    28.026     8.684
    18   6 C        2.924    -0.023    28.582     8.767
    19   6 C        2.918    -0.027    28.679     8.782
    20   6 C        2.920    -0.023    28.575     8.766
    21   6 C        2.918    -0.027    28.678     8.782
    22   6 C        2.924    -0.023    28.581     8.767
    23   7 N        1.844    -0.293    28.449     7.905
    24   6 C        2.982     0.203    23.702     7.986
    25   6 C        2.984    -0.000    28.023     8.683
    26   6 C        2.924    -0.023    28.585     8.768
    27   6 C        2.918    -0.027    28.686     8.783
    28   6 C        2.920    -0.023    28.579     8.767
    29   6 C        2.918    -0.027    28.674     8.781
    30   6 C        2.924    -0.023    28.578     8.767
    31   7 N        1.844    -0.297    28.545     7.918
    32   6 C        2.922    -0.026    28.647     8.777
    33   6 C        3.103    -0.002    27.933     8.660
    34   1 H        0.926     0.048     2.344     2.394
    35   1 H        0.926     0.044     2.392     2.418
    36   1 H        0.926     0.048     2.349     2.397
    37   1 H        0.926     0.050     2.323     2.383
    38   1 H        0.926     0.065     2.136     2.285
    39   1 H        0.926     0.055     2.264     2.353
    40   1 H        0.926     0.038     2.479     2.462
    41   1 H        0.926     0.038     2.479     2.462
    42   1 H        0.926     0.038     2.480     2.462
    43   1 H        0.926     0.055     2.254     2.348
    44   1 H        0.926     0.052     2.291     2.367
    45   1 H        0.926     0.037     2.494     2.470
    46   1 H        0.926     0.038     2.481     2.463
    47   1 H        0.926     0.038     2.477     2.461
    48   1 H        0.926     0.056     2.247     2.344
    49   1 H        0.926     0.064     2.157     2.297

molecular dipole:
                 x           y           z       tot (Debye)
 q only:       -1.296       0.938      -0.000
   full:       -1.698       1.378      -0.000       5.558

 projected vibrational frequencies (cm⁻¹)
eigval :       -0.00    -0.00     0.00     0.00     0.00     0.00
eigval :        6.06    16.23    20.49    26.06    31.99    50.82
eigval :       59.28    82.82    89.73    90.00   104.25   120.81
eigval :      135.99   180.91   182.40   191.27   205.68   207.40
eigval :      245.58   263.64   288.11   293.13   363.73   364.56
eigval :      373.05   373.06   388.27   397.23   401.19   401.50
eigval :      403.12   436.18   452.00   471.48   525.16   530.83
eigval :      542.87   563.12   577.30   587.75   588.65   590.56
eigval :      613.10   626.52   638.99   647.16   651.69   660.82
eigval :      673.62   686.05   690.33   702.77   740.29   752.12
eigval :      775.41   794.90   796.89   831.53   832.81   847.53
eigval :      873.18   875.97   877.19   890.10   908.87   910.47
eigval :      916.05   918.18   929.01   930.24   933.60   933.95
eigval :      938.39   983.86   990.79  1018.77  1047.64  1056.76
eigval :     1074.78  1075.22  1085.01  1107.31  1109.38  1111.84
eigval :     1122.21  1148.71  1166.20  1171.93  1180.27  1181.28
eigval :     1185.10  1193.75  1203.66  1207.26  1219.57  1235.63
eigval :     1268.54  1269.26  1289.97  1327.87  1329.59  1335.24
eigval :     1344.72  1352.62  1370.83  1372.82  1375.31  1418.42
eigval :     1432.46  1434.16  1447.27  1466.46  1468.09  1476.89
eigval :     1511.29  1516.76  1550.00  1556.17  1568.35  1581.73
eigval :     1584.13  1586.45  1595.14  1595.76  2372.96  3075.00
eigval :     3075.32  3081.03  3081.56  3089.88  3090.48  3090.85
eigval :     3097.03  3098.90  3104.79  3107.33  3107.95  3108.31
eigval :     3110.02  3112.41  3117.17

   temp. (K)  partition function   enthalpy   heat capacity  entropy
                                   cal/mol     cal/K/mol   cal/K/mol   J/K/mol
 298.15  VIB  0.191E+13            14877.183     91.740     93.774
         ROT  0.381E+08              888.752      2.981     37.672
         INT  0.726E+20            15765.935     94.721    131.446
         TR   0.895E+28             1481.254      4.968     44.118
         TOT                       17247.1890    99.6888   175.5633   734.5571

       T/K    H(0)-H(T)+PV         H(T)/Eh          T*S/Eh         G(T)/Eh
   ------------------------------------------------------------------------
    298.15    0.274851E-01    0.381162E+00    0.834158E-01    0.297746E+00
   ------------------------------------------------------------------------

         :::::::::::::::::::::::::::::::::::::::::::::::::::::
         ::                  THERMODYNAMIC                  ::
         :::::::::::::::::::::::::::::::::::::::::::::::::::::
         :: total free energy         -82.745918410038 Eh   ::
         ::.................................................::
         :: total energy              -83.043664648471 Eh   ::
         :: zero point energy           0.353676905430 Eh   ::
         :: G(RRHO) w/o ZPVE           -0.055930666997 Eh   ::
         :: G(RRHO) contrib.            0.297746238433 Eh   ::
         :::::::::::::::::::::::::::::::::::::::::::::::::::::

           -------------------------------------------------
          | TOTAL ENERGY              -83.043664648471 Eh   |
          | TOTAL ENTHALPY            -82.662502597866 Eh   |
          | TOTAL FREE ENERGY         -82.745918410038 Eh   |
          | GRADIENT NORM               0.000068074413 Eh/α |
          | HOMO-LUMO GAP               2.225840915263 eV   |
           -------------------------------------------------

 * finished run on 2025/08/25 at 22:11:36.830
