   * xtb version 6.7.1 (edcfbbe) compiled by 'albert@albert-system' on 2024-07-22

   ID    Z sym.   atoms
    1    7 N      1, 15, 23, 31
    2    6 C      2-8, 10-14, 16-22, 24-30, 32, 33
    3   16 S      9
    4    1 H      34-49

          program call               : xtb data2507/gas/2Trz6CNDBT/2Trz6CNDBT_gas_S0_finalOpt.xtbopt.xyz --gfn 2 --spinpol --tblite --uhf 2 --ohess vtight --parallel 40 --molden --ceasefiles --namespace data2507/gas/2Trz6CNDBT/2Trz6CNDBT_gas_T1_preOpt
 * total energy  :   -82.9592499 Eh     change       -0.4481706E-08 Eh
 * total energy  :   -82.9622405 Eh     change       -0.2990585E-02 Eh
 * total energy  :   -82.9638512 Eh     change       -0.1610658E-02 Eh
 * total energy  :   -82.9640477 Eh     change       -0.1965278E-03 Eh
 * total energy  :   -82.9640716 Eh     change       -0.2392491E-04 Eh
 * total energy  :   -82.9642267 Eh     change       -0.1551050E-03 Eh
 * total energy  :   -82.9641689 Eh     change        0.5785140E-04 Eh
 * total energy  :   -82.9643378 Eh     change       -0.1689476E-03 Eh
 * total energy  :   -82.9643452 Eh     change       -0.7401923E-05 Eh
 * total energy  :   -82.9643518 Eh     change       -0.6546924E-05 Eh
 * total energy  :   -82.9643530 Eh     change       -0.1643967E-05 Eh
 * total energy  :   -82.9643477 Eh     change        0.5316669E-05 Eh
 * total energy  :   -82.9643536 Eh     change       -0.5896448E-05 Eh
 * total energy  :   -82.9643539 Eh     change       -0.2899276E-06 Eh
 * total energy  :   -82.9643544 Eh     change       -0.5597467E-06 Eh
 * total energy  :   -82.9643554 Eh     change       -0.9393844E-06 Eh
 * total energy  :   -82.9643560 Eh     change       -0.6618846E-06 Eh
 * total energy  :   -82.9643561 Eh     change       -0.1048630E-06 Eh
 * total energy  :   -82.9643562 Eh     change       -0.7477459E-07 Eh
   *** GEOMETRY OPTIMIZATION CONVERGED AFTER 21 ITERATIONS ***

 final structure:
================
49
 xtb: 6.7.1 (edcfbbe)
N            8.38534741111341       -1.11323597369064        0.01527967662851
C            7.43321192128357       -0.47433674459855        0.01666989697412
C            6.26672406593067        0.32047774044261        0.01838811355294
C            6.36170479643203        1.71194785238552        0.02994858984480
C            5.21739256819873        2.49352463970143        0.03169612832515
C            3.96050914108905        1.91263279867813        0.02196016250518
C            3.83718437589034        0.52867878720526        0.01048451963747
C            4.99776873552476       -0.26543433294986        0.00885031857057
S            4.65765690440102       -1.97478562079402       -0.00499754573501
C            2.93655646838745       -1.65345210558187       -0.00798663925349
C            1.92709011983004       -2.61102806868737       -0.01664473574096
C            0.61990642461940       -2.19420856759410       -0.01657489218844
C            0.28884403746847       -0.81943328198188       -0.00878473879598
C           -1.07145207360562       -0.40692753105301       -0.00815709561297
N           -2.07055796333782       -1.32587985999450       -0.00645307666663
C           -3.31443825885203       -0.93884344047915       -0.00280521053719
C           -4.38298970923469       -1.92313345469821        0.00238456193887
C           -5.71685112696774       -1.51054438138040        0.00927960283514
C           -6.73097015377358       -2.44667813507056        0.01556860101949
C           -6.43004697255432       -3.80032197498626        0.01489965174113
C           -5.10631132866251       -4.21660721840091        0.00783463382706
C           -4.08640661968221       -3.28785831252352        0.00166209781619
N           -3.64422426602978        0.37131698893585       -0.00271484475795
C           -2.63890534845178        1.27947824699154       -0.00662638942706
C           -2.98070713826520        2.68999699174925       -0.00913806118546
C           -4.31931278991821        3.08882078805248       -0.00344257929567
C           -4.64223181581005        4.43047966919075       -0.00640315688376
C           -3.64037634063772        5.38927589553669       -0.01515797913022
C           -2.30835167293258        4.99975195958883       -0.02090588822212
C           -1.97640873588520        3.66121823332549       -0.01790815414206
N           -1.38913930753381        0.91033018555738       -0.00831296312709
C            1.32064752221447        0.13517639427442       -0.00076411229656
C            2.63867272934361       -0.27616285412540        0.00041850705813
H            7.33941118193397        2.16976099641651        0.03764476435195
H            5.31099829040651        3.56873955794137        0.04090046308776
H            3.07411527962407        2.52792459604489        0.02349485258679
H            2.17700042886078       -3.66069882316612       -0.02296442896297
H           -0.18464234204779       -2.91231648592283       -0.02279162251174
H           -5.93543848499109       -0.45363512646222        0.00982867257042
H           -7.76155992202477       -2.12347657094689        0.02112678282538
H           -7.22557760889694       -4.53050912226104        0.01993625615641
H           -4.87360920970855       -5.27128052200179        0.00729045717154
H           -3.05232951282529       -3.59635055585328       -0.00363644471897
H           -5.08844989580557        2.33176236807404        0.00328116125763
H           -5.67873914991587        4.73422940396461       -0.00195932197224
H           -3.89621366238932        6.43834451370929       -0.01759304710922
H           -1.52917461989918        5.74780602999687       -0.02787738608910
H           -0.94535729469304        3.34291397133387       -0.02261627718009
H            1.06459943147873        1.18253514157949        0.00540183345810

 projected vibrational frequencies (cm⁻¹)
eigval :       -0.00    -0.00    -0.00    -0.00     0.00     0.00
eigval :       16.88    23.26    27.42    29.03    29.50    47.84
eigval :       54.91    82.95    89.16    97.29   113.19   116.93
eigval :      139.28   172.22   177.83   189.12   199.53   220.13
eigval :      241.82   246.72   261.98   274.30   285.67   365.12
eigval :      366.22   367.00   371.46   375.49   384.31   397.15
eigval :      405.35   407.98   414.03   460.51   461.52   505.47
eigval :      512.05   537.72   540.33   556.97   558.64   575.29
eigval :      587.82   588.52   590.50   600.31   609.70   642.50
eigval :      649.07   649.65   657.96   660.30   682.94   688.68
eigval :      725.54   757.98   760.30   794.07   796.55   802.49
eigval :      804.98   835.78   865.66   868.26   888.42   897.13
eigval :      898.45   900.62   916.02   918.28   924.66   925.83
eigval :      928.15   929.10   948.95   980.92   984.43  1008.67
eigval :     1051.96  1061.22  1073.07  1075.00  1096.86  1108.92
eigval :     1109.64  1120.60  1134.75  1153.49  1154.34  1178.64
eigval :     1179.40  1179.95  1184.39  1188.49  1211.81  1233.30
eigval :     1244.95  1267.17  1270.35  1277.57  1289.59  1330.76
eigval :     1332.53  1334.21  1341.28  1351.40  1354.67  1372.91
eigval :     1413.72  1427.63  1431.34  1438.30  1445.43  1457.58
eigval :     1461.18  1474.29  1500.75  1541.55  1552.20  1566.65
eigval :     1567.96  1569.78  1583.43  1589.24  2367.29  3077.36
eigval :     3078.08  3081.15  3082.18  3088.61  3091.69  3092.33
eigval :     3093.14  3096.22  3097.52  3098.46  3099.98  3100.74
eigval :     3102.89  3104.34  3106.44

   temp. (K)  partition function   enthalpy   heat capacity  entropy
                                   cal/mol     cal/K/mol   cal/K/mol   J/K/mol
 298.15  VIB  0.704E+12            15420.151     95.331     95.308
         ROT  0.385E+08              888.752      2.981     37.689
         INT  0.271E+20            16308.904     98.312    132.997
         TR   0.895E+28             1481.254      4.968     44.118
         TOT                       17790.1576   103.2805   177.1148   741.0483

       T/K    H(0)-H(T)+PV         H(T)/Eh          T*S/Eh         G(T)/Eh
   ------------------------------------------------------------------------
    298.15    0.283504E-01    0.375797E+00    0.841530E-01    0.291644E+00
   ------------------------------------------------------------------------

         :::::::::::::::::::::::::::::::::::::::::::::::::::::
         ::                  THERMODYNAMIC                  ::
         :::::::::::::::::::::::::::::::::::::::::::::::::::::
         :: total free energy         -82.672712060873 Eh   ::
         ::.................................................::
         :: total energy              -82.964356198891 Eh   ::
         :: zero point energy           0.347446670335 Eh   ::
         :: G(RRHO) w/o ZPVE           -0.055802532318 Eh   ::
         :: G(RRHO) contrib.            0.291644138017 Eh   ::
         :::::::::::::::::::::::::::::::::::::::::::::::::::::

           -------------------------------------------------
          | TOTAL ENERGY              -82.964356198891 Eh   |
          | TOTAL ENTHALPY            -82.588559107853 Eh   |
          | TOTAL FREE ENERGY         -82.672712060873 Eh   |
          | GRADIENT NORM               0.000067033355 Eh/α |
           -------------------------------------------------

 * finished run on 2025/08/25 at 22:13:26.357
