   * xtb version 6.7.1 (edcfbbe) compiled by 'albert@albert-system' on 2024-07-22

   ID    Z sym.   atoms
    1    6 C      1-8, 10-16, 18-23, 25-30, 32-35, 37-43, 45-59
    2    7 N      9, 17, 24, 31, 36, 44
    3    1 H      60-101

          program call               : xtb data2507/toluene/PY-TPA/PY-TPA_toluene_T1_crest.xyz --gfn 2 --uhf 2 --gbsa toluene --ohess vtight --parallel 40 --molden --ceasefiles --namespace data2507/toluene/PY-TPA/PY-TPA_toluene_T1_finalOpt
      * Solvation model:               GBSA
        Solvent                        toluene
        Solvent mass                       9.2140E+01 g/mol
          :  Hamiltonian                  GFN2-xTB          :
 * total energy  :  -152.4746409 Eh     change       -0.4943692E-07 Eh
 * total energy  :  -152.4748055 Eh     change       -0.1645338E-03 Eh
 * total energy  :  -152.4748926 Eh     change       -0.8713907E-04 Eh
 * total energy  :  -152.4749083 Eh     change       -0.1574887E-04 Eh
 * total energy  :  -152.4749418 Eh     change       -0.3344263E-04 Eh
 * total energy  :  -152.4749646 Eh     change       -0.2282169E-04 Eh
 * total energy  :  -152.4750004 Eh     change       -0.3580958E-04 Eh
 * total energy  :  -152.4750479 Eh     change       -0.4749487E-04 Eh
 * total energy  :  -152.4751106 Eh     change       -0.6263893E-04 Eh
 * total energy  :  -152.4751386 Eh     change       -0.2803682E-04 Eh
 * total energy  :  -152.4757672 Eh     change       -0.7448701E-06 Eh
 * total energy  :  -152.4757679 Eh     change       -0.7771779E-06 Eh
 * total energy  :  -152.4757688 Eh     change       -0.9185426E-06 Eh
 * total energy  :  -152.4757699 Eh     change       -0.1073335E-05 Eh
 * total energy  :  -152.4757712 Eh     change       -0.1278468E-05 Eh
 * total energy  :  -152.4757728 Eh     change       -0.1638501E-05 Eh
 * total energy  :  -152.4757747 Eh     change       -0.1843830E-05 Eh
 * total energy  :  -152.4757769 Eh     change       -0.2210196E-05 Eh
 * total energy  :  -152.4757769 Eh     change       -0.3008921E-08 Eh
   *** GEOMETRY OPTIMIZATION CONVERGED AFTER 94 ITERATIONS ***

 final structure:
================
101
 xtb: 6.7.1 (edcfbbe)
C           -6.92739272758396       -6.18736824564027       -1.81705926862347
C           -6.87451395406783       -5.79416579613059       -0.33254670122009
C           -8.29272365845905       -5.80601738227569        0.25830715466767
C           -6.03763685871001       -6.83980298072242        0.41049244233564
C           -6.30088995893039       -4.39270887487147       -0.21438599502358
C           -6.95667299171497       -3.32481266514652       -0.82944686651444
C           -6.47896965314555       -2.03504819754352       -0.75062365342632
C           -5.30821041950485       -1.75963338097505       -0.04083206047499
N           -4.82036001321842       -0.45536451431363        0.05624404661930
C           -3.44793148581178       -0.21417538572164        0.04730015504788
C           -2.59152193403064       -0.97401240274899       -0.75424960034088
C           -1.24329812966917       -0.69112639469333       -0.79460920400816
C           -0.70728853310643        0.36016149976082       -0.04971153743442
C            0.71920328814900        0.69610145928024       -0.13555092171450
C            1.66735128593209       -0.31326739226751       -0.02415438511818
C            3.03339813310551       -0.04004541008347       -0.02671884952788
N            3.95142292331302       -1.00592902539040        0.08712442876589
C            5.24607644169193       -0.71775320920538        0.10222014206919
C            6.22079802065367       -1.75639099230611        0.22647626406006
C            5.78793801522119       -3.09244218136639        0.31682385408810
C            6.67947041724861       -4.12112434422830        0.43762456116735
C            8.05780224299843       -3.83130767382136        0.47293937601757
C            8.99261083859773       -4.87779324667778        0.59908470607567
N            9.75387638255489       -5.73279655623477        0.70226822472878
C            8.50307331501529       -2.52038283714646        0.38419274227565
C            7.60709540688199       -1.45569275149304        0.25960841082560
C            8.03840591630308       -0.07887065528842        0.16339734884222
C            9.38386633864787        0.29609540803315        0.19681794049206
C            9.76446817505321        1.62668967348909        0.10007746619084
C           11.13122346697766        1.96628422649931        0.13914444060696
N           12.24542349403289        2.24677402627045        0.17101629346923
C            8.79421042647390        2.63912935300457       -0.03698617955105
C            7.47303519111780        2.29135805978847       -0.06990090047908
C            7.06802934628751        0.94733855737455        0.02914953483988
C            5.67224321219043        0.63922545408478       -0.00316301061667
N            4.77274316404483        1.60579945501362       -0.12505713424386
C            3.46453385244638        1.32862157890407       -0.14468718651125
C            2.50093915661142        2.32503340038715       -0.28097454566108
C            1.14332796005316        2.03190055441831       -0.28624540441098
C            0.18365029453714        3.12245974636074       -0.50013477258961
C            0.28270395341046        4.32927902672258        0.19165864260799
C           -0.64922044942968        5.32520372948390       -0.04443126138938
C           -1.65552181539047        5.08221389854905       -0.96668992364671
N           -1.74712788889083        3.95345141000624       -1.65380469170627
C           -0.85248173549947        3.01084461063191       -1.43176490167070
C           -1.56031806130946        1.08380910421691        0.78692823080693
C           -2.90678532507692        0.80512116899357        0.83707200450578
C           -5.70644500263336        0.62133328078987        0.14585155426842
C           -5.41510898664034        1.83598253911055       -0.47955466704573
C           -6.29211393841825        2.89380708017966       -0.38434898731129
C           -7.49010781884074        2.79656207607383        0.32586559313812
C           -8.41965072166373        3.99575098478369        0.39679363268398
C           -7.67370843386520        5.16675244425453        1.05465482482434
C           -9.68610094400367        3.71537867632251        1.21124960897213
C           -8.84165541078849        4.38493757576938       -1.02851262647479
C           -7.76961382776067        1.57964726605845        0.94216162209876
C           -6.89973084141060        0.51008923488177        0.85890643428806
C           -4.64046962649048       -2.81814892800170        0.57486404827068
C           -5.13209959935805       -4.10558191894221        0.48572463877555
H           -7.31811787123917       -7.19732597630511       -1.92041430853305
H           -5.92979993528126       -6.15836974935390       -2.25113443781063
H           -7.56646214152830       -5.51639946027690       -2.38429458325076
H           -8.71079237741374       -6.80868506368866        0.20103484990914
H           -8.26886664200494       -5.50235747873644        1.30312449694104
H           -8.95405570301724       -5.13202664947723       -0.27891620225132
H           -6.49641662697581       -7.81943305337628        0.29279628305727
H           -5.02835615740178       -6.89382808838312        0.00866766975710
H           -5.98856080872998       -6.61966723517126        1.47458008431127
H           -7.85975760156564       -3.49924535319766       -1.39334820329844
H           -6.99960232760558       -1.23214276209623       -1.25110727100579
H           -2.99771191470170       -1.76533204984752       -1.36638568826782
H           -0.59713636749037       -1.26266721812261       -1.44413529062281
H            1.35685884192911       -1.33928908043457        0.10229303536027
H            4.72526923981524       -3.27764626774735        0.28682990578906
H            6.34789317972492       -5.14616609776656        0.50643238317441
H            9.56719969003958       -2.34561245944885        0.41367911579809
H           10.16115976450128       -0.44478357132570        0.30034678776980
H            9.10546578231060        3.67008133360629       -0.11262782728987
H            6.70281759182426        3.04033775562554       -0.17230860988537
H            2.84049858828532        3.34168448899422       -0.41094193014591
H            1.06938029471344        4.47048462248851        0.91946140013632
H           -0.60044249728254        6.26618963986171        0.48154146559828
H           -2.41960447164794        5.81943824886119       -1.17546984003521
H           -0.95546400479999        2.11831418787095       -2.03556230380154
H           -1.15401249209024        1.86103896721591        1.41647046674737
H           -3.55233491372073        1.36885193814620        1.49365206653337
H           -4.50524085656061        1.94029876530167       -1.05144749005933
H           -6.03250215310981        3.81197578930577       -0.88769538912891
H           -6.79212365447429        5.44716529882764        0.48492361073313
H           -7.35875802420840        4.89644694420898        2.06080190720365
H           -8.32677989555516        6.03436486039688        1.11991070254293
H          -10.26610148855301        2.90804148919001        0.76994325310586
H          -10.31035703365457        4.60648527074080        1.22543540144701
H           -9.44329518167216        3.46165427376115        2.24070562774383
H           -9.34910316426505        3.55270734100262       -1.51247393191248
H           -7.98449905777858        4.66213041104977       -1.63567427437872
H           -9.52349969447670        5.23196008771029       -0.99626885003474
H           -8.67505728842724        1.44964514673462        1.51112185542144
H           -7.13472955028239       -0.41583704538366        1.36283694097349
H           -3.74113449464785       -2.62296857535505        1.14037145389632
H           -4.58698344110803       -4.88857943204292        0.98602743311345

          :  Hamiltonian                  GFN2-xTB          :
         :: gradient norm              0.000068015186 Eh/a0 ::
         :: HOMO-LUMO gap              0.553272128340 eV    ::
         :: SCC energy              -155.260311903353 Eh    ::
         :: -> dispersion             -0.137490796862 Eh    ::
         :: -> Gsolv                  -0.074549670405 Eh    ::
         :: repulsion energy           2.784535008331 Eh    ::

    * Orbital Energies and Occupations

         #    Occupation            Energy/Eh            Energy/eV
      -------------------------------------------------------------
         1        2.0000           -0.6836397             -18.6028
       ...           ...                  ...                  ...
       131        2.0000           -0.4196414             -11.4190
       132        2.0000           -0.4180187             -11.3749
       133        2.0000           -0.4151305             -11.2963
       134        2.0000           -0.4135467             -11.2532
       135        2.0000           -0.4109340             -11.1821
       136        2.0000           -0.4086788             -11.1207
       137        2.0000           -0.4068792             -11.0717
       138        2.0000           -0.3967007             -10.7948
       139        2.0000           -0.3936278             -10.7112
       140        2.0000           -0.3758191             -10.2266
       141        1.5973           -0.3616154              -9.8401
       142        1.4027           -0.3608667              -9.8197
       143        1.0000           -0.3130288              -8.5179 (HOMO)
       144        0.0000           -0.2926964              -7.9647 (LUMO)
       145                         -0.2666747              -7.2566
       146                         -0.2623241              -7.1382
       147                         -0.2607643              -7.0958
       148                         -0.2527314              -6.8772
       149                         -0.2429934              -6.6122
       150                         -0.2407591              -6.5514
       151                         -0.2383130              -6.4848
       152                         -0.2322912              -6.3210
       153                         -0.2297370              -6.2515
       154                         -0.2284706              -6.2170
       ...                                ...                  ...
       278                          1.1583181              31.5194
      -------------------------------------------------------------
                  HL-Gap            0.0203323 Eh            0.5533 eV

     #   Z          covCN         q      C6AA      α(0)
     1   6 C        3.761    -0.107    22.589     6.775
     2   6 C        3.902     0.027    20.063     6.367
     3   6 C        3.761    -0.107    22.595     6.776
     4   6 C        3.761    -0.110    22.645     6.784
     5   6 C        2.972     0.014    27.701     8.633
     6   6 C        2.926    -0.031    28.784     8.798
     7   6 C        2.919    -0.043    29.074     8.842
     8   6 C        2.925     0.060    26.659     8.467
     9   7 N        2.752    -0.031    21.848     6.942
    10   6 C        2.927     0.064    26.565     8.452
    11   6 C        2.919    -0.041    29.029     8.835
    12   6 C        2.923    -0.031    28.783     8.798
    13   6 C        2.977     0.013    27.725     8.637
    14   6 C        2.975     0.001    27.995     8.679
    15   6 C        2.923    -0.063    29.564     8.917
    16   6 C        2.942     0.085    26.116     8.382
    17   7 N        1.849    -0.247    27.295     7.743
    18   6 C        2.943     0.081    26.197     8.395
    19   6 C        2.986    -0.005    28.141     8.702
    20   6 C        2.922    -0.026    28.660     8.779
    21   6 C        2.921    -0.025    28.639     8.776
    22   6 C        2.971     0.011    27.775     8.645
    23   6 C        1.913     0.116    28.237     8.582
    24   7 N        0.911    -0.280    27.226     7.547
    25   6 C        2.929    -0.024    28.604     8.771
    26   6 C        2.975     0.002    27.983     8.677
    27   6 C        2.975     0.002    27.979     8.676
    28   6 C        2.929    -0.024    28.605     8.771
    29   6 C        2.971     0.011    27.771     8.644
    30   6 C        1.913     0.116    28.235     8.581
    31   7 N        0.911    -0.280    27.218     7.545
    32   6 C        2.921    -0.026    28.640     8.776
    33   6 C        2.922    -0.026    28.657     8.779
    34   6 C        2.986    -0.005    28.142     8.702
    35   6 C        2.944     0.081    26.183     8.392
    36   7 N        1.849    -0.249    27.339     7.749
    37   6 C        2.943     0.084    26.118     8.382
    38   6 C        2.924    -0.063    29.569     8.917
    39   6 C        2.975    -0.002    28.073     8.691
    40   6 C        2.973     0.005    27.916     8.667
    41   6 C        2.933    -0.018    28.449     8.747
    42   6 C        2.911    -0.039    28.977     8.827
    43   6 C        2.912     0.056    26.737     8.479
    44   7 N        1.835    -0.237    27.039     7.706
    45   6 C        2.916     0.058    26.697     8.473
    46   6 C        2.923    -0.029    28.736     8.791
    47   6 C        2.920    -0.041    29.023     8.834
    48   6 C        2.927     0.060    26.663     8.468
    49   6 C        2.919    -0.043    29.070     8.842
    50   6 C        2.926    -0.031    28.770     8.796
    51   6 C        2.972     0.014    27.693     8.632
    52   6 C        3.902     0.027    20.063     6.367
    53   6 C        3.761    -0.107    22.589     6.775
    54   6 C        3.761    -0.110    22.652     6.785
    55   6 C        3.761    -0.107    22.594     6.776
    56   6 C        2.924    -0.036    28.900     8.816
    57   6 C        2.920    -0.044    29.082     8.843
    58   6 C        2.920    -0.044    29.092     8.845
    59   6 C        2.924    -0.036    28.888     8.814
    60   1 H        0.925     0.042     2.425     2.435
    61   1 H        0.925     0.035     2.517     2.481
    62   1 H        0.925     0.040     2.450     2.448
    63   1 H        0.925     0.042     2.426     2.436
    64   1 H        0.925     0.035     2.510     2.478
    65   1 H        0.925     0.040     2.446     2.446
    66   1 H        0.925     0.040     2.451     2.448
    67   1 H        0.925     0.038     2.476     2.461
    68   1 H        0.925     0.038     2.472     2.459
    69   1 H        0.926     0.046     2.372     2.408
    70   1 H        0.926     0.043     2.405     2.425
    71   1 H        0.926     0.049     2.330     2.387
    72   1 H        0.926     0.046     2.373     2.409
    73   1 H        0.926     0.050     2.322     2.383
    74   1 H        0.926     0.057     2.229     2.335
    75   1 H        0.926     0.044     2.391     2.418
    76   1 H        0.926     0.042     2.421     2.433
    77   1 H        0.926     0.042     2.416     2.431
    78   1 H        0.926     0.044     2.399     2.422
    79   1 H        0.926     0.056     2.243     2.342
    80   1 H        0.926     0.044     2.390     2.417
    81   1 H        0.926     0.041     2.437     2.441
    82   1 H        0.926     0.044     2.397     2.421
    83   1 H        0.925     0.040     2.454     2.450
    84   1 H        0.925     0.033     2.544     2.494
    85   1 H        0.926     0.037     2.490     2.468
    86   1 H        0.926     0.046     2.371     2.408
    87   1 H        0.926     0.042     2.418     2.432
    88   1 H        0.926     0.046     2.374     2.410
    89   1 H        0.925     0.039     2.460     2.453
    90   1 H        0.925     0.035     2.521     2.483
    91   1 H        0.925     0.042     2.424     2.435
    92   1 H        0.925     0.039     2.460     2.453
    93   1 H        0.925     0.040     2.447     2.446
    94   1 H        0.925     0.038     2.470     2.458
    95   1 H        0.925     0.036     2.505     2.475
    96   1 H        0.925     0.040     2.450     2.448
    97   1 H        0.925     0.042     2.424     2.435
    98   1 H        0.926     0.053     2.286     2.365
    99   1 H        0.926     0.043     2.406     2.426
   100   1 H        0.926     0.040     2.447     2.446
   101   1 H        0.926     0.051     2.306     2.375

molecular dipole:
                 x           y           z       tot (Debye)
 q only:      -10.531       0.393       0.123
   full:      -10.717       0.705       0.302      27.311

 projected vibrational frequencies (cm⁻¹)
eigval :       -0.00    -0.00    -0.00     0.00     0.00     0.00
eigval :        6.34     9.83    13.95    20.53    23.96    26.89
eigval :       29.95    35.51    38.94    45.20    46.60    54.36
eigval :       63.02    68.13    72.05    79.64    86.21    87.85
eigval :       96.05    98.65   101.81   109.82   115.78   125.27
eigval :      140.77   150.92   158.80   162.06   172.01   181.49
eigval :      182.71   187.92   190.38   205.53   219.39   222.96
eigval :      231.71   234.91   244.28   258.37   258.99   265.49
eigval :      271.13   283.85   298.17   310.84   314.38   316.00
eigval :      317.53   326.14   342.82   348.26   351.61   355.84
eigval :      362.85   373.28   378.63   382.29   384.34   388.07
eigval :      390.70   392.87   393.65   394.84   406.99   415.15
eigval :      422.59   429.95   439.85   454.41   459.28   462.30
eigval :      472.91   486.34   494.85   499.19   507.99   517.51
eigval :      528.32   533.69   543.96   551.53   555.35   560.15
eigval :      564.51   576.03   581.31   594.45   601.40   605.20
eigval :      606.54   609.09   616.11   625.39   631.92   639.99
eigval :      642.38   657.26   677.87   687.63   691.16   691.45
eigval :      694.63   697.75   705.71   713.03   718.21   726.80
eigval :      727.44   764.08   784.62   792.38   812.54   817.99
eigval :      820.80   820.93   822.11   824.01   829.50   849.44
eigval :      855.01   863.29   864.62   867.65   868.63   874.93
eigval :      880.54   902.85   909.54   912.59   914.69   915.06
eigval :      915.31   917.94   919.95   928.29   929.75   930.26
eigval :      931.32   932.22   944.31   950.34   951.74   959.71
eigval :      959.86   962.41   963.07   964.17   964.26   995.93
eigval :     1008.89  1021.58  1024.91  1034.45  1034.96  1035.05
eigval :     1035.34  1038.36  1061.80  1077.51  1094.52  1135.08
eigval :     1139.08  1139.96  1140.67  1141.36  1142.82  1152.02
eigval :     1153.78  1181.34  1186.77  1189.12  1193.23  1193.62
eigval :     1196.20  1204.29  1221.92  1222.63  1222.93  1230.44
eigval :     1230.81  1234.20  1235.71  1236.78  1246.02  1247.97
eigval :     1266.13  1267.96  1272.46  1274.83  1277.64  1278.65
eigval :     1280.48  1280.61  1288.16  1288.67  1301.85  1305.51
eigval :     1312.93  1313.42  1315.07  1325.22  1326.23  1340.55
eigval :     1347.09  1367.14  1388.70  1396.43  1398.28  1400.87
eigval :     1403.03  1403.86  1404.27  1406.48  1412.53  1414.34
eigval :     1420.67  1421.33  1427.93  1428.13  1448.61  1453.11
eigval :     1464.04  1471.07  1471.83  1472.92  1478.03  1486.23
eigval :     1489.17  1489.69  1489.92  1491.19  1496.99  1497.54
eigval :     1500.25  1500.67  1502.54  1511.13  1511.49  1515.31
eigval :     1515.56  1518.47  1531.48  1540.36  1549.03  1552.13
eigval :     1554.91  1563.03  1566.10  1567.41  1578.41  1581.59
eigval :     1593.45  2338.27  2345.56  3022.78  3022.93  3023.33
eigval :     3023.46  3026.90  3027.27  3027.43  3027.45  3031.00
eigval :     3031.50  3033.11  3033.16  3038.23  3038.46  3045.92
eigval :     3046.35  3049.50  3049.53  3054.44  3056.84  3069.38
eigval :     3082.87  3083.79  3084.40  3085.30  3086.03  3086.91
eigval :     3087.56  3088.18  3089.80  3090.03  3091.34  3094.64
eigval :     3095.77  3096.94  3097.84  3100.52  3101.16  3102.48
eigval :     3105.95  3119.56  3119.91

   temp. (K)  partition function   enthalpy   heat capacity  entropy
                                   cal/mol     cal/K/mol   cal/K/mol   J/K/mol
 298.15  VIB  0.265E+25            30949.129    189.371    193.937
         ROT  0.240E+09              888.752      2.981     41.329
         INT  0.636E+33            31837.881    192.352    235.266
         TR   0.204E+29             1481.254      4.968     45.754
         TOT                       33319.1348   197.3199   281.0202  1175.7887

       T/K    H(0)-H(T)+PV         H(T)/Eh          T*S/Eh         G(T)/Eh
   ------------------------------------------------------------------------
    298.15    0.530974E-01    0.841043E+00    0.133522E+00    0.707522E+00
   ------------------------------------------------------------------------

         :::::::::::::::::::::::::::::::::::::::::::::::::::::
         ::                  THERMODYNAMIC                  ::
         :::::::::::::::::::::::::::::::::::::::::::::::::::::
         :: total free energy        -151.768255231563 Eh   ::
         ::.................................................::
         :: total energy             -152.475776891231 Eh   ::
         :: zero point energy           0.787946021068 Eh   ::
         :: G(RRHO) w/o ZPVE           -0.080424361400 Eh   ::
         :: G(RRHO) contrib.            0.707521659668 Eh   ::
         :::::::::::::::::::::::::::::::::::::::::::::::::::::

           -------------------------------------------------
          | TOTAL ENERGY             -152.475776891231 Eh   |
          | TOTAL ENTHALPY           -151.634733449082 Eh   |
          | TOTAL FREE ENERGY        -151.768255231563 Eh   |
          | GRADIENT NORM               0.000068705354 Eh/α |
          | HOMO-LUMO GAP               0.553270640931 eV   |
           -------------------------------------------------

 * finished run on 2025/07/18 at 23:02:34.421
