   * xtb version 6.7.1 (edcfbbe) compiled by 'albert@albert-system' on 2024-07-22

   ID    Z sym.   atoms
    1    6 C      1-8, 10-16, 18-23, 25-30, 32-35, 37-43, 45-59
    2    7 N      9, 17, 24, 31, 36, 44
    3    1 H      60-101

          program call               : xtb data2507/toluene/PY-TPA/PY-TPA.xyz --gfn 2 --gbsa toluene --ohess vtight --parallel 40 --molden --ceasefiles --namespace data2507/toluene/PY-TPA/PY-TPA_toluene_S0_preOpt
      * Solvation model:               GBSA
        Solvent                        toluene
        Solvent mass                       9.2140E+01 g/mol
          :  Hamiltonian                  GFN2-xTB          :
 * total energy  :  -152.4836203 Eh     change       -0.2967795E-08 Eh
 * total energy  :  -152.5040948 Eh     change       -0.2047449E-01 Eh
 * total energy  :  -152.5103486 Eh     change       -0.6253831E-02 Eh
 * total energy  :  -152.5125600 Eh     change       -0.2211340E-02 Eh
 * total energy  :  -152.5136534 Eh     change       -0.1093475E-02 Eh
 * total energy  :  -152.5153755 Eh     change       -0.1722075E-02 Eh
 * total energy  :  -152.5159868 Eh     change       -0.6113105E-03 Eh
 * total energy  :  -152.5161630 Eh     change       -0.1761832E-03 Eh
 * total energy  :  -152.5168330 Eh     change       -0.6699959E-03 Eh
 * total energy  :  -152.5170478 Eh     change       -0.2148217E-03 Eh
 * total energy  :  -152.5179276 Eh     change       -0.1511442E-06 Eh
 * total energy  :  -152.5179277 Eh     change       -0.1587755E-06 Eh
 * total energy  :  -152.5179279 Eh     change       -0.1455257E-06 Eh
 * total energy  :  -152.5179280 Eh     change       -0.1443188E-06 Eh
 * total energy  :  -152.5179282 Eh     change       -0.1596659E-06 Eh
 * total energy  :  -152.5179284 Eh     change       -0.2125097E-06 Eh
 * total energy  :  -152.5179287 Eh     change       -0.2962542E-06 Eh
 * total energy  :  -152.5179290 Eh     change       -0.3654415E-06 Eh
 * total energy  :  -152.5179290 Eh     change       -0.1345626E-08 Eh
   *** GEOMETRY OPTIMIZATION CONVERGED AFTER 94 ITERATIONS ***

 final structure:
================
101
 xtb: 6.7.1 (edcfbbe)
C           -5.56164470630304       -6.25894208011706        0.92026034224438
C           -5.27453085636552       -5.71724374896603       -0.48825506809016
C           -4.18023621749987       -6.56318416872193       -1.15667626483888
C           -6.55381380621737       -5.84885110530422       -1.32036096472244
C           -4.79221767129894       -4.27882592752353       -0.37886425917999
C           -5.45388826470917       -3.20773298621013       -0.96885322350505
C           -4.98075039046408       -1.91347003189021       -0.85525098416580
C           -3.82259680239618       -1.64264874785986       -0.13394710752281
N           -3.35256159877153       -0.32564579403772       -0.00432217736813
C           -1.99584546808827       -0.04774219175660       -0.06410833452523
C           -1.13367224975974       -0.83586588357560       -0.83394275451293
C            0.21325308583624       -0.55498235514291       -0.88844699922609
C            0.74918630812246        0.53685083300177       -0.20516513301338
C            2.18367893738729        0.83394494502898       -0.27599837843488
C            3.09939404856533       -0.17278942204028       -0.08446019855334
C            4.48114058687558        0.09131962323577       -0.08164524869910
N            5.35650558443322       -0.90142574323441        0.12958396090670
C            6.64378534807975       -0.60005087069374        0.14530073882766
C            7.60474615729779       -1.65478571760447        0.38518253312743
C            7.14665384546545       -2.96109590352149        0.59430478709785
C            8.02397410167539       -3.98921650235028        0.83201255762493
C            9.39752948900392       -3.71277357502095        0.86499480246021
C           10.31956439672404       -4.75561678643111        1.11126523599502
N           11.06790987548335       -5.60224944833190        1.31137255726887
C            9.86656609502590       -2.42195092970794        0.65779695264464
C            8.98539129533013       -1.36612453839008        0.41267845073473
C            9.44733756563219       -0.00142076189306        0.18910832766950
C           10.80192596946005        0.33902259233345        0.19700248222953
C           11.21272207921805        1.64810500607315       -0.01945790043511
C           12.59201786428490        1.95629776510780       -0.00204553605551
N           13.71147467031366        2.20841065696266        0.01262159214236
C           10.27475433202462        2.66322136630452       -0.25269564136169
C            8.94053374549939        2.34308849686056       -0.26327939240685
C            8.51135310115993        1.02809839273939       -0.04561330989252
C            7.09546049494223        0.73526451339843       -0.06381447003620
N            6.24073405480497        1.72388726595298       -0.27325179589403
C            4.93514839155821        1.43208285893667       -0.28293767003919
C            3.98441695779711        2.44891497013496       -0.50307442657909
C            2.64206650044219        2.16809257213225       -0.51176053298404
C            1.68982856968012        3.24310526681479       -0.82712941338360
C            1.74604422285162        4.47913473622722       -0.18666809242857
C            0.83287202141060        5.46108808711875       -0.53126350886901
C           -0.10551146639147        5.17328770190861       -1.51071634519225
N           -0.15110693772098        4.01426819887065       -2.14902819984739
C            0.71977083690411        3.08139437986577       -1.81934815655160
C           -0.11059626884989        1.31736226151402        0.56914653323727
C           -1.45347355829981        1.02748829792396        0.64834501465540
C           -4.28491220171860        0.70719725267430        0.19075844398220
C           -4.14082204942623        1.93438231848485       -0.44858841665183
C           -5.06398671805326        2.94427834387671       -0.24906093908357
C           -6.16572545322160        2.77011214287236        0.58122279422247
C           -7.20345967566928        3.85504309147712        0.82578426548117
C           -6.89805365270187        5.14676244233822        0.06133343091570
C           -7.23977016521272        4.18427307309932        2.32589317279507
C           -8.57980321925983        3.34490001238261        0.37314149204008
C           -6.30291425090718        1.53197931991495        1.20683247916846
C           -5.38518595818571        0.51850326888563        1.02390497775152
C           -3.15512441212671       -2.70573911195647        0.47067257445786
C           -3.63364169016430       -3.99307087700342        0.34187272822396
H           -5.92318070911541       -7.28346416998345        0.86064603043068
H           -6.32184799417545       -5.65259717104880        1.40916584647391
H           -4.66834279158787       -6.24943446284421        1.53876487013686
H           -4.51441111029460       -7.59355761761321       -1.25968599118857
H           -3.95515087426024       -6.17287796167974       -2.14747188364072
H           -3.26386023588116       -6.55998030848923       -0.57284794537290
H           -6.85043864108200       -6.89500705502700       -1.36514674444151
H           -7.37133007827379       -5.28751274250075       -0.87358904329249
H           -6.39621599131661       -5.50127114197623       -2.33894818678909
H           -6.35424291690642       -3.36539595696939       -1.53961470029687
H           -5.51304208422285       -1.10178306314281       -1.33008603451122
H           -1.53422422912712       -1.66463244161276       -1.39839294644427
H            0.85969617848811       -1.16464520301029       -1.50294692505143
H            2.77565069438259       -1.18556319246541        0.10087459033486
H            6.08211753809523       -3.13125393627332        0.56303514564447
H            7.67406473280922       -4.99731934722858        0.99388982403815
H           10.93200215467662       -2.26047940970580        0.69327187978396
H           11.56172282090009       -0.40610861430652        0.37036442736318
H           10.60897384096049        3.67579296102466       -0.42001759179385
H            8.18750125160836        3.09490989184163       -0.43915789515447
H            4.34575685286381        3.44863293733866       -0.69239656233473
H            2.48308796894075        4.65415200075497        0.58436343829954
H            0.84515580482628        6.42511673433809       -0.04709529691593
H           -0.85188847929239        5.89821005564843       -1.80770383165428
H            0.65388818394620        2.15904775404366       -2.38165161608454
H            0.28771412880935        2.13911336006558        1.14606097637897
H           -2.09733051760378        1.63009605294041        1.27142530951418
H           -3.30133115840767        2.09743160827224       -1.10905940845169
H           -4.90693865922558        3.87590264679638       -0.76745673145874
H           -6.88614618711673        4.97332854494275       -1.01235347598675
H           -5.94155026703467        5.56539273037689        0.36620548152229
H           -7.67017147057983        5.88384446521544        0.27346226192269
H           -7.52031070814176        3.31626447212599        2.91616512560998
H           -7.96254916940980        4.97456660582333        2.51810732758990
H           -6.26108907624450        4.52292046311801        2.66086042974623
H           -8.87805607535277        2.46066288986513        0.92975223642639
H           -8.55771676563654        3.09084146269287       -0.68492607286081
H           -9.33334416335671        4.11451650833769        0.52737382122354
H           -7.14010921939020        1.34704220389796        1.86282834846923
H           -5.51541018005468       -0.42832312941997        1.52819217919500
H           -2.26074962337514       -2.51562033846371        1.04661237888017
H           -3.08824759836918       -4.78867793085749        0.82676857083575

          :  Hamiltonian                  GFN2-xTB          :
         :: gradient norm              0.000163848993 Eh/a0 ::
         :: HOMO-LUMO gap              0.766174602741 eV    ::
         :: SCC energy              -155.303373772316 Eh    ::
         :: -> dispersion             -0.137160091063 Eh    ::
         :: -> Gsolv                  -0.068956988791 Eh    ::
         :: repulsion energy           2.785444723547 Eh    ::

    * Orbital Energies and Occupations

         #    Occupation            Energy/Eh            Energy/eV
      -------------------------------------------------------------
         1        2.0000           -0.6907812             -18.7971
       ...           ...                  ...                  ...
       130        2.0000           -0.4171754             -11.3519
       131        2.0000           -0.4151410             -11.2966
       132        2.0000           -0.4135399             -11.2530
       133        2.0000           -0.4113039             -11.1921
       134        2.0000           -0.4094483             -11.1417
       135        2.0000           -0.4060032             -11.0479
       136        2.0000           -0.4041543             -10.9976
       137        2.0000           -0.4025018             -10.9526
       138        2.0000           -0.3972205             -10.8089
       139        2.0000           -0.3963372             -10.7849
       140        2.0000           -0.3780257             -10.2866
       141        2.0000           -0.3668010              -9.9812
       142        2.0000           -0.3490358              -9.4977 (HOMO)
       143        0.0000           -0.3208794              -8.7316 (LUMO)
       144                         -0.3015902              -8.2067
       145                         -0.2782231              -7.5708
       146                         -0.2711981              -7.3797
       147                         -0.2646391              -7.2012
       148                         -0.2554498              -6.9511
       149                         -0.2437188              -6.6319
       150                         -0.2349866              -6.3943
       151                         -0.2293416              -6.2407
       152                         -0.2274084              -6.1881
       153                         -0.2237905              -6.0896
       ...                                ...                  ...
       278                          1.1520426              31.3487
      -------------------------------------------------------------
                  HL-Gap            0.0281564 Eh            0.7662 eV

     #   Z          covCN         q      C6AA      α(0)
     1   6 C        3.761    -0.105    22.558     6.771
     2   6 C        3.902     0.025    20.090     6.371
     3   6 C        3.761    -0.105    22.559     6.771
     4   6 C        3.761    -0.108    22.606     6.778
     5   6 C        2.972     0.003    27.947     8.671
     6   6 C        2.925    -0.040    28.988     8.829
     7   6 C        2.921    -0.049    29.211     8.863
     8   6 C        2.925     0.060    26.656     8.467
     9   7 N        2.751    -0.073    22.650     7.068
    10   6 C        2.922     0.070    26.440     8.432
    11   6 C        2.920    -0.050    29.236     8.867
    12   6 C        2.923    -0.033    28.834     8.806
    13   6 C        2.977    -0.003    28.085     8.693
    14   6 C        2.974     0.015    27.677     8.630
    15   6 C        2.923    -0.052    29.293     8.876
    16   6 C        2.963     0.082    26.162     8.390
    17   7 N        1.848    -0.254    27.456     7.766
    18   6 C        2.960     0.082    26.162     8.390
    19   6 C        2.987     0.004    27.928     8.669
    20   6 C        2.923    -0.023    28.573     8.766
    21   6 C        2.922    -0.017    28.445     8.746
    22   6 C        2.972     0.022    27.520     8.605
    23   6 C        1.913     0.120    28.160     8.570
    24   7 N        0.911    -0.257    26.678     7.470
    25   6 C        2.930    -0.023    28.574     8.766
    26   6 C        2.975     0.011    27.774     8.645
    27   6 C        2.975     0.010    27.782     8.646
    28   6 C        2.930    -0.023    28.574     8.766
    29   6 C        2.972     0.021    27.530     8.606
    30   6 C        1.913     0.119    28.163     8.570
    31   7 N        0.911    -0.258    26.695     7.473
    32   6 C        2.922    -0.018    28.448     8.747
    33   6 C        2.923    -0.023    28.580     8.767
    34   6 C        2.987     0.004    27.927     8.669
    35   6 C        2.961     0.081    26.196     8.395
    36   7 N        1.848    -0.253    27.439     7.763
    37   6 C        2.964     0.082    26.161     8.390
    38   6 C        2.923    -0.050    29.240     8.868
    39   6 C        2.975     0.011    27.755     8.642
    40   6 C        2.974     0.006    27.888     8.662
    41   6 C        2.933    -0.016    28.399     8.740
    42   6 C        2.912    -0.038    28.939     8.821
    43   6 C        2.912     0.059    26.674     8.469
    44   7 N        1.835    -0.231    26.906     7.687
    45   6 C        2.916     0.061    26.627     8.462
    46   6 C        2.923    -0.031    28.785     8.798
    47   6 C        2.921    -0.050    29.237     8.867
    48   6 C        2.925     0.060    26.660     8.467
    49   6 C        2.921    -0.049    29.222     8.865
    50   6 C        2.925    -0.040    28.991     8.830
    51   6 C        2.972     0.003    27.945     8.671
    52   6 C        3.902     0.025    20.091     6.371
    53   6 C        3.761    -0.108    22.606     6.778
    54   6 C        3.761    -0.105    22.558     6.771
    55   6 C        3.761    -0.105    22.560     6.771
    56   6 C        2.927    -0.036    28.892     8.815
    57   6 C        2.921    -0.049    29.209     8.863
    58   6 C        2.920    -0.049    29.228     8.866
    59   6 C        2.927    -0.036    28.892     8.815
    60   1 H        0.925     0.039     2.462     2.454
    61   1 H        0.925     0.033     2.545     2.495
    62   1 H        0.925     0.037     2.493     2.469
    63   1 H        0.925     0.039     2.463     2.454
    64   1 H        0.925     0.033     2.545     2.495
    65   1 H        0.925     0.037     2.491     2.468
    66   1 H        0.925     0.038     2.478     2.462
    67   1 H        0.925     0.036     2.497     2.471
    68   1 H        0.925     0.036     2.498     2.472
    69   1 H        0.926     0.042     2.426     2.436
    70   1 H        0.926     0.031     2.577     2.510
    71   1 H        0.926     0.039     2.462     2.453
    72   1 H        0.926     0.038     2.479     2.462
    73   1 H        0.926     0.058     2.228     2.334
    74   1 H        0.926     0.072     2.066     2.248
    75   1 H        0.926     0.056     2.252     2.347
    76   1 H        0.926     0.053     2.280     2.361
    77   1 H        0.926     0.053     2.281     2.362
    78   1 H        0.926     0.055     2.259     2.350
    79   1 H        0.926     0.071     2.076     2.253
    80   1 H        0.926     0.056     2.249     2.345
    81   1 H        0.926     0.046     2.369     2.407
    82   1 H        0.926     0.049     2.332     2.388
    83   1 H        0.925     0.044     2.401     2.423
    84   1 H        0.925     0.037     2.489     2.467
    85   1 H        0.926     0.029     2.603     2.523
    86   1 H        0.926     0.036     2.508     2.477
    87   1 H        0.926     0.031     2.568     2.506
    88   1 H        0.926     0.042     2.424     2.435
    89   1 H        0.925     0.037     2.494     2.469
    90   1 H        0.925     0.036     2.502     2.474
    91   1 H        0.925     0.038     2.476     2.461
    92   1 H        0.925     0.037     2.491     2.468
    93   1 H        0.925     0.039     2.460     2.453
    94   1 H        0.925     0.032     2.552     2.498
    95   1 H        0.925     0.037     2.489     2.467
    96   1 H        0.925     0.033     2.540     2.492
    97   1 H        0.925     0.039     2.461     2.453
    98   1 H        0.926     0.034     2.524     2.484
    99   1 H        0.926     0.030     2.585     2.514
   100   1 H        0.926     0.030     2.589     2.516
   101   1 H        0.926     0.034     2.526     2.485

molecular dipole:
                 x           y           z       tot (Debye)
 q only:       -4.228       0.742       0.083
   full:       -4.535       1.030       0.263      11.840

 projected vibrational frequencies (cm⁻¹)
eigval :       -0.00    -0.00     0.00     0.00     0.00     0.00
eigval :        4.61     9.83    10.91    17.71    22.14    25.36
eigval :       26.84    31.14    37.98    41.94    44.70    53.24
eigval :       56.47    63.12    67.73    79.55    79.75    86.51
eigval :       89.44    96.78   101.39   111.55   115.42   125.54
eigval :      141.39   145.94   159.85   169.02   173.79   181.49
eigval :      183.53   186.89   194.70   204.05   219.47   229.05
eigval :      231.24   237.55   245.59   255.27   263.13   266.94
eigval :      275.76   286.48   297.20   308.49   314.03   314.62
eigval :      316.79   328.49   342.58   350.28   356.67   361.09
eigval :      364.18   368.32   377.16   381.23   383.84   386.87
eigval :      389.44   390.56   392.30   395.70   414.30   419.69
eigval :      427.60   435.86   441.43   450.52   458.61   466.33
eigval :      467.72   487.64   494.13   501.35   509.49   518.89
eigval :      529.99   534.86   540.76   552.58   556.48   559.20
eigval :      574.74   577.37   583.63   594.11   604.30   606.52
eigval :      608.78   610.82   625.11   633.76   642.40   647.37
eigval :      648.28   675.67   686.78   689.24   690.46   692.34
eigval :      703.13   710.32   717.56   720.38   731.36   736.48
eigval :      765.51   766.88   784.94   803.86   813.10   816.90
eigval :      818.05   828.43   831.56   850.23   852.78   858.74
eigval :      865.32   870.54   871.24   871.87   874.93   876.45
eigval :      880.81   899.09   911.77   914.26   915.46   917.33
eigval :      919.10   922.86   924.21   925.81   926.73   929.59
eigval :      931.05   932.52   950.10   951.43   958.95   959.80
eigval :      961.02   962.15   962.85   963.48   966.22   995.15
eigval :     1011.02  1024.98  1026.81  1033.75  1034.27  1034.75
eigval :     1035.42  1046.14  1062.54  1072.35  1093.03  1133.02
eigval :     1140.77  1141.86  1142.05  1143.51  1143.93  1151.67
eigval :     1152.50  1182.22  1187.85  1190.57  1193.03  1198.60
eigval :     1202.65  1208.29  1223.65  1225.07  1225.37  1228.99
eigval :     1231.87  1232.09  1232.20  1239.33  1255.31  1262.31
eigval :     1267.38  1271.42  1275.41  1276.56  1280.50  1280.87
eigval :     1283.17  1289.57  1293.96  1296.09  1312.79  1314.75
eigval :     1316.88  1325.24  1327.52  1330.40  1333.27  1358.47
eigval :     1372.54  1389.52  1392.64  1396.87  1400.03  1401.87
eigval :     1402.71  1406.85  1413.11  1416.79  1417.48  1424.50
eigval :     1426.52  1427.13  1431.62  1441.92  1457.48  1463.37
eigval :     1472.29  1484.12  1485.57  1486.81  1488.53  1489.20
eigval :     1491.24  1492.21  1493.62  1499.56  1500.02  1503.24
eigval :     1503.89  1510.77  1511.13  1514.81  1516.98  1517.07
eigval :     1537.92  1543.64  1546.13  1557.54  1564.17  1567.28
eigval :     1568.38  1570.62  1578.21  1582.67  1596.63  1599.59
eigval :     1603.84  2363.05  2364.87  3019.39  3019.67  3020.89
eigval :     3021.12  3024.28  3024.41  3025.45  3025.54  3027.97
eigval :     3028.05  3031.26  3031.56  3035.98  3036.12  3043.60
eigval :     3045.20  3047.10  3048.45  3057.63  3059.43  3070.88
eigval :     3073.32  3073.62  3076.53  3078.68  3079.04  3080.16
eigval :     3087.32  3088.01  3091.22  3091.35  3093.71  3094.55
eigval :     3095.00  3096.10  3097.00  3104.21  3110.69  3112.40
eigval :     3113.74  3113.99  3114.42

   temp. (K)  partition function   enthalpy   heat capacity  entropy
                                   cal/mol     cal/K/mol   cal/K/mol   J/K/mol
 298.15  VIB  0.109E+26            30899.293    187.927    194.615
         ROT  0.241E+09              888.752      2.981     41.333
         INT  0.261E+34            31788.045    190.908    235.948
         TR   0.204E+29             1481.254      4.968     45.754
         TOT                       33269.2991   195.8761   281.7025  1178.6431

       T/K    H(0)-H(T)+PV         H(T)/Eh          T*S/Eh         G(T)/Eh
   ------------------------------------------------------------------------
    298.15    0.530180E-01    0.843149E+00    0.133846E+00    0.709304E+00
   ------------------------------------------------------------------------

         :::::::::::::::::::::::::::::::::::::::::::::::::::::
         ::                  THERMODYNAMIC                  ::
         :::::::::::::::::::::::::::::::::::::::::::::::::::::
         :: total free energy        -151.808625486622 Eh   ::
         ::.................................................::
         :: total energy             -152.517929050663 Eh   ::
         :: zero point energy           0.790131486581 Eh   ::
         :: G(RRHO) w/o ZPVE           -0.080827922540 Eh   ::
         :: G(RRHO) contrib.            0.709303564041 Eh   ::
         :::::::::::::::::::::::::::::::::::::::::::::::::::::

           -------------------------------------------------
          | TOTAL ENERGY             -152.517929050663 Eh   |
          | TOTAL ENTHALPY           -151.674779561264 Eh   |
          | TOTAL FREE ENERGY        -151.808625486622 Eh   |
          | GRADIENT NORM               0.000163729301 Eh/α |
          | HOMO-LUMO GAP               0.766174210830 eV   |
           -------------------------------------------------

 * finished run on 2025/07/18 at 22:34:26.358
