   * xtb version 6.7.1 (edcfbbe) compiled by 'albert@albert-system' on 2024-07-22

   ID    Z sym.   atoms
    1    6 C      1-8, 10-16, 18-25, 27, 28, 30, 31, 33-36, 38-43, 45-48,
                  50-63
    2    7 N      9, 17, 26, 29, 32, 37, 44, 49
    3    1 H      64-107

          program call               : xtb data2507/toluene/Py-TPA/Py-TPA_toluene_S0_finalOpt.xtbopt.xyz --gfn 2 --uhf 2 --gbsa toluene --ohess vtight --parallel 40 --molden --ceasefiles --namespace data2507/toluene/Py-TPA/Py-TPA_toluene_T1_preOpt
      * Solvation model:               GBSA
        Solvent                        toluene
        Solvent mass                       9.2140E+01 g/mol
          :  Hamiltonian                  GFN2-xTB          :
 * total energy  :  -163.6601495 Eh     change       -0.4929461E-09 Eh
 * total energy  :  -163.6622504 Eh     change       -0.2100935E-02 Eh
 * total energy  :  -163.6628562 Eh     change       -0.6057775E-03 Eh
 * total energy  :  -163.6628335 Eh     change        0.2272282E-04 Eh
 * total energy  :  -163.6629896 Eh     change       -0.1561197E-03 Eh
 * total energy  :  -163.6630170 Eh     change       -0.2733873E-04 Eh
 * total energy  :  -163.6630501 Eh     change       -0.3319120E-04 Eh
 * total energy  :  -163.6630686 Eh     change       -0.1845720E-04 Eh
 * total energy  :  -163.6631136 Eh     change       -0.4494702E-04 Eh
 * total energy  :  -163.6631252 Eh     change       -0.1166301E-04 Eh
 * total energy  :  -163.6631993 Eh     change       -0.9449031E-06 Eh
 * total energy  :  -163.6632002 Eh     change       -0.8765133E-06 Eh
 * total energy  :  -163.6632010 Eh     change       -0.8591342E-06 Eh
 * total energy  :  -163.6632018 Eh     change       -0.7965618E-06 Eh
 * total energy  :  -163.6632026 Eh     change       -0.7398936E-06 Eh
 * total energy  :  -163.6632033 Eh     change       -0.7169014E-06 Eh
 * total energy  :  -163.6632039 Eh     change       -0.5910411E-06 Eh
 * total energy  :  -163.6632042 Eh     change       -0.2875965E-06 Eh
 * total energy  :  -163.6632042 Eh     change       -0.2302301E-08 Eh
   *** GEOMETRY OPTIMIZATION CONVERGED AFTER 44 ITERATIONS ***

 final structure:
================
107
 xtb: 6.7.1 (edcfbbe)
C          -11.57878220250226       -3.55555618071053       -1.55100055990558
C          -10.37921953589995       -3.97735357458184       -0.69706856433746
C           -9.69873599992946       -5.17338283008197       -1.38060292379416
C          -10.89820623920871       -4.39689166163472        0.68706666843166
C           -9.36112159968882       -2.86386999741355       -0.52527098792761
C           -8.20523171455051       -3.09518465561994        0.22326692460604
C           -7.24917447912551       -2.12033460266616        0.40514173487908
C           -7.41526630838144       -0.85651545469997       -0.16636334925942
N           -6.45130475085920        0.14025488473479        0.00758344702155
C           -5.10078374761277       -0.19210003525854        0.03330793139228
C           -4.20746422325252        0.51181290733392        0.84814492056789
C           -2.87394108641874        0.16917361370350        0.87807414770270
C           -2.38828847534078       -0.89259625209286        0.11278369774987
C           -0.97162328821739       -1.26795500008851        0.16862246094720
C            0.01523622166466       -0.29982336338581        0.09211890665687
C            1.37468697244454       -0.63056609898217        0.11110471879409
N            2.31666140453007        0.30645663399021        0.01878358148059
C            3.60749911008005       -0.02921304550985        0.02985393214907
C            4.61524002154559        0.97101067803636       -0.07860241650144
C            4.29147601640260        2.33536281751299       -0.18960431556719
C            5.29181516740192        3.26408936370827       -0.30020872059848
C            6.63345854091435        2.82598872459006       -0.29662762520954
C            7.76124463778379        3.75834775892631       -0.40996182069992
C            9.01603207428762        3.38893641753875        0.07990797217632
C           10.06657171570238        4.28130172018566       -0.03444094007685
N            9.95304598228270        5.47881398159515       -0.59004110030796
C            8.76771052717594        5.82627160398826       -1.06458412067022
C            7.64635916955238        5.01593502047447       -1.00373091080676
N            6.94684762501022        1.54864718220070       -0.17418830018882
C            5.99208240729135        0.63163315903099       -0.07116433036988
C            6.37578940768674       -0.75539794091384        0.05088680185721
N            7.66985401338155       -1.05786713527433        0.06107906361104
C            8.05767885028502       -2.31499631290936        0.17599184679077
C            9.50874783360511       -2.54260746890290        0.18077976469577
C           10.35879235855909       -1.59303270726620       -0.38992128084174
C           11.72238039581696       -1.82543676135427       -0.37829178930117
N           12.27603842661923       -2.90699638176536        0.14983306927357
C           11.47292226414678       -3.80232899964336        0.70118980602792
C           10.09443790367892       -3.67489732048955        0.74748187580807
C            7.13102907950069       -3.37380050313332        0.26956348661928
C            5.79138321668284       -3.08303060165042        0.25807306325448
C            5.37010011823132       -1.74729243905809        0.15568018778301
C            3.98375545474090       -1.40019463949303        0.14573239340516
N            3.05519034491416       -2.34261240389214        0.24150197946876
C            1.75460550040996       -2.01636613360034        0.22774783729312
C            0.75919416105343       -2.98138457454036        0.32999418464483
C           -0.59061179792273       -2.62125342528844        0.29940123163058
C           -1.55341423756463       -3.63040870302486        0.47420316827339
N           -2.31356838653622       -4.47747916766526        0.64601445837958
C           -3.27912824454253       -1.58205783364504       -0.71148653563308
C           -4.61158490818627       -1.23795704047357       -0.75643508224282
C           -6.85221312773982        1.47033547730429        0.16082958513727
C           -8.00408224834871        1.78928292645237        0.87940876378049
C           -8.39721685478237        3.10479495709656        1.02701477880183
C           -7.66681194245641        4.15088871344822        0.46899746469608
C           -8.06537595234633        5.60938824304707        0.61184827385388
C           -9.33763363865113        5.79543733306866        1.44405255644643
C           -8.31446684360155        6.19733444225669       -0.78593523170689
C           -6.92456013284955        6.37392356116735        1.30097207959357
C           -6.51825300546359        3.81687258921326       -0.25114549398452
C           -6.11229949868775        2.50966291174073       -0.40724472610618
C           -8.56755547450286       -0.61012574454903       -0.91278661170564
C           -9.51659405264410       -1.59818798432829       -1.08499268748199
H          -11.26689598758750       -3.27301578424962       -2.55393099581118
H          -12.26956281475894       -4.39152305296761       -1.63944372179589
H          -12.11445896922800       -2.72655917630436       -1.09418955064252
H           -8.87602070553509       -5.55871130175439       -0.78476136026438
H          -10.41750165541575       -5.97683812773398       -1.52610949266088
H           -9.30813826257602       -4.88054247964729       -2.35329160220315
H          -10.09561313364088       -4.77047665120718        1.31676775979952
H          -11.36200934594949       -3.55010601805542        1.18921182029276
H          -11.64142202055767       -5.18414236946417        0.58170132285598
H           -8.04331722289702       -4.05627964774620        0.68577180863980
H           -6.37314268201508       -2.32716274967770        1.00223185355630
H           -4.57334966715242        1.31203508008626        1.47367116105522
H           -2.19917553053682        0.70375951232232        1.52967398458519
H           -0.24881647170981        0.74109433385905       -0.01460798351574
H            3.24845719418847        2.61658037381226       -0.18238110083086
H            5.06033556715250        4.31507254186272       -0.36575742583925
H            9.14150132578941        2.42110317583572        0.53751421538478
H           11.05291424221226        4.03316765354719        0.33642053679694
H            8.71897386080591        6.80830265373248       -1.51818063392382
H            6.71486704518230        5.35379042167354       -1.42990061639635
H            9.93878704647826       -0.70235502499519       -0.82814846862616
H           12.41370145724716       -1.11478612077416       -0.81300246270570
H           11.96505437633553       -4.66658942058476        1.12931013741569
H            9.49961920663463       -4.43298924960590        1.23216846301925
H            7.46983794182633       -4.39571406822330        0.32618624527686
H            5.03914382139515       -3.85587460305667        0.32318245070307
H            1.04486940547979       -4.01686504988285        0.43890384485322
H           -2.91576196635797       -2.37983700483063       -1.34183486543545
H           -5.28184975774160       -1.76848849753292       -1.41545413581541
H           -8.58007583338698        0.99921259140535        1.33798480659941
H           -9.28796050736462        3.30348306199502        1.59907057405252
H           -9.20507758438056        5.41454306897402        2.45417370406076
H           -9.57018415924465        6.85598206782657        1.51496172260619
H          -10.18671728622301        5.29790268180919        0.98109204640624
H           -8.61866421460531        7.23833525627399       -0.70200270381307
H           -7.42033659362159        6.15393189236396       -1.40158130809222
H           -9.10556171253483        5.64713873307391       -1.29168413201240
H           -7.20181922793056        7.41784489050028        1.43015030802284
H           -6.00904783685045        6.33665107932275        0.71721671394846
H           -6.72258545582669        5.94787202903673        2.28185275782878
H           -5.92587579327252        4.59176154122008       -0.71220642910076
H           -5.22854007962193        2.28111176932490       -0.98447397014133
H           -8.70568257239288        0.35618299675469       -1.37492083060283
H          -10.38452795461527       -1.36554691286333       -1.67895820095763

          :  Hamiltonian                  GFN2-xTB          :
         :: gradient norm              0.000049699751 Eh/a0 ::
         :: HOMO-LUMO gap              0.597201133105 eV    ::
         :: SCC energy              -166.544813849034 Eh    ::
         :: -> dispersion             -0.142373980859 Eh    ::
         :: -> Gsolv                  -0.080965147869 Eh    ::
         :: repulsion energy           2.881609692667 Eh    ::

    * Orbital Energies and Occupations

         #    Occupation            Energy/Eh            Energy/eV
      -------------------------------------------------------------
         1        2.0000           -0.6877881             -18.7157
       ...           ...                  ...                  ...
       141        2.0000           -0.4183615             -11.3842
       142        2.0000           -0.4164403             -11.3319
       143        2.0000           -0.4129794             -11.2377
       144        2.0000           -0.4096378             -11.1468
       145        2.0000           -0.4029883             -10.9659
       146        2.0000           -0.3975618             -10.8182
       147        2.0000           -0.3772071             -10.2643
       148        2.0000           -0.3758044             -10.2262
       149        1.9987           -0.3715970             -10.1117
       150        1.9964           -0.3706113             -10.0848
       151        1.5760           -0.3655722              -9.9477
       152        1.4289           -0.3650092              -9.9324
       153        1.0000           -0.3187217              -8.6729 (HOMO)
       154        0.0000           -0.2967753              -8.0757 (LUMO)
       155                         -0.2796571              -7.6099
       156                         -0.2717459              -7.3946
       157                         -0.2677923              -7.2870
       158                         -0.2462123              -6.6998
       159                         -0.2439438              -6.6380
       160                         -0.2433035              -6.6206
       161                         -0.2402734              -6.5382
       162                         -0.2382181              -6.4822
       163                         -0.2375606              -6.4644
       164                         -0.2353410              -6.4040
       ...                                ...                  ...
       296                          1.1539402              31.4003
      -------------------------------------------------------------
                  HL-Gap            0.0219464 Eh            0.5972 eV

     #   Z          covCN         q      C6AA      α(0)
     1   6 C        3.761    -0.111    22.665     6.787
     2   6 C        3.902     0.027    20.056     6.366
     3   6 C        3.761    -0.107    22.595     6.776
     4   6 C        3.761    -0.107    22.597     6.776
     5   6 C        2.972     0.016    27.642     8.624
     6   6 C        2.926    -0.030    28.750     8.793
     7   6 C        2.919    -0.042    29.039     8.837
     8   6 C        2.926     0.059    26.672     8.469
     9   7 N        2.752    -0.026    21.749     6.926
    10   6 C        2.926     0.065    26.533     8.447
    11   6 C        2.919    -0.041    29.031     8.836
    12   6 C        2.923    -0.030    28.751     8.793
    13   6 C        2.977     0.010    27.789     8.647
    14   6 C        2.977     0.012    27.741     8.640
    15   6 C        2.924    -0.064    29.604     8.923
    16   6 C        2.943     0.091    25.986     8.361
    17   7 N        1.849    -0.256    27.512     7.774
    18   6 C        2.943     0.076    26.301     8.411
    19   6 C        2.982    -0.023    28.579     8.769
    20   6 C        2.924    -0.017    28.427     8.743
    21   6 C        2.913    -0.048    29.203     8.861
    22   6 C        2.952     0.091    25.975     8.359
    23   6 C        2.989     0.023    27.478     8.599
    24   6 C        2.919    -0.037    28.927     8.820
    25   6 C        2.912     0.060    26.651     8.465
    26   7 N        1.835    -0.236    27.021     7.703
    27   6 C        2.912     0.059    26.684     8.470
    28   6 C        2.916    -0.046    29.134     8.851
    29   7 N        1.851    -0.233    26.952     7.694
    30   6 C        2.960     0.080    26.215     8.398
    31   6 C        2.960     0.081    26.185     8.393
    32   7 N        1.852    -0.234    26.974     7.698
    33   6 C        2.952     0.093    25.934     8.353
    34   6 C        2.989     0.023    27.475     8.598
    35   6 C        2.919    -0.037    28.916     8.818
    36   6 C        2.912     0.060    26.649     8.465
    37   7 N        1.835    -0.235    26.987     7.698
    38   6 C        2.912     0.059    26.679     8.470
    39   6 C        2.916    -0.045    29.120     8.849
    40   6 C        2.913    -0.049    29.206     8.862
    41   6 C        2.925    -0.015    28.394     8.739
    42   6 C        2.982    -0.023    28.570     8.768
    43   6 C        2.942     0.082    26.176     8.391
    44   7 N        1.848    -0.261    27.627     7.790
    45   6 C        2.944     0.084    26.123     8.383
    46   6 C        2.928    -0.054    29.347     8.884
    47   6 C        2.972    -0.004    28.113     8.697
    48   6 C        1.914     0.117    28.207     8.577
    49   7 N        0.911    -0.294    27.581     7.596
    50   6 C        2.922    -0.027    28.667     8.780
    51   6 C        2.920    -0.040    28.994     8.830
    52   6 C        2.926     0.059    26.675     8.470
    53   6 C        2.920    -0.042    29.041     8.837
    54   6 C        2.924    -0.035    28.871     8.812
    55   6 C        2.972     0.016    27.655     8.626
    56   6 C        3.902     0.027    20.057     6.366
    57   6 C        3.761    -0.111    22.663     6.787
    58   6 C        3.761    -0.107    22.596     6.776
    59   6 C        3.761    -0.107    22.596     6.776
    60   6 C        2.926    -0.031    28.768     8.796
    61   6 C        2.919    -0.043    29.064     8.841
    62   6 C        2.920    -0.042    29.050     8.839
    63   6 C        2.924    -0.035    28.877     8.812
    64   1 H        0.925     0.039     2.460     2.453
    65   1 H        0.925     0.041     2.436     2.441
    66   1 H        0.925     0.040     2.449     2.447
    67   1 H        0.925     0.039     2.456     2.451
    68   1 H        0.925     0.043     2.413     2.429
    69   1 H        0.925     0.035     2.513     2.479
    70   1 H        0.925     0.040     2.454     2.450
    71   1 H        0.925     0.037     2.495     2.470
    72   1 H        0.925     0.043     2.411     2.428
    73   1 H        0.926     0.047     2.362     2.403
    74   1 H        0.926     0.041     2.440     2.443
    75   1 H        0.926     0.053     2.285     2.364
    76   1 H        0.926     0.047     2.354     2.399
    77   1 H        0.926     0.052     2.295     2.369
    78   1 H        0.926     0.053     2.278     2.360
    79   1 H        0.926     0.050     2.318     2.381
    80   1 H        0.926     0.059     2.215     2.327
    81   1 H        0.925     0.042     2.421     2.433
    82   1 H        0.925     0.041     2.432     2.439
    83   1 H        0.926     0.044     2.399     2.422
    84   1 H        0.926     0.060     2.200     2.319
    85   1 H        0.925     0.043     2.407     2.426
    86   1 H        0.925     0.042     2.424     2.435
    87   1 H        0.926     0.044     2.397     2.421
    88   1 H        0.926     0.050     2.319     2.381
    89   1 H        0.926     0.052     2.294     2.369
    90   1 H        0.926     0.041     2.433     2.439
    91   1 H        0.926     0.039     2.463     2.454
    92   1 H        0.926     0.051     2.305     2.374
    93   1 H        0.926     0.045     2.383     2.414
    94   1 H        0.926     0.055     2.257     2.349
    95   1 H        0.925     0.039     2.462     2.454
    96   1 H        0.925     0.041     2.439     2.442
    97   1 H        0.925     0.040     2.452     2.449
    98   1 H        0.925     0.043     2.414     2.429
    99   1 H        0.925     0.039     2.455     2.450
   100   1 H        0.925     0.036     2.497     2.471
   101   1 H        0.925     0.042     2.417     2.431
   102   1 H        0.925     0.039     2.457     2.451
   103   1 H        0.925     0.035     2.511     2.478
   104   1 H        0.926     0.046     2.364     2.405
   105   1 H        0.926     0.041     2.431     2.438
   106   1 H        0.926     0.046     2.376     2.410
   107   1 H        0.926     0.056     2.251     2.346

molecular dipole:
                 x           y           z       tot (Debye)
 q only:       -8.458       2.032      -0.243
   full:       -9.320       1.818      -0.232      24.143

 projected vibrational frequencies (cm⁻¹)
eigval :       -0.00    -0.00     0.00     0.00     0.00     0.00
eigval :        7.14     8.14     9.19    21.25    23.08    25.63
eigval :       27.62    29.53    32.18    36.42    37.23    39.05
eigval :       48.73    51.46    57.66    62.30    69.45    79.56
eigval :       94.04    94.98   100.48   103.01   109.31   110.69
eigval :      120.07   129.71   138.58   151.31   166.91   167.44
eigval :      178.34   180.24   182.56   198.26   205.99   213.46
eigval :      220.49   231.23   232.22   237.68   242.63   246.23
eigval :      251.57   259.66   280.90   290.49   305.71   307.27
eigval :      314.90   316.61   316.94   327.48   332.70   333.62
eigval :      342.05   345.45   353.39   357.46   366.50   374.07
eigval :      378.23   379.48   380.11   385.36   388.23   393.21
eigval :      404.26   410.58   415.45   418.20   424.98   429.43
eigval :      436.13   446.67   454.42   458.19   467.62   481.49
eigval :      497.40   501.30   502.74   513.01   523.71   530.12
eigval :      541.86   556.28   563.44   571.10   572.59   584.31
eigval :      592.93   599.00   604.65   604.99   608.48   621.14
eigval :      626.08   628.33   631.96   641.79   648.46   662.39
eigval :      672.13   688.17   690.55   691.89   696.95   699.48
eigval :      700.54   707.48   713.39   716.51   718.05   723.37
eigval :      746.97   764.04   775.02   791.65   794.01   812.73
eigval :      813.10   818.35   820.61   824.68   827.21   829.08
eigval :      845.27   862.08   863.74   866.17   874.24   879.05
eigval :      880.52   884.01   888.32   911.19   912.84   914.32
eigval :      915.79   917.23   917.33   918.25   921.71   921.87
eigval :      924.46   925.92   928.85   930.46   931.66   940.27
eigval :      959.26   959.95   961.92   962.67   964.50   964.70
eigval :      983.34   993.23  1000.91  1009.35  1021.18  1033.02
eigval :     1034.02  1034.44  1034.74  1036.01  1055.81  1063.25
eigval :     1089.01  1090.75  1095.13  1099.22  1110.48  1114.23
eigval :     1137.67  1138.79  1139.43  1141.03  1144.62  1150.92
eigval :     1151.54  1163.98  1180.88  1193.39  1196.28  1200.25
eigval :     1202.28  1202.59  1215.25  1220.57  1222.29  1222.38
eigval :     1230.02  1230.16  1230.49  1239.83  1256.89  1257.43
eigval :     1261.40  1265.83  1268.22  1271.51  1274.96  1277.19
eigval :     1279.69  1280.37  1280.88  1285.92  1287.65  1298.27
eigval :     1306.96  1309.60  1313.76  1316.18  1318.07  1325.49
eigval :     1326.13  1327.35  1358.23  1368.79  1370.61  1381.34
eigval :     1382.48  1389.70  1396.76  1400.23  1402.63  1403.20
eigval :     1403.67  1406.95  1413.73  1414.90  1426.57  1427.92
eigval :     1433.42  1449.78  1463.68  1465.68  1469.31  1469.82
eigval :     1473.14  1478.37  1487.83  1488.18  1489.39  1490.04
eigval :     1490.46  1494.94  1497.05  1497.50  1501.57  1501.74
eigval :     1502.64  1510.33  1511.28  1514.78  1515.36  1520.88
eigval :     1535.78  1539.41  1543.18  1547.88  1548.13  1550.43
eigval :     1550.69  1572.34  1572.93  1576.97  1579.87  1591.70
eigval :     2327.23  3023.82  3024.09  3024.33  3024.78  3027.83
eigval :     3028.06  3028.12  3028.53  3032.03  3032.13  3033.89
eigval :     3033.97  3038.95  3039.08  3046.23  3046.81  3049.08
eigval :     3049.31  3049.94  3050.04  3053.12  3053.86  3077.64
eigval :     3080.06  3082.42  3082.99  3084.33  3085.88  3086.62
eigval :     3087.90  3088.90  3090.69  3093.66  3094.10  3096.76
eigval :     3097.49  3097.66  3099.67  3100.12  3101.10  3110.86
eigval :     3112.46  3121.39  3122.09

   temp. (K)  partition function   enthalpy   heat capacity  entropy
                                   cal/mol     cal/K/mol   cal/K/mol   J/K/mol
 298.15  VIB  0.376E+27            32742.159    198.801    205.563
         ROT  0.342E+09              888.752      2.981     42.029
         INT  0.128E+36            33630.912    201.782    247.592
         TR   0.226E+29             1481.254      4.968     45.958
         TOT                       35112.1656   206.7503   293.5502  1228.2142

       T/K    H(0)-H(T)+PV         H(T)/Eh          T*S/Eh         G(T)/Eh
   ------------------------------------------------------------------------
    298.15    0.559548E-01    0.887303E+00    0.139475E+00    0.747828E+00
   ------------------------------------------------------------------------

         :::::::::::::::::::::::::::::::::::::::::::::::::::::
         ::                  THERMODYNAMIC                  ::
         :::::::::::::::::::::::::::::::::::::::::::::::::::::
         :: total free energy        -162.915376599610 Eh   ::
         ::.................................................::
         :: total energy             -163.663204155068 Eh   ::
         :: zero point energy           0.831347945166 Eh   ::
         :: G(RRHO) w/o ZPVE           -0.083520389708 Eh   ::
         :: G(RRHO) contrib.            0.747827555458 Eh   ::
         :::::::::::::::::::::::::::::::::::::::::::::::::::::

           -------------------------------------------------
          | TOTAL ENERGY             -163.663204155068 Eh   |
          | TOTAL ENTHALPY           -162.775901412345 Eh   |
          | TOTAL FREE ENERGY        -162.915376599610 Eh   |
          | GRADIENT NORM               0.000056228679 Eh/α |
          | HOMO-LUMO GAP               0.597192450786 eV   |
           -------------------------------------------------

 * finished run on 2025/08/21 at 14:31:18.358
