   * xtb version 6.7.1 (edcfbbe) compiled by 'albert@albert-system' on 2024-07-22

   ID    Z sym.   atoms
    1    6 C      1-8, 10-16, 18-23, 25-30, 32-35, 37-43, 45-59
    2    7 N      9, 17, 24, 31, 36, 44
    3    1 H      60-101

          program call               : xtb data2507/toluene/PY-TPA/PY-TPA_toluene_S0_crest.xyz --gfn 2 --gbsa toluene --ohess vtight --parallel 40 --molden --ceasefiles --namespace data2507/toluene/PY-TPA/PY-TPA_toluene_S0_finalOpt
      * Solvation model:               GBSA
        Solvent                        toluene
        Solvent mass                       9.2140E+01 g/mol
          :  Hamiltonian                  GFN2-xTB          :
 * total energy  :  -152.5171483 Eh     change       -0.3400260E-08 Eh
 * total energy  :  -152.5172035 Eh     change       -0.5523482E-04 Eh
 * total energy  :  -152.5172383 Eh     change       -0.3483797E-04 Eh
 * total energy  :  -152.5172565 Eh     change       -0.1816432E-04 Eh
 * total energy  :  -152.5173123 Eh     change       -0.5576186E-04 Eh
 * total energy  :  -152.5173477 Eh     change       -0.3549803E-04 Eh
 * total energy  :  -152.5173704 Eh     change       -0.2264508E-04 Eh
 * total energy  :  -152.5174098 Eh     change       -0.3939167E-04 Eh
 * total energy  :  -152.5174328 Eh     change       -0.2305617E-04 Eh
 * total energy  :  -152.5174471 Eh     change       -0.1422498E-04 Eh
 * total energy  :  -152.5179938 Eh     change       -0.9692184E-06 Eh
 * total energy  :  -152.5179951 Eh     change       -0.1338093E-05 Eh
 * total energy  :  -152.5179970 Eh     change       -0.1902011E-05 Eh
 * total energy  :  -152.5179994 Eh     change       -0.2324535E-05 Eh
 * total energy  :  -152.5180016 Eh     change       -0.2198350E-05 Eh
 * total energy  :  -152.5180034 Eh     change       -0.1828822E-05 Eh
 * total energy  :  -152.5180049 Eh     change       -0.1562112E-05 Eh
 * total energy  :  -152.5180063 Eh     change       -0.1370482E-05 Eh
 * total energy  :  -152.5180063 Eh     change       -0.4535536E-08 Eh
   *** GEOMETRY OPTIMIZATION CONVERGED AFTER 94 ITERATIONS ***

 final structure:
================
101
 xtb: 6.7.1 (edcfbbe)
C           -5.94142413108417       -6.84859652463273        0.26705047361168
C           -6.79306365948340       -5.80083504193634       -0.45630291669495
C           -6.85189401003463       -6.17658024976635       -1.94461996482455
C           -8.20672792430893       -5.83632638422637        0.14366971142163
C           -6.23141685382208       -4.39382162758108       -0.32100969208418
C           -6.89333901401594       -3.32606388235412       -0.92521612908893
C           -6.42361955138176       -2.03236058325256       -0.83383387852820
C           -5.26178488792852       -1.75371848840927       -0.11733338412880
N           -4.79177598758817       -0.43634324439896       -0.00127474848800
C           -3.43266334334682       -0.16188692184913       -0.04339189125149
C           -2.56524579849696       -0.93607212976933       -0.82084727592085
C           -1.21885623978172       -0.64998647079590       -0.86548991553413
C           -0.68815083273919        0.42948345493495       -0.15839300355790
C            0.74422167681047        0.73728091676286       -0.21902158381783
C            1.66889781819802       -0.27010845992267       -0.07882006307402
C            3.04850391605013        0.00503664517187       -0.06270728428018
N            3.93362299168649       -0.99131994923798        0.08070905781584
C            5.21792193690829       -0.67912321812385        0.11883554240249
C            6.19084257465281       -1.73957065876204        0.26964401565427
C            5.74867554020789       -3.06519994831834        0.35511635835772
C            6.63830655808939       -4.10026443953852        0.49865070196275
C            8.00837554738869       -3.81168580549274        0.55970437904614
C            8.94363003554704       -4.86136017029415        0.70817637706607
N            9.70354645181353       -5.71268101396116        0.82856200574317
C            8.46167205987499       -2.50149589333953        0.47538792259031
C            7.56784219375316       -1.43807482128648        0.32893334085247
C            8.01401448913157       -0.05317492615429        0.23570046917268
C            9.36334019047103        0.30262789202579        0.29570289707646
C            9.75870296485875        1.63081074574824        0.20049717796397
C           11.13322825998296        1.95370866705938        0.26512089859531
N           12.24880442545676        2.21758878796699        0.31742499204683
C            8.81010109965874        2.65030140780279        0.04065070161617
C            7.48075582575951        2.31539631332883       -0.01768641709158
C            7.06717419295873        0.98095880281055        0.07782795842420
C            5.65582141626453        0.67312332936496        0.01583724381227
N            4.79207312850855        1.66437421516983       -0.13548407334362
C            3.49035155036995        1.35974083671972       -0.18050692640203
C            2.53164223167056        2.37760110345764       -0.35626128285961
C            1.19235311392611        2.08518421750580       -0.39072078033883
C            0.23535078737334        3.16573510333102       -0.67111187637369
C            0.27604448281329        4.37566100030701        0.01855446424982
C           -0.63883751025190        5.36538175860776       -0.29807482980665
C           -1.56284690224553        5.11182832189006       -1.30036165020395
N           -1.59370492901047        3.97876781997344       -1.98453056670269
C           -0.72157204421257        3.03825276209564       -1.68098688455076
C           -1.55306744184344        1.19041286601450        0.63028846104925
C           -2.89618649267209        0.89892014778046        0.69421224013234
C           -5.71819528813965        0.60578608659272        0.16822434243437
C           -5.54179152171999        1.82892145067678       -0.47553334240174
C           -6.45669277025623        2.84617018415170       -0.30106234447734
C           -7.58435017190956        2.69198055750392        0.50404285365666
C           -8.56166588198380        3.84725325284968        0.65848210082401
C           -7.82368535123550        5.04849137130618        1.26863549455783
C           -9.74541316126276        3.50143722028531        1.56705393275782
C           -9.11495495420752        4.22619048771781       -0.72354843859468
C           -7.75356315093620        1.46312556837806        1.13205658003978
C           -6.83919444664618        0.43778224341656        0.97442362788995
C           -4.59338913640506       -2.80966326403418        0.49442478562612
C           -5.07081848094176       -4.10284985008862        0.38720125928712
H           -6.38769770065735       -7.83218908035636        0.13368027833344
H           -5.89243512770840       -6.64486528047607        1.33442021788781
H           -4.93226701757649       -6.88100979213447       -0.13751557629263
H           -7.23680103842243       -7.18771665182406       -2.06014209867114
H           -7.49803045428933       -5.50153292749258       -2.49905397215568
H           -5.85689389611997       -6.13393927907458       -2.38369839174568
H           -8.61733442964139       -6.84160470861074        0.07447804275209
H           -8.17849080840343       -5.54673015930917        1.19249507207359
H           -8.87646213264460       -5.15896624942722       -0.37902475568027
H           -7.79689510849425       -3.49967966624643       -1.48983699113841
H           -6.95631382102070       -1.22670241911089       -1.31823642954140
H           -2.96213204286541       -1.75621060110947       -1.40044866113385
H           -0.56921331814769       -1.24509049512986       -1.49067663308939
H            1.35447172056336       -1.29401683369995        0.05368643224735
H            4.68645057520908       -3.24489944770770        0.30435365626727
H            6.30066038893630       -5.12328841901477        0.56451750964499
H            9.52514008645670       -2.33130517365545        0.52559254843271
H           10.13089489953455       -0.44462604651333        0.41811562542392
H            9.13250885085313        3.67777927236890       -0.03278321728332
H            6.71963654616169        3.06997165688195       -0.13841493426273
H            2.88501633259643        3.38878813474934       -0.49220941732954
H            1.00210277528909        4.52396857416390        0.80543534225001
H           -0.63867579498438        6.30922635209594        0.22444343770380
H           -2.30950189031637        5.84412175442058       -1.57790517199385
H           -0.77558449082587        2.13833414783938       -2.27978352995861
H           -1.15903718268610        1.99813164335518        1.22930727563621
H           -3.54535665020171        1.48893087554253        1.32387463252963
H           -4.68481880147258        1.97739789241427       -1.11648058969579
H           -6.28223406178446        3.77795368150242       -0.81738335542373
H           -7.00721420168025        5.37710067450739        0.63131618878421
H           -7.41251634835962        4.78362706410293        2.24101769814808
H           -8.51071958729689        5.88195229644293        1.40017753295747
H          -10.31672475273322        2.66752381720991        1.16536340935569
H          -10.41018868408544        4.36017531428619        1.63771182030528
H           -9.40985659501679        3.25399649457435        2.57169818022257
H           -8.32279569827473        4.54835598512153       -1.39375845065302
H           -9.83242554657399        5.03874950267486       -0.62909326878926
H           -9.61763958026008        3.37280150188472       -1.17474146254099
H           -8.60454520174990        1.28392285126018        1.76859403826665
H           -6.99386942381299       -0.50389721292865        1.48146674200111
H           -3.69581420530204       -2.61362661786225        1.06345629469889
H           -4.51829574308743       -4.88506735432928        0.88155309401877

          :  Hamiltonian                  GFN2-xTB          :
         :: gradient norm              0.000115222498 Eh/a0 ::
         :: HOMO-LUMO gap              0.763791205229 eV    ::
         :: SCC energy              -155.303335030402 Eh    ::
         :: -> dispersion             -0.137243834890 Eh    ::
         :: -> Gsolv                  -0.068957364465 Eh    ::
         :: repulsion energy           2.785328710565 Eh    ::

    * Orbital Energies and Occupations

         #    Occupation            Energy/Eh            Energy/eV
      -------------------------------------------------------------
         1        2.0000           -0.6907959             -18.7975
       ...           ...                  ...                  ...
       130        2.0000           -0.4169949             -11.3470
       131        2.0000           -0.4153352             -11.3018
       132        2.0000           -0.4136850             -11.2569
       133        2.0000           -0.4113339             -11.1930
       134        2.0000           -0.4096562             -11.1473
       135        2.0000           -0.4060263             -11.0485
       136        2.0000           -0.4038812             -10.9902
       137        2.0000           -0.4022796             -10.9466
       138        2.0000           -0.3972521             -10.8098
       139        2.0000           -0.3961550             -10.7799
       140        2.0000           -0.3782244             -10.2920
       141        2.0000           -0.3668247              -9.9818
       142        2.0000           -0.3489747              -9.4961 (HOMO)
       143        0.0000           -0.3209059              -8.7323 (LUMO)
       144                         -0.3016172              -8.2074
       145                         -0.2782247              -7.5709
       146                         -0.2712088              -7.3800
       147                         -0.2650070              -7.2112
       148                         -0.2557147              -6.9584
       149                         -0.2440047              -6.6397
       150                         -0.2351342              -6.3983
       151                         -0.2295667              -6.2468
       152                         -0.2273325              -6.1860
       153                         -0.2238475              -6.0912
       ...                                ...                  ...
       278                          1.1522192              31.3535
      -------------------------------------------------------------
                  HL-Gap            0.0280688 Eh            0.7638 eV

     #   Z          covCN         q      C6AA      α(0)
     1   6 C        3.761    -0.108    22.603     6.777
     2   6 C        3.902     0.025    20.091     6.371
     3   6 C        3.761    -0.105    22.559     6.771
     4   6 C        3.761    -0.105    22.558     6.771
     5   6 C        2.972     0.003    27.953     8.672
     6   6 C        2.927    -0.036    28.884     8.814
     7   6 C        2.921    -0.049    29.207     8.863
     8   6 C        2.924     0.060    26.656     8.467
     9   7 N        2.751    -0.073    22.651     7.069
    10   6 C        2.923     0.070    26.439     8.432
    11   6 C        2.920    -0.049    29.221     8.865
    12   6 C        2.923    -0.033    28.832     8.805
    13   6 C        2.977    -0.002    28.074     8.691
    14   6 C        2.974     0.015    27.679     8.630
    15   6 C        2.922    -0.052    29.295     8.876
    16   6 C        2.963     0.082    26.163     8.390
    17   7 N        1.848    -0.254    27.455     7.766
    18   6 C        2.960     0.082    26.162     8.390
    19   6 C        2.987     0.004    27.928     8.669
    20   6 C        2.923    -0.023    28.572     8.766
    21   6 C        2.922    -0.017    28.445     8.746
    22   6 C        2.972     0.022    27.520     8.605
    23   6 C        1.913     0.120    28.160     8.570
    24   7 N        0.911    -0.257    26.677     7.470
    25   6 C        2.931    -0.023    28.574     8.766
    26   6 C        2.975     0.011    27.774     8.645
    27   6 C        2.975     0.010    27.783     8.646
    28   6 C        2.930    -0.023    28.574     8.766
    29   6 C        2.972     0.021    27.530     8.607
    30   6 C        1.913     0.119    28.163     8.570
    31   7 N        0.911    -0.258    26.696     7.473
    32   6 C        2.922    -0.018    28.448     8.747
    33   6 C        2.923    -0.023    28.581     8.767
    34   6 C        2.987     0.004    27.927     8.669
    35   6 C        2.961     0.081    26.196     8.395
    36   7 N        1.848    -0.253    27.438     7.763
    37   6 C        2.964     0.082    26.161     8.390
    38   6 C        2.923    -0.050    29.240     8.868
    39   6 C        2.975     0.011    27.756     8.642
    40   6 C        2.974     0.006    27.885     8.662
    41   6 C        2.933    -0.016    28.400     8.740
    42   6 C        2.912    -0.038    28.938     8.821
    43   6 C        2.912     0.059    26.673     8.469
    44   7 N        1.835    -0.231    26.910     7.687
    45   6 C        2.916     0.061    26.627     8.462
    46   6 C        2.923    -0.031    28.785     8.798
    47   6 C        2.921    -0.049    29.222     8.865
    48   6 C        2.925     0.060    26.660     8.467
    49   6 C        2.920    -0.049    29.217     8.864
    50   6 C        2.927    -0.036    28.885     8.814
    51   6 C        2.972     0.003    27.949     8.672
    52   6 C        3.902     0.025    20.091     6.371
    53   6 C        3.761    -0.105    22.557     6.770
    54   6 C        3.761    -0.108    22.604     6.778
    55   6 C        3.761    -0.105    22.562     6.771
    56   6 C        2.925    -0.040    28.999     8.831
    57   6 C        2.921    -0.049    29.225     8.865
    58   6 C        2.921    -0.050    29.247     8.869
    59   6 C        2.925    -0.040    28.998     8.831
    60   1 H        0.925     0.038     2.479     2.462
    61   1 H        0.925     0.036     2.501     2.473
    62   1 H        0.925     0.036     2.501     2.473
    63   1 H        0.925     0.039     2.462     2.454
    64   1 H        0.925     0.037     2.489     2.467
    65   1 H        0.925     0.033     2.546     2.495
    66   1 H        0.925     0.039     2.463     2.454
    67   1 H        0.925     0.033     2.546     2.495
    68   1 H        0.925     0.037     2.488     2.467
    69   1 H        0.926     0.034     2.524     2.485
    70   1 H        0.926     0.030     2.579     2.512
    71   1 H        0.926     0.039     2.459     2.452
    72   1 H        0.926     0.038     2.469     2.457
    73   1 H        0.926     0.058     2.225     2.333
    74   1 H        0.926     0.072     2.066     2.248
    75   1 H        0.926     0.056     2.252     2.347
    76   1 H        0.926     0.053     2.280     2.361
    77   1 H        0.926     0.053     2.281     2.362
    78   1 H        0.926     0.055     2.259     2.350
    79   1 H        0.926     0.071     2.076     2.253
    80   1 H        0.926     0.056     2.248     2.345
    81   1 H        0.926     0.046     2.367     2.406
    82   1 H        0.926     0.049     2.330     2.387
    83   1 H        0.925     0.043     2.405     2.425
    84   1 H        0.925     0.037     2.492     2.469
    85   1 H        0.926     0.029     2.594     2.519
    86   1 H        0.926     0.036     2.505     2.475
    87   1 H        0.926     0.031     2.575     2.509
    88   1 H        0.926     0.035     2.519     2.482
    89   1 H        0.925     0.037     2.491     2.468
    90   1 H        0.925     0.032     2.552     2.498
    91   1 H        0.925     0.039     2.459     2.452
    92   1 H        0.925     0.036     2.497     2.471
    93   1 H        0.925     0.038     2.477     2.461
    94   1 H        0.925     0.036     2.503     2.474
    95   1 H        0.925     0.037     2.485     2.465
    96   1 H        0.925     0.039     2.461     2.453
    97   1 H        0.925     0.033     2.543     2.494
    98   1 H        0.926     0.041     2.430     2.438
    99   1 H        0.926     0.030     2.583     2.513
   100   1 H        0.926     0.029     2.594     2.519
   101   1 H        0.926     0.041     2.433     2.439

molecular dipole:
                 x           y           z       tot (Debye)
 q only:       -4.209       0.728       0.131
   full:       -4.528       1.022       0.312      11.825

 projected vibrational frequencies (cm⁻¹)
eigval :       -0.00    -0.00    -0.00     0.00     0.00     0.00
eigval :        9.23    10.69    14.39    20.39    23.63    27.00
eigval :       27.68    33.87    37.83    45.28    45.47    53.85
eigval :       59.04    66.12    69.03    79.64    84.56    87.08
eigval :       93.19    97.43   101.32   111.54   115.46   126.63
eigval :      141.59   147.71   158.37   171.19   176.89   181.79
eigval :      184.97   187.06   195.76   210.25   222.22   228.91
eigval :      235.11   237.69   247.63   254.12   264.34   267.67
eigval :      273.43   288.11   297.50   311.99   313.86   316.33
eigval :      316.97   327.84   342.36   350.74   357.24   361.57
eigval :      364.61   370.92   377.67   383.73   385.36   387.55
eigval :      390.40   390.76   392.76   395.27   414.98   420.36
eigval :      428.84   436.30   439.42   451.00   459.03   466.65
eigval :      468.94   487.48   494.33   500.74   509.07   519.41
eigval :      530.28   535.04   541.48   552.54   556.44   559.98
eigval :      575.81   577.61   583.55   594.55   604.50   606.93
eigval :      608.52   610.87   627.11   633.90   643.11   647.83
eigval :      649.24   675.25   688.40   690.33   692.16   693.28
eigval :      701.13   710.25   717.91   720.51   731.90   737.74
eigval :      765.66   769.05   785.41   804.09   813.79   816.57
eigval :      818.38   830.21   833.14   850.07   851.60   860.02
eigval :      866.50   871.04   871.60   872.52   875.27   875.69
eigval :      881.17   899.48   911.85   914.15   915.98   916.79
eigval :      920.09   923.61   925.17   927.35   928.16   930.13
eigval :      931.64   933.00   950.15   951.64   958.57   959.67
eigval :      961.93   962.15   963.21   963.52   966.29   995.31
eigval :     1011.08  1025.08  1026.69  1034.03  1034.83  1034.97
eigval :     1035.62  1046.62  1062.64  1071.67  1093.98  1135.39
eigval :     1141.09  1142.13  1142.39  1143.58  1144.06  1152.16
eigval :     1152.87  1182.84  1187.51  1190.98  1193.72  1198.76
eigval :     1202.73  1208.49  1223.69  1225.18  1225.39  1228.95
eigval :     1232.23  1232.27  1232.91  1239.74  1255.03  1263.46
eigval :     1267.49  1271.63  1275.43  1276.40  1280.37  1281.02
eigval :     1283.60  1289.82  1293.86  1296.64  1312.52  1314.90
eigval :     1317.48  1326.06  1327.59  1329.32  1333.38  1358.25
eigval :     1372.58  1389.58  1392.94  1396.81  1399.92  1401.95
eigval :     1402.98  1406.76  1413.21  1416.55  1417.25  1424.56
eigval :     1426.57  1427.76  1431.69  1441.94  1457.41  1463.12
eigval :     1472.35  1484.08  1485.64  1486.76  1489.61  1490.08
eigval :     1491.56  1491.82  1493.09  1499.94  1500.00  1504.08
eigval :     1504.92  1511.41  1511.85  1514.77  1517.05  1517.24
eigval :     1537.97  1543.66  1546.04  1557.70  1563.99  1567.14
eigval :     1568.37  1570.73  1577.59  1582.79  1596.43  1599.75
eigval :     1603.96  2363.29  2365.10  3020.13  3020.32  3020.84
eigval :     3021.12  3024.05  3024.29  3025.15  3025.22  3027.84
eigval :     3027.95  3030.70  3031.07  3036.06  3036.23  3044.39
eigval :     3044.60  3047.63  3047.91  3056.79  3059.31  3070.91
eigval :     3074.87  3076.17  3076.82  3077.33  3078.27  3079.79
eigval :     3088.99  3090.24  3091.01  3091.13  3093.58  3094.82
eigval :     3095.43  3096.02  3097.04  3104.61  3111.95  3112.71
eigval :     3113.04  3113.11  3114.72

   temp. (K)  partition function   enthalpy   heat capacity  entropy
                                   cal/mol     cal/K/mol   cal/K/mol   J/K/mol
 298.15  VIB  0.185E+25            30802.761    188.102    192.722
         ROT  0.241E+09              888.752      2.981     41.333
         INT  0.445E+33            31691.514    191.083    234.055
         TR   0.204E+29             1481.254      4.968     45.754
         TOT                       33172.7674   196.0510   279.8091  1170.7211

       T/K    H(0)-H(T)+PV         H(T)/Eh          T*S/Eh         G(T)/Eh
   ------------------------------------------------------------------------
    298.15    0.528642E-01    0.843311E+00    0.132946E+00    0.710364E+00
   ------------------------------------------------------------------------

         :::::::::::::::::::::::::::::::::::::::::::::::::::::
         ::                  THERMODYNAMIC                  ::
         :::::::::::::::::::::::::::::::::::::::::::::::::::::
         :: total free energy        -151.807641917590 Eh   ::
         ::.................................................::
         :: total energy             -152.518006315473 Eh   ::
         :: zero point energy           0.790446544609 Eh   ::
         :: G(RRHO) w/o ZPVE           -0.080082146725 Eh   ::
         :: G(RRHO) contrib.            0.710364397883 Eh   ::
         :::::::::::::::::::::::::::::::::::::::::::::::::::::

           -------------------------------------------------
          | TOTAL ENERGY             -152.518006315473 Eh   |
          | TOTAL ENTHALPY           -151.674695601011 Eh   |
          | TOTAL FREE ENERGY        -151.807641917590 Eh   |
          | GRADIENT NORM               0.000115149422 Eh/α |
          | HOMO-LUMO GAP               0.763791380237 eV   |
           -------------------------------------------------

 * finished run on 2025/07/18 at 22:47:21.458
