   * xtb version 6.7.1 (edcfbbe) compiled by 'albert@albert-system' on 2024-07-22

   ID    Z sym.   atoms
    1    6 C      1-8, 10-16, 18-25, 27, 28, 30, 31, 33-36, 38-43, 45-48,
                  50-63
    2    7 N      9, 17, 26, 29, 32, 37, 44, 49
    3    1 H      64-107

          program call               : xtb data2507/toluene/Py-TPA/Py-TPA.xyz --gfn 2 --gbsa toluene --ohess vtight --parallel 40 --molden --ceasefiles --namespace data2507/toluene/Py-TPA/Py-TPA_toluene_S0_preOpt
      * Solvation model:               GBSA
        Solvent                        toluene
        Solvent mass                       9.2140E+01 g/mol
          :  Hamiltonian                  GFN2-xTB          :
 * total energy  :  -163.6651031 Eh     change       -0.5274700E-08 Eh
 * total energy  :  -163.6881948 Eh     change       -0.2309170E-01 Eh
 * total energy  :  -163.6948053 Eh     change       -0.6610532E-02 Eh
 * total energy  :  -163.6963926 Eh     change       -0.1587267E-02 Eh
 * total energy  :  -163.6983439 Eh     change       -0.1951286E-02 Eh
 * total energy  :  -163.6993372 Eh     change       -0.9933452E-03 Eh
 * total energy  :  -163.6999221 Eh     change       -0.5848666E-03 Eh
 * total energy  :  -163.7000861 Eh     change       -0.1639459E-03 Eh
 * total energy  :  -163.7002173 Eh     change       -0.1312821E-03 Eh
 * total energy  :  -163.7003093 Eh     change       -0.9196842E-04 Eh
 * total energy  :  -163.7019949 Eh     change       -0.1015961E-05 Eh
 * total energy  :  -163.7019959 Eh     change       -0.9794533E-06 Eh
 * total energy  :  -163.7019969 Eh     change       -0.9780203E-06 Eh
 * total energy  :  -163.7019979 Eh     change       -0.1075006E-05 Eh
 * total energy  :  -163.7019992 Eh     change       -0.1255821E-05 Eh
 * total energy  :  -163.7020008 Eh     change       -0.1597640E-05 Eh
 * total energy  :  -163.7020024 Eh     change       -0.1647926E-05 Eh
 * total energy  :  -163.7020041 Eh     change       -0.1703382E-05 Eh
 * total energy  :  -163.7020041 Eh     change       -0.6913552E-08 Eh
   *** GEOMETRY OPTIMIZATION CONVERGED AFTER 185 ITERATIONS ***

 final structure:
================
107
 xtb: 6.7.1 (edcfbbe)
C           -9.33732185870462       -4.93705738038114       -0.22443209245920
C           -8.05767434624125       -5.01593533288922       -1.07058381272324
C           -8.42459461752977       -5.11754299169755       -2.55875835360141
C           -7.30227923254455       -6.28942097451876       -0.67822650387768
C           -7.23726575698657       -3.75519141945573       -0.84571612705024
C           -5.94796357521203       -3.76959840156301       -0.32529947553720
C           -5.23397833308747       -2.60195596093080       -0.12881281977209
C           -5.78693855473306       -1.36901832879593       -0.45971061360255
N           -5.07068762737495       -0.17824677687357       -0.25329618150883
C           -3.71609778486656       -0.10896128679911       -0.53478206251249
C           -2.87414404668548        0.72873621308402        0.20641560305512
C           -1.52838758317688        0.79645747755959       -0.07289629854493
C           -0.97250810042528        0.05218904874240       -1.11554208659981
C            0.45784832232556        0.14255259872449       -1.41261054607366
C            1.39401062160092        0.12148348732720       -0.40464205550250
C            2.77035069919382        0.18460835295444       -0.68558039747233
N            3.66143450773612        0.12847925160808        0.31876615702220
C            4.94339074074087        0.18308347055859        0.01214851836540
C            5.92147149993964        0.10544035180841        1.07168727987291
C            5.54742528940829       -0.05234440404501        2.41133340372030
C            6.52097769363446       -0.12302664966159        3.38035839676344
C            7.86824470073096       -0.03047410706016        2.99312036717793
C            8.96989870149931       -0.09731944796973        3.96495887102476
C           10.23300839342475       -0.51966631505605        3.54756690540827
C           11.25655058963479       -0.57668323065869        4.47772990215972
N           11.10576507930476       -0.24675964980516        5.75115903184242
C            9.91195203546260        0.16396738300227        6.14543803786979
C            8.81454029122085        0.25820817184168        5.30439833176501
N            8.22580604974921        0.10504139398109        1.72567732871061
C            7.29823671045475        0.17278319942143        0.77921394943624
C            7.74169758142385        0.31975525346885       -0.60006451115882
N            9.04704509715142        0.38491027754411       -0.82933881289724
C            9.49438012405768        0.51712731908362       -2.06826916252327
C           10.95566620225409        0.58349992386774       -2.21847008708452
C           11.74059185915154        1.00995245622934       -1.14610675716166
C           13.11377426094939        1.07036972279904       -1.30908712712434
N           13.73154489174776        0.73963068686985       -2.43262349848232
C           12.98960788108282        0.32465751685516       -3.44593336288542
C           11.60811440406539        0.22672880546140       -3.39813163615035
C            8.62421564574975        0.60895776291794       -3.16752113816428
C            7.26848386007639        0.54267419179121       -2.94636339273293
C            6.79222540771521        0.38909570585149       -1.63889807981361
C            5.38130579816284        0.31248556624128       -1.34550864298368
N            4.51533776467085        0.36098209742367       -2.34115123738951
C            3.21122410359889        0.29114583884598       -2.04072229814608
C            2.25136261017513        0.33547530459569       -3.06954577163317
C            0.91180969009348        0.26101950906266       -2.76334546176619
C           -0.01089258714277        0.38159937449265       -3.82920770696550
N           -0.70971266984361        0.51682357540234       -4.72954707009608
C           -1.81133948114836       -0.78678161360739       -1.85088815667381
C           -3.15471568834318       -0.87408800209973       -1.56328504344562
C           -5.75906136581117        0.95159879494752        0.22037845087027
C           -6.73464634822107        0.82790346740204        1.20378835857116
C           -7.42527327640363        1.93831284818784        1.65371972227262
C           -7.16872780816051        3.20833990696412        1.14951092076708
C           -7.90481705703873        4.45423685264871        1.61770933914947
C           -8.94754324466922        4.15296016002739        2.69852979159880
C           -8.62731736663555        5.08895655816411        0.41980672984445
C           -6.88753578115296        5.44864096172912        2.19729604847983
C           -6.18666757373201        3.31761099422326        0.16603984254647
C           -5.49547821863372        2.21770913383124       -0.29769427059006
C           -7.07737288342492       -1.34024383985943       -0.98286048681349
C           -7.78157991671381       -2.51233300432281       -1.16526181231492
H           -9.94684296255416       -4.08294968285939       -0.50661494487930
H           -9.93105396937021       -5.83883486467520       -0.35908411364440
H           -9.08587931322064       -4.84348592943338        0.83039490222242
H           -7.52308626519505       -5.14724037664188       -3.16790055320727
H           -8.99485146656115       -6.02588837612126       -2.74192564604105
H           -9.02409851807408       -4.26992728337917       -2.87902587793925
H           -6.39400185446915       -6.40248831497691       -1.26598412379101
H           -7.04586110736715       -6.28392105274712        0.37880611376943
H           -7.93284483308786       -7.15638720293701       -0.86546509841114
H           -5.47595321197403       -4.69921546089580       -0.05234594066071
H           -4.23795024969971       -2.64447565969501        0.28839661213669
H           -3.28807489715316        1.32067609690930        1.00898723935162
H           -0.89686936224924        1.45375209265748        0.50648446117524
H            1.09073631642099        0.02795916395437        0.62661464748266
H            4.49745140481201       -0.11983480269887        2.65232425806986
H            6.25480830013016       -0.26792753659393        4.41488734037960
H           10.38817061307120       -0.79411482355978        2.51697283131057
H           12.25008516919273       -0.90064326446276        4.19568291199858
H            9.83439200130533        0.43168292957239        7.19152155474099
H            7.87349537544881        0.62215461323834        5.68524215416888
H           11.26749780508272        1.28596547049223       -0.21793055809456
H           13.75767435854433        1.39859561322263       -0.50330004824016
H           13.53468824090898        0.05692445942096       -4.34220162918239
H           11.06409830068839       -0.14025250590200       -4.25396102182694
H            9.01013407334557        0.75037910936329       -4.16408231058608
H            6.55605616527668        0.61071751609493       -3.75436165618948
H            2.58740425853229        0.43812535302899       -4.09061521193569
H           -1.40199028317542       -1.39406621173867       -2.64516583718076
H           -3.78543140121456       -1.52921567910593       -2.14487674336419
H           -6.95347914108881       -0.14646495053757        1.61645458584950
H           -8.17062150856862        1.79130336313795        2.41790456508232
H           -8.48254067249716        3.72413577294817        3.58340056131714
H           -9.44004435936356        5.07755268134607        2.99332348879251
H           -9.70958252020654        3.47063521292754        2.32859294959318
H           -9.17307046848842        5.97467499171238        0.73842885409354
H           -7.92648881379424        5.38287501983384       -0.35678235764815
H           -9.33563915921119        4.38304968081234       -0.00980997062396
H           -7.39731849689024        6.34244056517790        2.55093728235560
H           -6.15578920508267        5.74744894845081        1.45169158220624
H           -6.35729574673545        4.99946605769377        3.03498858003036
H           -5.95515582459324        4.28059115262958       -0.26342056182829
H           -4.74955296807878        2.33297910311084       -1.07125698522188
H           -7.52388229727747       -0.39260480029839       -1.24725308718988
H           -8.77822392916908       -2.44769203730351       -1.57470753492504

          :  Hamiltonian                  GFN2-xTB          :
         :: gradient norm              0.000098755547 Eh/a0 ::
         :: HOMO-LUMO gap              0.589619607583 eV    ::
         :: SCC energy              -166.584358826366 Eh    ::
         :: -> dispersion             -0.142304143645 Eh    ::
         :: -> Gsolv                  -0.072979154448 Eh    ::
         :: repulsion energy           2.882354679605 Eh    ::

    * Orbital Energies and Occupations

         #    Occupation            Energy/Eh            Energy/eV
      -------------------------------------------------------------
         1        2.0000           -0.6995428             -19.0355
       ...           ...                  ...                  ...
       140        2.0000           -0.4146714             -11.2838
       141        2.0000           -0.4133284             -11.2472
       142        2.0000           -0.4121977             -11.2165
       143        2.0000           -0.4059898             -11.0475
       144        2.0000           -0.4042849             -11.0012
       145        2.0000           -0.4015225             -10.9260
       146        2.0000           -0.3979190             -10.8279
       147        2.0000           -0.3858837             -10.5004
       148        2.0000           -0.3850824             -10.4786
       149        2.0000           -0.3756288             -10.2214
       150        2.0000           -0.3752570             -10.2113
       151        2.0000           -0.3750277             -10.2050
       152        2.0000           -0.3520853              -9.5807 (HOMO)
       153        0.0000           -0.3304172              -8.9911 (LUMO)
       154                         -0.3059084              -8.3242
       155                         -0.2899415              -7.8897
       156                         -0.2817352              -7.6664
       157                         -0.2749148              -7.4808
       158                         -0.2514376              -6.8420
       159                         -0.2481974              -6.7538
       160                         -0.2430901              -6.6148
       161                         -0.2428300              -6.6077
       162                         -0.2351251              -6.3981
       163                         -0.2293790              -6.2417
       ...                                ...                  ...
       296                          1.1432392              31.1091
      -------------------------------------------------------------
                  HL-Gap            0.0216681 Eh            0.5896 eV

     #   Z          covCN         q      C6AA      α(0)
     1   6 C        3.761    -0.106    22.564     6.771
     2   6 C        3.902     0.026    20.089     6.371
     3   6 C        3.761    -0.106    22.563     6.771
     4   6 C        3.761    -0.108    22.606     6.778
     5   6 C        2.972     0.004    27.930     8.669
     6   6 C        2.925    -0.040    28.991     8.830
     7   6 C        2.921    -0.050    29.234     8.867
     8   6 C        2.925     0.059    26.671     8.469
     9   7 N        2.751    -0.070    22.602     7.061
    10   6 C        2.922     0.071    26.404     8.427
    11   6 C        2.920    -0.049    29.216     8.864
    12   6 C        2.923    -0.033    28.811     8.802
    13   6 C        2.976    -0.005    28.142     8.702
    14   6 C        2.975     0.023    27.487     8.600
    15   6 C        2.923    -0.050    29.242     8.868
    16   6 C        2.962     0.084    26.117     8.382
    17   7 N        1.848    -0.253    27.441     7.764
    18   6 C        2.957     0.085    26.101     8.380
    19   6 C        2.982    -0.018    28.464     8.751
    20   6 C        2.925    -0.013    28.327     8.728
    21   6 C        2.914    -0.043    29.058     8.839
    22   6 C        2.953     0.099    25.815     8.334
    23   6 C        2.989     0.024    27.464     8.597
    24   6 C        2.919    -0.035    28.879     8.812
    25   6 C        2.912     0.061    26.631     8.462
    26   7 N        1.835    -0.229    26.849     7.679
    27   6 C        2.912     0.060    26.664     8.467
    28   6 C        2.916    -0.043    29.077     8.842
    29   7 N        1.852    -0.226    26.790     7.671
    30   6 C        2.961     0.086    26.078     8.376
    31   6 C        2.961     0.085    26.094     8.379
    32   7 N        1.852    -0.226    26.794     7.672
    33   6 C        2.953     0.098    25.829     8.336
    34   6 C        2.989     0.024    27.466     8.597
    35   6 C        2.919    -0.035    28.883     8.813
    36   6 C        2.912     0.061    26.633     8.462
    37   7 N        1.835    -0.229    26.858     7.680
    38   6 C        2.912     0.060    26.664     8.467
    39   6 C        2.916    -0.043    29.079     8.843
    40   6 C        2.914    -0.043    29.056     8.839
    41   6 C        2.925    -0.013    28.339     8.730
    42   6 C        2.982    -0.018    28.461     8.751
    43   6 C        2.959     0.082    26.166     8.390
    44   7 N        1.848    -0.252    27.416     7.760
    45   6 C        2.966     0.082    26.164     8.390
    46   6 C        2.932    -0.033    28.823     8.805
    47   6 C        2.972     0.016    27.645     8.625
    48   6 C        1.916     0.125    28.043     8.552
    49   7 N        0.911    -0.255    26.634     7.464
    50   6 C        2.922    -0.029    28.732     8.790
    51   6 C        2.920    -0.048    29.192     8.860
    52   6 C        2.925     0.059    26.669     8.469
    53   6 C        2.921    -0.048    29.201     8.862
    54   6 C        2.925    -0.040    28.983     8.829
    55   6 C        2.972     0.004    27.926     8.668
    56   6 C        3.902     0.026    20.088     6.371
    57   6 C        3.761    -0.108    22.613     6.779
    58   6 C        3.761    -0.105    22.561     6.771
    59   6 C        3.761    -0.105    22.561     6.771
    60   6 C        2.927    -0.035    28.879     8.813
    61   6 C        2.920    -0.049    29.213     8.863
    62   6 C        2.921    -0.048    29.192     8.860
    63   6 C        2.927    -0.035    28.875     8.812
    64   1 H        0.925     0.037     2.482     2.464
    65   1 H        0.925     0.040     2.454     2.450
    66   1 H        0.925     0.033     2.539     2.492
    67   1 H        0.925     0.033     2.549     2.497
    68   1 H        0.925     0.039     2.456     2.451
    69   1 H        0.925     0.037     2.485     2.465
    70   1 H        0.925     0.036     2.504     2.475
    71   1 H        0.925     0.036     2.497     2.471
    72   1 H        0.925     0.038     2.472     2.459
    73   1 H        0.926     0.042     2.425     2.435
    74   1 H        0.926     0.030     2.593     2.518
    75   1 H        0.926     0.042     2.422     2.434
    76   1 H        0.926     0.040     2.445     2.445
    77   1 H        0.926     0.065     2.145     2.290
    78   1 H        0.926     0.067     2.124     2.279
    79   1 H        0.926     0.060     2.204     2.321
    80   1 H        0.926     0.063     2.162     2.300
    81   1 H        0.925     0.046     2.369     2.407
    82   1 H        0.925     0.045     2.383     2.414
    83   1 H        0.926     0.049     2.338     2.391
    84   1 H        0.926     0.063     2.163     2.300
    85   1 H        0.925     0.046     2.369     2.407
    86   1 H        0.925     0.045     2.387     2.416
    87   1 H        0.926     0.048     2.345     2.395
    88   1 H        0.926     0.059     2.214     2.327
    89   1 H        0.926     0.065     2.147     2.291
    90   1 H        0.926     0.061     2.182     2.310
    91   1 H        0.926     0.031     2.568     2.506
    92   1 H        0.926     0.040     2.445     2.445
    93   1 H        0.926     0.032     2.558     2.501
    94   1 H        0.926     0.043     2.407     2.426
    95   1 H        0.925     0.037     2.494     2.470
    96   1 H        0.925     0.038     2.471     2.458
    97   1 H        0.925     0.037     2.491     2.468
    98   1 H        0.925     0.039     2.455     2.450
    99   1 H        0.925     0.037     2.494     2.469
   100   1 H        0.925     0.033     2.540     2.492
   101   1 H        0.925     0.039     2.456     2.451
   102   1 H        0.925     0.037     2.494     2.470
   103   1 H        0.925     0.033     2.542     2.493
   104   1 H        0.926     0.035     2.520     2.482
   105   1 H        0.926     0.029     2.604     2.523
   106   1 H        0.926     0.031     2.569     2.506
   107   1 H        0.926     0.036     2.505     2.475

molecular dipole:
                 x           y           z       tot (Debye)
 q only:       -2.151      -0.201       1.186
   full:       -3.127      -0.230       0.949       8.327

 projected vibrational frequencies (cm⁻¹)
eigval :       -0.00    -0.00    -0.00     0.00     0.00     0.00
eigval :        7.32     8.58    11.41    21.04    21.57    23.16
eigval :       25.39    28.09    32.35    36.30    37.23    40.32
eigval :       49.89    52.15    59.36    61.75    75.41    82.22
eigval :       88.79    89.00    96.60   104.21   107.36   112.53
eigval :      119.78   128.95   138.68   148.60   163.14   169.90
eigval :      174.94   178.91   180.25   198.02   208.39   210.75
eigval :      217.41   225.26   227.76   233.69   240.18   245.42
eigval :      249.51   265.10   277.25   296.92   304.36   312.37
eigval :      313.59   313.93   316.92   329.43   333.81   336.02
eigval :      344.42   349.97   354.86   357.77   368.84   374.41
eigval :      379.06   381.49   382.65   384.64   389.18   391.89
eigval :      402.12   410.08   415.22   419.67   428.03   434.79
eigval :      439.92   446.57   450.94   458.33   466.62   478.30
eigval :      494.98   497.45   502.67   513.81   527.73   531.31
eigval :      537.39   556.58   566.57   579.84   584.62   593.30
eigval :      599.27   602.58   606.78   608.07   610.87   622.43
eigval :      627.13   628.90   644.77   652.37   661.89   675.14
eigval :      681.87   687.50   690.55   699.24   700.45   704.18
eigval :      710.82   718.30   722.36   725.11   731.54   748.84
eigval :      766.09   772.85   788.45   793.19   796.87   812.57
eigval :      815.88   818.46   834.71   839.18   847.85   850.48
eigval :      866.17   868.52   871.18   875.01   875.93   879.03
eigval :      881.11   884.64   892.07   909.74   913.07   913.14
eigval :      917.92   919.49   922.59   923.05   924.06   926.47
eigval :      927.29   928.63   929.11   930.91   932.70   958.96
eigval :      959.05   961.46   961.79   962.34   962.83   963.82
eigval :      984.16   999.75  1004.85  1012.34  1025.37  1033.95
eigval :     1034.10  1034.60  1034.98  1037.62  1063.40  1069.31
eigval :     1090.32  1091.61  1099.25  1103.28  1110.37  1116.62
eigval :     1140.14  1141.86  1142.35  1144.58  1146.41  1152.53
eigval :     1154.22  1162.02  1188.09  1196.13  1199.80  1201.51
eigval :     1203.33  1209.33  1216.10  1225.11  1225.14  1225.47
eigval :     1231.58  1232.02  1240.15  1254.28  1260.83  1260.97
eigval :     1264.65  1270.77  1272.67  1276.22  1276.71  1277.16
eigval :     1280.81  1283.33  1289.85  1292.32  1304.27  1310.19
eigval :     1311.84  1313.55  1316.68  1325.90  1329.31  1330.51
eigval :     1351.16  1362.84  1366.35  1371.19  1379.74  1396.99
eigval :     1399.92  1401.42  1402.42  1402.55  1407.04  1412.71
eigval :     1413.96  1416.38  1422.47  1426.13  1427.16  1434.04
eigval :     1452.15  1454.66  1464.98  1473.67  1483.70  1485.09
eigval :     1486.32  1487.91  1488.67  1490.42  1491.36  1492.04
eigval :     1499.15  1499.99  1502.36  1503.31  1510.44  1511.17
eigval :     1511.65  1516.34  1516.76  1529.83  1531.39  1544.38
eigval :     1547.32  1551.72  1553.40  1564.34  1565.26  1568.22
eigval :     1571.27  1575.22  1576.44  1593.70  1599.43  1603.30
eigval :     2358.85  3019.40  3020.70  3020.95  3021.40  3023.85
eigval :     3024.58  3025.39  3025.53  3027.78  3028.67  3030.91
eigval :     3031.46  3036.06  3036.75  3043.78  3044.45  3047.15
eigval :     3048.02  3053.31  3053.56  3056.65  3056.83  3072.22
eigval :     3075.59  3077.23  3077.81  3078.73  3080.43  3087.02
eigval :     3090.46  3092.21  3093.24  3093.35  3094.57  3096.40
eigval :     3096.97  3097.08  3102.38  3106.70  3107.21  3113.45
eigval :     3114.05  3114.49  3115.06

   temp. (K)  partition function   enthalpy   heat capacity  entropy
                                   cal/mol     cal/K/mol   cal/K/mol   J/K/mol
 298.15  VIB  0.357E+27            32652.568    197.785    205.220
         ROT  0.346E+09              888.752      2.981     42.052
         INT  0.123E+36            33541.320    200.766    247.272
         TR   0.226E+29             1481.254      4.968     45.958
         TOT                       35022.5742   205.7341   293.2305  1226.8763

       T/K    H(0)-H(T)+PV         H(T)/Eh          T*S/Eh         G(T)/Eh
   ------------------------------------------------------------------------
    298.15    0.558120E-01    0.889845E+00    0.139323E+00    0.750521E+00
   ------------------------------------------------------------------------

         :::::::::::::::::::::::::::::::::::::::::::::::::::::
         ::                  THERMODYNAMIC                  ::
         :::::::::::::::::::::::::::::::::::::::::::::::::::::
         :: total free energy        -162.951482719850 Eh   ::
         ::.................................................::
         :: total energy             -163.702004143731 Eh   ::
         :: zero point energy           0.834032653978 Eh   ::
         :: G(RRHO) w/o ZPVE           -0.083511230097 Eh   ::
         :: G(RRHO) contrib.            0.750521423881 Eh   ::
         :::::::::::::::::::::::::::::::::::::::::::::::::::::

           -------------------------------------------------
          | TOTAL ENERGY             -163.702004143731 Eh   |
          | TOTAL ENTHALPY           -162.812159465147 Eh   |
          | TOTAL FREE ENERGY        -162.951482719850 Eh   |
          | GRADIENT NORM               0.000098588305 Eh/α |
          | HOMO-LUMO GAP               0.589619371921 eV   |
           -------------------------------------------------

 * finished run on 2025/08/21 at 14:14:31.311
