   * xtb version 6.7.1 (edcfbbe) compiled by 'albert@albert-system' on 2024-07-22

   ID    Z sym.   atoms
    1    6 C      1-8, 10-16, 18-23, 25-30, 32-35, 37-43, 45-59
    2    7 N      9, 17, 24, 31, 36, 44
    3    1 H      60-101

          program call               : xtb data2507/toluene/PY-TPA/PY-TPA_toluene_S0_finalOpt.xtbopt.xyz --gfn 2 --uhf 2 --gbsa toluene --ohess vtight --parallel 40 --molden --ceasefiles --namespace data2507/toluene/PY-TPA/PY-TPA_toluene_T1_preOpt
      * Solvation model:               GBSA
        Solvent                        toluene
        Solvent mass                       9.2140E+01 g/mol
          :  Hamiltonian                  GFN2-xTB          :
 * total energy  :  -152.4728191 Eh     change       -0.2086580E-08 Eh
 * total energy  :  -152.4749485 Eh     change       -0.2129400E-02 Eh
 * total energy  :  -152.4755723 Eh     change       -0.6237812E-03 Eh
 * total energy  :  -152.4756437 Eh     change       -0.7137658E-04 Eh
 * total energy  :  -152.4755577 Eh     change        0.8599275E-04 Eh
 * total energy  :  -152.4756938 Eh     change       -0.1361407E-03 Eh
 * total energy  :  -152.4757019 Eh     change       -0.8123899E-05 Eh
 * total energy  :  -152.4757067 Eh     change       -0.4740267E-05 Eh
 * total energy  :  -152.4757245 Eh     change       -0.1785953E-04 Eh
 * total energy  :  -152.4757508 Eh     change       -0.2624094E-04 Eh
 * total energy  :  -152.4758221 Eh     change       -0.2321368E-06 Eh
 * total energy  :  -152.4758224 Eh     change       -0.3028247E-06 Eh
 * total energy  :  -152.4758227 Eh     change       -0.2772573E-06 Eh
 * total energy  :  -152.4758229 Eh     change       -0.2177686E-06 Eh
 * total energy  :  -152.4758231 Eh     change       -0.2295688E-06 Eh
 * total energy  :  -152.4758234 Eh     change       -0.2870193E-06 Eh
 * total energy  :  -152.4758237 Eh     change       -0.3517967E-06 Eh
 * total energy  :  -152.4758241 Eh     change       -0.3303096E-06 Eh
 * total energy  :  -152.4758241 Eh     change       -0.2024933E-08 Eh
   *** GEOMETRY OPTIMIZATION CONVERGED AFTER 68 ITERATIONS ***

 final structure:
================
101
 xtb: 6.7.1 (edcfbbe)
C           -5.82486310877645       -6.84352528523918        0.27791957912819
C           -6.71040499260509       -5.81133759832461       -0.42654809170390
C           -6.78125298745958       -6.17686904591971       -1.91735942853744
C           -8.11496313799180       -5.88117564219180        0.19218099276633
C           -6.18006388977138       -4.39440903392907       -0.29145496605040
C           -6.88056085704027       -3.33709260529137       -0.87454766311340
C           -6.44140847489800       -2.03452095795751       -0.78134531998311
C           -5.26601537240198       -1.73560437229292       -0.08949946182668
N           -4.81707184042129       -0.41683128368279        0.01746374624767
C           -3.45488886970587       -0.13323432256503       -0.02988989461759
C           -2.59891270093069       -0.87720908022525       -0.84763339598719
C           -1.25459198988290       -0.58094609684891       -0.90116816886117
C           -0.71987289130451        0.47175129459915       -0.15676380610863
C            0.71138541083426        0.79054644454802       -0.22746340307342
C            1.63855306025472       -0.23739536562573       -0.10509579879819
C            3.00940086435426        0.00808333413259       -0.08512884667334
N            3.90552676845409       -0.97640633287809        0.04160363567334
C            5.20529445554977       -0.71482746860696        0.07777122229880
C            6.15600358299205       -1.77352110030652        0.21731908135928
C            5.69392141427601       -3.10018468087274        0.30090366889809
C            6.56163607366718       -4.14712723395997        0.43704742343341
C            7.94495002964082       -3.88607430828073        0.49500393448052
C            8.85541550505816       -4.95188786536580        0.63679613051673
N            9.59652090727205       -5.82275687768650        0.75278445351055
C            8.41884948587837       -2.58478077864975        0.41304153275475
C            7.54743354728717       -1.50174943660609        0.27324742497484
C            8.00856458739364       -0.13420458243385        0.18346560468877
C            9.36084583721927        0.21245354808962        0.23914187819436
C            9.77085295249091        1.53456805449691        0.14711636449001
C           11.14335052928379        1.84599414078606        0.21010662588896
N           12.26219808994515        2.10418901667750        0.26229306940909
C            8.82461766890031        2.56684854252059       -0.00825482656137
C            7.49705391436285        2.24694232798261       -0.06196551363930
C            7.06212450441235        0.91198262735005        0.03288278009664
C            5.66073452240859        0.63328147173537       -0.02020353959082
N            4.78303418486862        1.61822579210937       -0.15374060440992
C            3.46972863740039        1.36802584046328       -0.19285499519885
C            2.52776879628816        2.38329857775556       -0.33935940421377
C            1.16426185937691        2.11793168628840       -0.36519920261067
C            0.23283526748882        3.22989678899364       -0.59116505094163
C            0.35538019158067        4.43671163323906        0.09724713869812
C           -0.54356257249005        5.45779183313821       -0.15785396921111
C           -1.54089092845712        5.23991671121567       -1.09614339183880
N           -1.65570507908029        4.10994489521494       -1.77754255271043
C           -0.79332326706083        3.14226018412497       -1.53613317036697
C           -1.57496500251242        1.19548191896117        0.67744264414420
C           -2.91791938787434        0.90135186458037        0.74319689399139
C           -5.74158831047566        0.62012370991407        0.16975923523751
C           -5.53499542013900        1.85691990241563       -0.44494702986886
C           -6.45300361798249        2.87205288739836       -0.28759144478235
C           -7.60902297518145        2.70855016048752        0.47782664329065
C           -8.58789393229342        3.86191399174227        0.61538311250889
C           -7.86376223409165        5.06003742156931        1.24839270852466
C           -9.79384641596027        3.51232938037591        1.49259022630048
C           -9.10452677572878        4.24609898325047       -0.77983516195787
C           -7.80412983430351        1.46961893982048        1.08257495501611
C           -6.89293776167913        0.44222889949484        0.93617949571706
C           -4.55575974019778       -2.78242964538393        0.49724944096300
C           -5.00929891948789       -4.08285760630932        0.39467118214889
H           -6.25259745232847       -7.83544810525263        0.14704072441593
H           -5.76303092341309       -6.64482354174440        1.34554622102474
H           -4.82212276637300       -6.85457263683352       -0.14329829242037
H           -7.14069672614495       -7.19703259260201       -2.03318097867087
H           -7.45375763481901       -5.51667158400825       -2.45789956720149
H           -5.79446711933917       -6.10627197451929       -2.37095247481803
H           -8.50127309526245       -6.89576396123300        0.12324512146946
H           -8.07946406697228       -5.59707732259560        1.24215712261976
H           -8.80869523114330       -5.21903402669593       -0.31829545499390
H           -7.78836663090560       -3.52974518164514       -1.42475601473718
H           -6.99649994510507       -1.23914227714861       -1.25624126105393
H           -3.00245981914391       -1.67268504710726       -1.45606527938287
H           -0.60920060761251       -1.14681241845850       -1.55641518059336
H            1.30628949277364       -1.25747935410544        0.01366370287760
H            4.62827251336702       -3.26323201581065        0.25351180674730
H            6.20754159378922       -5.16492937680713        0.50093933650969
H            9.48575712446509       -2.43223305337737        0.45986325278651
H           10.12042096015167       -0.54453371040491        0.35683394945605
H            9.15905312527409        3.59076659259349       -0.08069093987240
H            6.74472971344267        3.01188592620381       -0.17822444211273
H            2.88926621730583        3.39335455205358       -0.46095094283588
H            1.13457518450903        4.55918044682281        0.83639620769467
H           -0.47600195652458        6.39959139584368        0.36459150906934
H           -2.27821668380262        5.99885558326674       -1.32261877548146
H           -0.91523445615396        2.24881426838673       -2.13500667053002
H           -1.17190121977156        1.98112355712967        1.29864862141007
H           -3.56171686111489        1.46012580146870        1.40570083870174
H           -4.65968469512788        2.01022856490836       -1.05829215761132
H           -6.26069166268931        3.80988878522481       -0.78495842703523
H           -7.03469584882954        5.39567104003288        0.63161745378839
H           -7.47435141023156        4.79126301715719        2.22852131093932
H           -8.55562767227526        5.89084391783476        1.36912441602261
H          -10.36020276104696        2.68551063149323        1.07008713898406
H          -10.45623682873540        4.37330245788645        1.55502414299097
H           -9.48365487388588        3.25581735986609        2.50305789269909
H           -8.29538672927475        4.56937208468867       -1.42873086131451
H           -9.82188921768772        5.05993492193754       -0.69949960344361
H           -9.59885696188274        3.39626530944944       -1.24651163129884
H           -8.67399156377652        1.28839594239888        1.69164192661175
H           -7.06220770790619       -0.50273908870371        1.43116292193561
H           -3.65303475330029       -2.56887412584961        1.05060060982359
H           -4.43193960459681       -4.85672895902233        0.87245584054172

          :  Hamiltonian                  GFN2-xTB          :
         :: gradient norm              0.000190547476 Eh/a0 ::
         :: HOMO-LUMO gap              0.554467252629 eV    ::
         :: SCC energy              -155.260342458486 Eh    ::
         :: -> dispersion             -0.137008238406 Eh    ::
         :: -> Gsolv                  -0.074814813017 Eh    ::
         :: repulsion energy           2.784518386377 Eh    ::

    * Orbital Energies and Occupations

         #    Occupation            Energy/Eh            Energy/eV
      -------------------------------------------------------------
         1        2.0000           -0.6836150             -18.6021
       ...           ...                  ...                  ...
       131        2.0000           -0.4197041             -11.4207
       132        2.0000           -0.4180832             -11.3766
       133        2.0000           -0.4153063             -11.3011
       134        2.0000           -0.4138419             -11.2612
       135        2.0000           -0.4110665             -11.1857
       136        2.0000           -0.4086918             -11.1211
       137        2.0000           -0.4070543             -11.0765
       138        2.0000           -0.3968182             -10.7980
       139        2.0000           -0.3935956             -10.7103
       140        2.0000           -0.3754630             -10.2169
       141        1.5997           -0.3617269              -9.8431
       142        1.4003           -0.3609589              -9.8222
       143        1.0000           -0.3131256              -8.5206 (HOMO)
       144        0.0000           -0.2927490              -7.9661 (LUMO)
       145                         -0.2667270              -7.2580
       146                         -0.2623571              -7.1391
       147                         -0.2607452              -7.0952
       148                         -0.2524458              -6.8694
       149                         -0.2428377              -6.6079
       150                         -0.2409003              -6.5552
       151                         -0.2382526              -6.4832
       152                         -0.2324127              -6.3243
       153                         -0.2299826              -6.2581
       154                         -0.2284896              -6.2175
       ...                                ...                  ...
       278                          1.1583499              31.5203
      -------------------------------------------------------------
                  HL-Gap            0.0203767 Eh            0.5545 eV

     #   Z          covCN         q      C6AA      α(0)
     1   6 C        3.761    -0.110    22.645     6.784
     2   6 C        3.902     0.027    20.063     6.367
     3   6 C        3.761    -0.107    22.590     6.775
     4   6 C        3.761    -0.107    22.595     6.776
     5   6 C        2.972     0.014    27.698     8.633
     6   6 C        2.926    -0.031    28.784     8.798
     7   6 C        2.919    -0.043    29.067     8.841
     8   6 C        2.926     0.060    26.663     8.468
     9   7 N        2.752    -0.031    21.852     6.943
    10   6 C        2.926     0.064    26.560     8.452
    11   6 C        2.919    -0.042    29.037     8.837
    12   6 C        2.923    -0.031    28.785     8.798
    13   6 C        2.977     0.013    27.728     8.638
    14   6 C        2.975     0.001    27.993     8.679
    15   6 C        2.924    -0.063    29.565     8.917
    16   6 C        2.942     0.085    26.116     8.381
    17   7 N        1.849    -0.247    27.287     7.742
    18   6 C        2.944     0.081    26.197     8.395
    19   6 C        2.986    -0.005    28.139     8.702
    20   6 C        2.922    -0.026    28.660     8.779
    21   6 C        2.921    -0.025    28.639     8.776
    22   6 C        2.971     0.011    27.774     8.645
    23   6 C        1.913     0.116    28.236     8.582
    24   7 N        0.911    -0.280    27.224     7.546
    25   6 C        2.929    -0.024    28.604     8.771
    26   6 C        2.975     0.002    27.982     8.677
    27   6 C        2.975     0.002    27.978     8.676
    28   6 C        2.929    -0.024    28.605     8.771
    29   6 C        2.971     0.011    27.770     8.644
    30   6 C        1.913     0.116    28.235     8.581
    31   7 N        0.911    -0.280    27.217     7.545
    32   6 C        2.921    -0.026    28.640     8.776
    33   6 C        2.922    -0.026    28.656     8.779
    34   6 C        2.986    -0.005    28.140     8.702
    35   6 C        2.944     0.081    26.183     8.392
    36   7 N        1.849    -0.249    27.332     7.748
    37   6 C        2.943     0.084    26.118     8.382
    38   6 C        2.924    -0.063    29.570     8.918
    39   6 C        2.974    -0.002    28.071     8.691
    40   6 C        2.973     0.005    27.916     8.667
    41   6 C        2.933    -0.018    28.451     8.748
    42   6 C        2.911    -0.039    28.977     8.827
    43   6 C        2.912     0.056    26.737     8.479
    44   7 N        1.835    -0.237    27.036     7.705
    45   6 C        2.916     0.058    26.699     8.473
    46   6 C        2.923    -0.029    28.733     8.790
    47   6 C        2.919    -0.042    29.033     8.836
    48   6 C        2.926     0.060    26.664     8.468
    49   6 C        2.919    -0.043    29.069     8.841
    50   6 C        2.926    -0.031    28.774     8.797
    51   6 C        2.972     0.014    27.694     8.632
    52   6 C        3.902     0.027    20.063     6.367
    53   6 C        3.761    -0.107    22.590     6.775
    54   6 C        3.761    -0.110    22.652     6.785
    55   6 C        3.761    -0.107    22.593     6.776
    56   6 C        2.924    -0.036    28.898     8.816
    57   6 C        2.920    -0.043    29.079     8.843
    58   6 C        2.920    -0.044    29.086     8.844
    59   6 C        2.924    -0.036    28.889     8.814
    60   1 H        0.925     0.040     2.451     2.448
    61   1 H        0.925     0.038     2.472     2.459
    62   1 H        0.925     0.038     2.476     2.461
    63   1 H        0.925     0.042     2.425     2.435
    64   1 H        0.925     0.040     2.450     2.448
    65   1 H        0.925     0.035     2.517     2.481
    66   1 H        0.925     0.042     2.426     2.436
    67   1 H        0.925     0.035     2.510     2.478
    68   1 H        0.925     0.040     2.446     2.446
    69   1 H        0.926     0.046     2.371     2.408
    70   1 H        0.926     0.043     2.408     2.427
    71   1 H        0.926     0.049     2.332     2.388
    72   1 H        0.926     0.046     2.376     2.411
    73   1 H        0.926     0.050     2.320     2.382
    74   1 H        0.926     0.058     2.228     2.334
    75   1 H        0.926     0.044     2.390     2.417
    76   1 H        0.926     0.042     2.420     2.433
    77   1 H        0.926     0.043     2.415     2.430
    78   1 H        0.926     0.044     2.399     2.422
    79   1 H        0.926     0.056     2.243     2.342
    80   1 H        0.926     0.045     2.389     2.417
    81   1 H        0.926     0.041     2.436     2.441
    82   1 H        0.926     0.044     2.398     2.422
    83   1 H        0.925     0.040     2.454     2.450
    84   1 H        0.925     0.033     2.538     2.491
    85   1 H        0.926     0.037     2.492     2.469
    86   1 H        0.926     0.046     2.370     2.408
    87   1 H        0.926     0.042     2.422     2.433
    88   1 H        0.926     0.045     2.378     2.411
    89   1 H        0.925     0.039     2.459     2.452
    90   1 H        0.925     0.035     2.521     2.483
    91   1 H        0.925     0.042     2.424     2.435
    92   1 H        0.925     0.039     2.460     2.452
    93   1 H        0.925     0.040     2.447     2.446
    94   1 H        0.925     0.038     2.470     2.458
    95   1 H        0.925     0.040     2.452     2.449
    96   1 H        0.925     0.042     2.423     2.434
    97   1 H        0.925     0.036     2.505     2.475
    98   1 H        0.926     0.053     2.287     2.365
    99   1 H        0.926     0.043     2.412     2.428
   100   1 H        0.926     0.040     2.446     2.446
   101   1 H        0.926     0.051     2.305     2.374

molecular dipole:
                 x           y           z       tot (Debye)
 q only:      -10.468       0.423       0.103
   full:      -10.656       0.743       0.276      27.159

 projected vibrational frequencies (cm⁻¹)
eigval :       -0.00    -0.00     0.00     0.00     0.00     0.00
eigval :        8.88     9.61    14.23    19.82    23.83    26.61
eigval :       29.09    35.00    37.78    45.22    46.08    53.19
eigval :       58.58    67.62    69.38    79.41    85.42    87.48
eigval :       95.11    99.24   101.00   110.68   115.63   126.81
eigval :      140.48   151.22   159.54   170.87   177.10   181.79
eigval :      184.88   188.05   198.67   209.68   221.84   228.09
eigval :      236.22   243.54   244.27   258.66   259.15   265.78
eigval :      271.46   284.33   296.40   310.25   314.19   315.15
eigval :      316.47   325.29   341.97   347.65   351.39   355.00
eigval :      363.36   371.28   378.17   381.91   383.53   387.70
eigval :      390.23   392.62   394.27   395.07   407.01   414.89
eigval :      421.95   429.89   439.34   454.13   459.04   462.43
eigval :      471.99   486.90   495.02   499.48   507.73   517.56
eigval :      528.03   533.64   544.17   551.33   555.31   559.56
eigval :      563.32   575.98   581.06   594.44   601.31   605.10
eigval :      606.70   609.24   614.96   624.21   631.96   639.85
eigval :      642.55   656.10   677.48   686.09   689.52   690.94
eigval :      693.20   696.50   705.56   712.91   718.04   726.23
eigval :      727.16   764.02   782.41   792.08   812.02   818.71
eigval :      820.45   821.02   822.30   824.12   828.90   849.81
eigval :      855.30   864.65   865.46   868.21   868.84   874.78
eigval :      880.49   895.93   907.61   912.85   914.72   915.95
eigval :      916.73   918.18   919.63   926.48   928.48   929.98
eigval :      931.83   932.19   944.28   950.27   951.59   959.51
eigval :      959.87   961.92   962.96   963.63   965.51   995.75
eigval :     1008.72  1021.70  1024.86  1033.49  1034.29  1034.74
eigval :     1036.50  1038.04  1061.88  1077.74  1093.83  1135.74
eigval :     1139.32  1139.71  1141.21  1142.27  1143.67  1151.25
eigval :     1152.35  1181.42  1186.27  1189.14  1192.95  1193.47
eigval :     1196.11  1203.37  1221.76  1222.74  1223.01  1230.53
eigval :     1231.02  1234.08  1235.48  1236.59  1246.36  1247.88
eigval :     1264.63  1266.78  1272.32  1275.03  1277.69  1278.51
eigval :     1280.04  1280.57  1288.25  1288.57  1301.57  1306.25
eigval :     1311.62  1313.99  1315.01  1325.22  1325.80  1340.45
eigval :     1347.15  1367.74  1388.90  1396.26  1397.94  1400.58
eigval :     1402.31  1403.70  1404.40  1406.54  1412.65  1414.15
eigval :     1420.52  1421.12  1427.19  1427.71  1448.04  1453.03
eigval :     1464.01  1471.47  1471.56  1472.80  1477.69  1488.12
eigval :     1489.19  1490.01  1491.13  1491.47  1496.98  1498.48
eigval :     1501.28  1501.78  1503.92  1511.15  1511.74  1514.74
eigval :     1515.72  1518.35  1530.65  1539.92  1549.34  1552.67
eigval :     1554.80  1563.12  1566.11  1567.28  1578.27  1581.88
eigval :     1593.43  2338.39  2345.67  3022.71  3022.73  3023.18
eigval :     3024.05  3026.97  3027.03  3027.17  3028.31  3030.98
eigval :     3031.06  3032.89  3033.29  3038.00  3038.30  3046.68
eigval :     3046.73  3049.66  3050.25  3054.72  3056.99  3069.34
eigval :     3082.86  3083.57  3084.31  3085.34  3085.65  3087.50
eigval :     3087.83  3088.06  3089.21  3090.48  3091.49  3094.85
eigval :     3095.93  3097.03  3098.03  3100.03  3100.06  3103.07
eigval :     3106.05  3119.60  3119.82

   temp. (K)  partition function   enthalpy   heat capacity  entropy
                                   cal/mol     cal/K/mol   cal/K/mol   J/K/mol
 298.15  VIB  0.215E+25            30927.016    189.197    193.402
         ROT  0.241E+09              888.752      2.981     41.334
         INT  0.518E+33            31815.769    192.177    234.737
         TR   0.204E+29             1481.254      4.968     45.754
         TOT                       33297.0225   197.1455   280.4910  1173.5743

       T/K    H(0)-H(T)+PV         H(T)/Eh          T*S/Eh         G(T)/Eh
   ------------------------------------------------------------------------
    298.15    0.530622E-01    0.841019E+00    0.133270E+00    0.707749E+00
   ------------------------------------------------------------------------

         :::::::::::::::::::::::::::::::::::::::::::::::::::::
         ::                  THERMODYNAMIC                  ::
         :::::::::::::::::::::::::::::::::::::::::::::::::::::
         :: total free energy        -151.768075319600 Eh   ::
         ::.................................................::
         :: total energy             -152.475824064362 Eh   ::
         :: zero point energy           0.787956877251 Eh   ::
         :: G(RRHO) w/o ZPVE           -0.080208132489 Eh   ::
         :: G(RRHO) contrib.            0.707748744762 Eh   ::
         :::::::::::::::::::::::::::::::::::::::::::::::::::::

           -------------------------------------------------
          | TOTAL ENERGY             -152.475824064362 Eh   |
          | TOTAL ENTHALPY           -151.634805004169 Eh   |
          | TOTAL FREE ENERGY        -151.768075319600 Eh   |
          | GRADIENT NORM               0.000190937011 Eh/α |
          | HOMO-LUMO GAP               0.554477314188 eV   |
           -------------------------------------------------

 * finished run on 2025/07/18 at 22:47:36.357
