   * xtb version 6.7.1 (edcfbbe) compiled by 'albert@albert-system' on 2024-07-22

   ID    Z sym.   atoms
    1    6 C      1-8, 10-16, 18-25, 27, 28, 30, 31, 33-36, 38-43, 45-48,
                  50-63
    2    7 N      9, 17, 26, 29, 32, 37, 44, 49
    3    1 H      64-107

          program call               : xtb data2507/toluene/Py-TPA/Py-TPA_toluene_T1_crest.xyz --gfn 2 --uhf 2 --gbsa toluene --ohess vtight --parallel 40 --molden --ceasefiles --namespace data2507/toluene/Py-TPA/Py-TPA_toluene_T1_finalOpt
      * Solvation model:               GBSA
        Solvent                        toluene
        Solvent mass                       9.2140E+01 g/mol
          :  Hamiltonian                  GFN2-xTB          :
 * total energy  :  -163.6627577 Eh     change       -0.1196691E-06 Eh
 * total energy  :  -163.6629489 Eh     change       -0.1911743E-03 Eh
 * total energy  :  -163.6630220 Eh     change       -0.7307664E-04 Eh
 * total energy  :  -163.6630260 Eh     change       -0.4080386E-05 Eh
 * total energy  :  -163.6630414 Eh     change       -0.1537623E-04 Eh
 * total energy  :  -163.6630479 Eh     change       -0.6455046E-05 Eh
 * total energy  :  -163.6630562 Eh     change       -0.8327751E-05 Eh
 * total energy  :  -163.6630695 Eh     change       -0.1331408E-04 Eh
 * total energy  :  -163.6630867 Eh     change       -0.1717525E-04 Eh
 * total energy  :  -163.6630994 Eh     change       -0.1273461E-04 Eh
 * total energy  :  -163.6632065 Eh     change       -0.5943243E-06 Eh
 * total energy  :  -163.6632070 Eh     change       -0.5066620E-06 Eh
 * total energy  :  -163.6632074 Eh     change       -0.4727205E-06 Eh
 * total energy  :  -163.6632079 Eh     change       -0.4466944E-06 Eh
 * total energy  :  -163.6632083 Eh     change       -0.4305219E-06 Eh
 * total energy  :  -163.6632088 Eh     change       -0.4441615E-06 Eh
 * total energy  :  -163.6632091 Eh     change       -0.3641753E-06 Eh
 * total energy  :  -163.6632094 Eh     change       -0.2704716E-06 Eh
 * total energy  :  -163.6632094 Eh     change       -0.5311477E-08 Eh
   *** GEOMETRY OPTIMIZATION CONVERGED AFTER 44 ITERATIONS ***

 final structure:
================
107
 xtb: 6.7.1 (edcfbbe)
C          -11.58733247001630       -3.58690675162256       -1.34552869115897
C          -10.35826692093864       -3.98193746741117       -0.52131641777428
C           -9.69066691120184       -5.18798313638233       -1.19994833884153
C          -10.83022732517008       -4.37499024884447        0.88724741334300
C           -9.34375137585856       -2.85798903046394       -0.40573654334288
C           -8.16473455206246       -3.06411204118687        0.31352427401453
C           -7.21206616893863       -2.07820069830387        0.44658400178584
C           -7.40471254076208       -0.82843759742344       -0.14734684467302
N           -6.44608060405867        0.17988639006822       -0.01868391573107
C           -5.09281462137372       -0.14411426294379       -0.00849253340901
C           -4.19242670740916        0.57253598808796        0.78689328103249
C           -2.85885804872016        0.22916947920609        0.81107348379356
C           -2.38004073265274       -0.84378373249840        0.05702439042331
C           -0.96614268203521       -1.22854855022386        0.11665391960389
C            0.02990518911747       -0.26971145067371        0.04058444032344
C            1.38631274341236       -0.61237820648811        0.06965565291613
N            2.33743289344184        0.31608023335847       -0.01662035253857
C            3.62511849480945       -0.03121922571171        0.00554933922389
C            4.64297402301107        0.95992800683203       -0.09156837357188
C            4.33274365793452        2.32761507702396       -0.19994076548592
C            5.34245921306883        3.24772073790355       -0.29658568494997
C            6.68000643439118        2.79748871417953       -0.28162964352502
C            7.81728642219060        3.72025395300731       -0.37755713304253
C            9.06344883180554        3.33667260903506        0.12338827700604
C           10.12294409230265        4.22041232402318        0.02603241602066
N           10.02597792328073        5.42237533586078       -0.52302054306808
C            8.84889960954714        5.78338709112720       -1.00786973179420
C            7.71989433224118        4.98265954672958       -0.96418938293437
N            6.98055008823919        1.51670408093309       -0.16292419152566
C            6.01660025620336        0.60792464380881       -0.07337095450750
C            6.38668258011979       -0.78307988599379        0.04561883610071
N            7.67777187561176       -1.09794575351102        0.06237577164854
C            8.05277504346436       -2.35914451093376        0.17523048858415
C            9.50145352224054       -2.60125636116529        0.18667380390298
C           10.36386954460606       -1.65928589536289       -0.37800323209983
C           11.72488549124746       -1.90607218811656       -0.36107791766177
N           12.26487707475731       -2.99460701587263        0.16686843167861
C           11.45003083697699       -3.88255208178318        0.71293219715922
C           10.07278189347745       -3.74077541088425        0.75353521254389
C            7.11555632224910       -3.40931768602902        0.26037145957714
C            5.77886139844741       -3.10571902005018        0.24190325153221
C            5.37106034216760       -1.76570503838792        0.14089371125616
C            3.98814962237857       -1.40560176230334        0.12295250458721
N            3.05051041321441       -2.33953028608156        0.21322316970648
C            1.75317700116105       -2.00121436732760        0.19200551566253
C            0.74863742949870       -2.95679276415029        0.29314505039664
C           -0.59763290811423       -2.58457965925175        0.25607671068758
C           -1.56844768482529       -3.58531418635446        0.43533618108653
N           -2.33308544265602       -4.42723698518464        0.61252315366805
C           -3.27694508025653       -1.54014743775610       -0.75499618242234
C           -4.60992841644372       -1.19734550999316       -0.79201320407210
C           -6.85249472581814        1.51034894016431        0.11218513800473
C           -7.99535601114056        1.83918838079697        0.84078704882874
C           -8.39562023491056        3.15521046175855        0.96199321518743
C           -7.68094710379666        4.19227167999993        0.36793373771762
C           -8.08805253161431        5.65100074437291        0.48127168791271
C           -9.35692237573727        5.84726291492173        1.31632168313628
C           -8.34891650318515        6.20760890695341       -0.92711810074325
C           -6.94781722831712        6.43654453707477        1.14734753192618
C           -6.53953821793147        3.84869308562977       -0.35910592032459
C           -6.12689857088133        2.54076492516872       -0.48969392813641
C           -8.57868730801695       -0.60838921248139       -0.86790995384945
C           -9.52447784151303       -1.60694334606631       -0.99029977288438
H          -11.30962139817937       -3.32529480442340       -2.36406289970246
H          -12.27496527848285       -4.42876135287456       -1.39291067945801
H          -12.11360727632897       -2.75101493253525       -0.89039174038069
H           -8.84696229864940       -5.55461186316998       -0.62191032552648
H          -10.40773695127763       -5.99917319915532       -1.30538509747788
H           -9.33267081553529       -4.91408403664449       -2.19055391833282
H          -10.00553011779775       -4.72998706038676        1.49889950842960
H          -11.28374540255342       -3.52061472900239        1.38589806064360
H          -11.57091533059556       -5.16898288589651        0.82234546695601
H           -7.98175903812535       -4.01338366584445        0.79226990818698
H           -6.31810560650668       -2.26512660556849        1.02328051490653
H           -4.55323530078383        1.38133354247965        1.40431620708281
H           -2.17905772755961        0.77130353977432        1.45107263130690
H           -0.22399084837886        0.77313240255518       -0.07180310572291
H            3.29228906003133        2.61825980596920       -0.20121670259443
H            5.12100140399796        4.30102529307427       -0.35953617516965
H            9.17561016543809        2.36490222618083        0.57607383834228
H           11.10297897315795        3.96122213140339        0.40591034166894
H            8.81368107652630        6.76872456171661       -1.45550549966615
H            6.79604944362245        5.33156871617802       -1.39801041353268
H            9.95511758097177       -0.76320436192201       -0.81587983733840
H           12.42550472408790       -1.20181537515515       -0.79128131346924
H           11.93117889515253       -4.75289676094883        1.14123144931412
H            9.46793618866576       -4.49361102658938        1.23399272150161
H            7.44431852326432       -4.43457856595468        0.31577680945245
H            5.01881140979067       -3.87143720023693        0.30012822456218
H            1.02426552460913       -3.99439048353227        0.40754334992173
H           -2.91861469369730       -2.34401357284886       -1.38040791783726
H           -5.28621063090296       -1.73595436402308       -1.43825689880454
H           -8.55900235463780        1.05688529050485        1.32712118333918
H           -9.27934768831936        3.36181258187631        1.54206689695631
H           -9.21597685619837        5.49199831056983        2.33459706543244
H           -9.59729622100507        6.90739980498325        1.36308839091516
H          -10.20458288712480        5.33214646626689        0.87027818928570
H           -8.66139815806597        7.24758458313909       -0.86331813346062
H           -7.45767815098119        6.15908377270291       -1.54650040660445
H           -9.13793287289793        5.64045532520148       -1.41710080443886
H           -7.22927924339063        7.48191841851285        1.25372363645332
H           -6.03479048306807        6.38957227065891        0.56035326994542
H           -6.73955499296858        6.03400505576325        2.13680965874309
H           -5.95839348453214        4.61628592311902       -0.84594194584727
H           -5.24947169944422        2.30415750531305       -1.07330857886283
H           -8.73724786650910        0.34566051632809       -1.34853769716744
H          -10.41048026048254       -1.39441208084328       -1.56483546325456

          :  Hamiltonian                  GFN2-xTB          :
         :: gradient norm              0.000086327821 Eh/a0 ::
         :: HOMO-LUMO gap              0.596861950015 eV    ::
         :: SCC energy              -166.544741399231 Eh    ::
         :: -> dispersion             -0.142391132001 Eh    ::
         :: -> Gsolv                  -0.080963468618 Eh    ::
         :: repulsion energy           2.881532003813 Eh    ::

    * Orbital Energies and Occupations

         #    Occupation            Energy/Eh            Energy/eV
      -------------------------------------------------------------
         1        2.0000           -0.6878038             -18.7161
       ...           ...                  ...                  ...
       141        2.0000           -0.4183353             -11.3835
       142        2.0000           -0.4163837             -11.3304
       143        2.0000           -0.4129808             -11.2378
       144        2.0000           -0.4096017             -11.1458
       145        2.0000           -0.4029536             -10.9649
       146        2.0000           -0.3975344             -10.8175
       147        2.0000           -0.3771986             -10.2641
       148        2.0000           -0.3757869             -10.2257
       149        1.9987           -0.3715896             -10.1115
       150        1.9964           -0.3706002             -10.0845
       151        1.5752           -0.3655461              -9.9470
       152        1.4296           -0.3649889              -9.9319
       153        1.0000           -0.3187125              -8.6726 (HOMO)
       154        0.0000           -0.2967780              -8.0757 (LUMO)
       155                         -0.2796486              -7.6096
       156                         -0.2718218              -7.3966
       157                         -0.2678638              -7.2889
       158                         -0.2462136              -6.6998
       159                         -0.2439278              -6.6376
       160                         -0.2434129              -6.6236
       161                         -0.2402533              -6.5376
       162                         -0.2382180              -6.4822
       163                         -0.2375460              -6.4640
       164                         -0.2353450              -6.4041
       ...                                ...                  ...
       296                          1.1537153              31.3942
      -------------------------------------------------------------
                  HL-Gap            0.0219345 Eh            0.5969 eV

     #   Z          covCN         q      C6AA      α(0)
     1   6 C        3.761    -0.111    22.666     6.787
     2   6 C        3.902     0.027    20.056     6.366
     3   6 C        3.761    -0.107    22.595     6.776
     4   6 C        3.761    -0.107    22.598     6.776
     5   6 C        2.972     0.016    27.641     8.624
     6   6 C        2.926    -0.030    28.748     8.793
     7   6 C        2.919    -0.042    29.040     8.837
     8   6 C        2.926     0.059    26.670     8.469
     9   7 N        2.752    -0.026    21.749     6.926
    10   6 C        2.926     0.065    26.536     8.448
    11   6 C        2.919    -0.041    29.027     8.835
    12   6 C        2.923    -0.030    28.751     8.793
    13   6 C        2.977     0.010    27.787     8.647
    14   6 C        2.976     0.012    27.742     8.640
    15   6 C        2.923    -0.064    29.605     8.923
    16   6 C        2.943     0.091    25.986     8.361
    17   7 N        1.849    -0.256    27.515     7.774
    18   6 C        2.943     0.076    26.301     8.411
    19   6 C        2.982    -0.023    28.579     8.769
    20   6 C        2.924    -0.017    28.427     8.743
    21   6 C        2.913    -0.048    29.203     8.861
    22   6 C        2.951     0.091    25.975     8.359
    23   6 C        2.988     0.023    27.478     8.599
    24   6 C        2.919    -0.037    28.927     8.820
    25   6 C        2.912     0.060    26.651     8.465
    26   7 N        1.835    -0.236    27.022     7.703
    27   6 C        2.912     0.059    26.684     8.470
    28   6 C        2.916    -0.046    29.134     8.851
    29   7 N        1.851    -0.233    26.952     7.694
    30   6 C        2.960     0.080    26.215     8.398
    31   6 C        2.960     0.081    26.185     8.393
    32   7 N        1.852    -0.234    26.975     7.698
    33   6 C        2.952     0.093    25.934     8.353
    34   6 C        2.989     0.023    27.475     8.598
    35   6 C        2.919    -0.037    28.916     8.818
    36   6 C        2.912     0.060    26.649     8.465
    37   7 N        1.835    -0.235    26.987     7.698
    38   6 C        2.912     0.059    26.679     8.470
    39   6 C        2.916    -0.045    29.120     8.849
    40   6 C        2.913    -0.049    29.206     8.862
    41   6 C        2.925    -0.015    28.394     8.739
    42   6 C        2.982    -0.023    28.570     8.768
    43   6 C        2.942     0.082    26.176     8.391
    44   7 N        1.848    -0.261    27.629     7.790
    45   6 C        2.944     0.084    26.122     8.383
    46   6 C        2.929    -0.054    29.347     8.884
    47   6 C        2.972    -0.004    28.113     8.697
    48   6 C        1.914     0.118    28.207     8.577
    49   7 N        0.911    -0.294    27.583     7.596
    50   6 C        2.922    -0.027    28.668     8.780
    51   6 C        2.920    -0.040    28.989     8.829
    52   6 C        2.926     0.059    26.674     8.470
    53   6 C        2.920    -0.042    29.043     8.837
    54   6 C        2.924    -0.035    28.872     8.812
    55   6 C        2.972     0.016    27.655     8.626
    56   6 C        3.902     0.027    20.057     6.366
    57   6 C        3.761    -0.111    22.663     6.787
    58   6 C        3.761    -0.107    22.597     6.776
    59   6 C        3.761    -0.107    22.596     6.776
    60   6 C        2.926    -0.031    28.767     8.796
    61   6 C        2.919    -0.043    29.065     8.841
    62   6 C        2.920    -0.042    29.052     8.839
    63   6 C        2.924    -0.035    28.877     8.812
    64   1 H        0.925     0.039     2.459     2.452
    65   1 H        0.925     0.041     2.436     2.441
    66   1 H        0.925     0.040     2.448     2.447
    67   1 H        0.925     0.039     2.456     2.451
    68   1 H        0.925     0.043     2.413     2.429
    69   1 H        0.925     0.035     2.512     2.479
    70   1 H        0.925     0.040     2.454     2.450
    71   1 H        0.925     0.037     2.495     2.470
    72   1 H        0.925     0.043     2.411     2.428
    73   1 H        0.926     0.047     2.362     2.403
    74   1 H        0.926     0.040     2.443     2.444
    75   1 H        0.926     0.053     2.285     2.364
    76   1 H        0.926     0.047     2.352     2.398
    77   1 H        0.926     0.052     2.295     2.369
    78   1 H        0.926     0.053     2.278     2.360
    79   1 H        0.926     0.050     2.318     2.381
    80   1 H        0.926     0.059     2.215     2.327
    81   1 H        0.925     0.042     2.421     2.433
    82   1 H        0.925     0.041     2.432     2.439
    83   1 H        0.926     0.044     2.399     2.422
    84   1 H        0.926     0.060     2.200     2.320
    85   1 H        0.925     0.043     2.407     2.426
    86   1 H        0.925     0.042     2.424     2.435
    87   1 H        0.926     0.044     2.397     2.421
    88   1 H        0.926     0.050     2.319     2.381
    89   1 H        0.926     0.052     2.294     2.368
    90   1 H        0.926     0.041     2.434     2.440
    91   1 H        0.926     0.039     2.461     2.453
    92   1 H        0.926     0.051     2.305     2.374
    93   1 H        0.926     0.045     2.382     2.413
    94   1 H        0.926     0.055     2.257     2.350
    95   1 H        0.925     0.039     2.462     2.454
    96   1 H        0.925     0.041     2.439     2.442
    97   1 H        0.925     0.040     2.452     2.449
    98   1 H        0.925     0.043     2.414     2.430
    99   1 H        0.925     0.040     2.455     2.450
   100   1 H        0.925     0.036     2.497     2.471
   101   1 H        0.925     0.042     2.416     2.431
   102   1 H        0.925     0.039     2.458     2.451
   103   1 H        0.925     0.035     2.511     2.478
   104   1 H        0.926     0.046     2.365     2.405
   105   1 H        0.926     0.041     2.431     2.438
   106   1 H        0.926     0.046     2.374     2.409
   107   1 H        0.926     0.056     2.251     2.346

molecular dipole:
                 x           y           z       tot (Debye)
 q only:       -8.465       2.053      -0.237
   full:       -9.329       1.849      -0.239      24.181

 projected vibrational frequencies (cm⁻¹)
eigval :       -0.00    -0.00     0.00     0.00     0.00     0.00
eigval :        5.70     8.76     9.02    18.79    21.83    24.22
eigval :       25.87    31.39    32.48    35.95    36.97    39.73
eigval :       48.33    51.86    58.59    59.90    69.85    78.22
eigval :       93.66    96.08    99.72   102.61   109.11   110.98
eigval :      120.35   129.28   139.03   151.10   166.28   166.95
eigval :      177.53   178.45   181.07   197.36   205.21   213.31
eigval :      220.26   227.69   228.47   237.37   241.79   246.01
eigval :      251.38   259.31   280.51   290.09   306.05   307.01
eigval :      313.62   314.99   316.99   327.07   333.71   334.89
eigval :      341.84   345.40   353.01   357.24   366.00   374.36
eigval :      377.64   379.01   380.83   385.83   388.17   393.23
eigval :      403.81   410.44   415.41   418.04   424.95   429.21
eigval :      436.29   446.38   454.14   457.88   467.47   481.19
eigval :      497.49   500.41   502.67   512.93   523.21   530.84
eigval :      540.91   556.97   563.24   571.48   572.34   584.22
eigval :      593.06   598.93   604.59   604.80   608.27   621.02
eigval :      626.27   628.55   630.60   641.51   648.46   660.40
eigval :      672.28   687.90   689.83   692.19   697.14   698.76
eigval :      700.75   707.60   713.38   716.68   717.89   723.17
eigval :      746.93   764.03   775.15   792.65   795.13   812.42
eigval :      812.62   818.65   821.36   824.70   827.11   829.01
eigval :      844.92   862.33   864.29   866.73   874.12   880.38
eigval :      880.51   885.07   888.34   912.80   914.56   914.70
eigval :      917.05   917.64   917.92   918.42   921.69   923.99
eigval :      926.05   926.44   928.56   931.35   932.08   940.35
eigval :      958.99   959.36   961.70   963.34   964.15   964.26
eigval :      983.30   993.45  1001.12  1009.18  1021.02  1032.71
eigval :     1033.70  1034.08  1035.17  1036.00  1055.83  1063.09
eigval :     1089.08  1090.95  1095.11  1099.25  1110.69  1114.44
eigval :     1137.10  1138.73  1139.37  1140.96  1144.64  1150.86
eigval :     1151.63  1162.81  1180.74  1193.22  1196.38  1200.55
eigval :     1202.25  1203.01  1215.46  1220.37  1222.06  1222.29
eigval :     1229.89  1230.00  1230.33  1239.26  1256.65  1257.40
eigval :     1261.63  1265.88  1268.16  1271.24  1274.75  1277.24
eigval :     1279.68  1280.37  1280.86  1285.80  1287.49  1298.22
eigval :     1306.75  1309.38  1313.71  1316.12  1318.01  1325.48
eigval :     1326.15  1327.27  1357.86  1369.03  1370.92  1381.22
eigval :     1382.51  1389.68  1396.71  1400.23  1402.67  1403.42
eigval :     1403.77  1406.97  1413.75  1414.73  1426.56  1428.12
eigval :     1433.48  1449.82  1463.60  1465.73  1469.15  1469.50
eigval :     1472.97  1478.13  1487.45  1487.87  1488.98  1489.23
eigval :     1489.35  1494.81  1496.17  1496.77  1501.29  1501.40
eigval :     1502.70  1510.39  1511.26  1514.32  1514.38  1520.71
eigval :     1535.94  1539.39  1543.29  1547.71  1548.13  1550.23
eigval :     1550.71  1572.49  1573.14  1576.86  1579.69  1591.61
eigval :     2327.00  3023.76  3023.99  3024.20  3024.70  3027.64
eigval :     3027.80  3028.13  3028.20  3031.71  3031.80  3033.73
eigval :     3033.74  3038.84  3039.20  3045.85  3046.58  3049.01
eigval :     3049.24  3049.95  3050.58  3052.97  3054.20  3078.72
eigval :     3079.60  3082.94  3083.18  3085.60  3086.06  3087.73
eigval :     3087.95  3089.35  3092.12  3093.42  3094.14  3097.16
eigval :     3097.84  3098.87  3099.59  3100.11  3101.05  3111.57
eigval :     3112.52  3121.03  3122.06

   temp. (K)  partition function   enthalpy   heat capacity  entropy
                                   cal/mol     cal/K/mol   cal/K/mol   J/K/mol
 298.15  VIB  0.603E+27            32772.659    198.786    206.127
         ROT  0.342E+09              888.752      2.981     42.031
         INT  0.206E+36            33661.411    201.767    248.159
         TR   0.226E+29             1481.254      4.968     45.958
         TOT                       35142.6654   206.7350   294.1169  1230.5849

       T/K    H(0)-H(T)+PV         H(T)/Eh          T*S/Eh         G(T)/Eh
   ------------------------------------------------------------------------
    298.15    0.560034E-01    0.887292E+00    0.139744E+00    0.747548E+00
   ------------------------------------------------------------------------

         :::::::::::::::::::::::::::::::::::::::::::::::::::::
         ::                  THERMODYNAMIC                  ::
         :::::::::::::::::::::::::::::::::::::::::::::::::::::
         :: total free energy        -162.915661490827 Eh   ::
         ::.................................................::
         :: total energy             -163.663209398877 Eh   ::
         :: zero point energy           0.831288914773 Eh   ::
         :: G(RRHO) w/o ZPVE           -0.083741006724 Eh   ::
         :: G(RRHO) contrib.            0.747547908049 Eh   ::
         :::::::::::::::::::::::::::::::::::::::::::::::::::::

           -------------------------------------------------
          | TOTAL ENERGY             -163.663209398877 Eh   |
          | TOTAL ENTHALPY           -162.775917082015 Eh   |
          | TOTAL FREE ENERGY        -162.915661490827 Eh   |
          | GRADIENT NORM               0.000089482693 Eh/α |
          | HOMO-LUMO GAP               0.596868572616 eV   |
           -------------------------------------------------

 * finished run on 2025/08/21 at 14:53:02.989
