   * xtb version 6.7.1 (edcfbbe) compiled by 'albert@albert-system' on 2024-07-22

   ID    Z sym.   atoms
    1    6 C      1-8, 10-16, 18-25, 27, 28, 30, 31, 33-36, 38-43, 45-48,
                  50-63
    2    7 N      9, 17, 26, 29, 32, 37, 44, 49
    3    1 H      64-107

          program call               : xtb data2507/toluene/Py-TPA/Py-TPA_toluene_S0_crest.xyz --gfn 2 --gbsa toluene --ohess vtight --parallel 40 --molden --ceasefiles --namespace data2507/toluene/Py-TPA/Py-TPA_toluene_S0_finalOpt
      * Solvation model:               GBSA
        Solvent                        toluene
        Solvent mass                       9.2140E+01 g/mol
          :  Hamiltonian                  GFN2-xTB          :
 * total energy  :  -163.7024432 Eh     change       -0.2389612E-08 Eh
 * total energy  :  -163.7025083 Eh     change       -0.6507883E-04 Eh
 * total energy  :  -163.7025150 Eh     change       -0.6706191E-05 Eh
 * total energy  :  -163.7025533 Eh     change       -0.3827332E-04 Eh
 * total energy  :  -163.7025669 Eh     change       -0.1366714E-04 Eh
 * total energy  :  -163.7025982 Eh     change       -0.3124735E-04 Eh
 * total energy  :  -163.7026202 Eh     change       -0.2201179E-04 Eh
 * total energy  :  -163.7026448 Eh     change       -0.2457874E-04 Eh
 * total energy  :  -163.7026615 Eh     change       -0.1668742E-04 Eh
 * total energy  :  -163.7026711 Eh     change       -0.9621854E-05 Eh
 * total energy  :  -163.7027355 Eh     change       -0.3446912E-05 Eh
 * total energy  :  -163.7027380 Eh     change       -0.2500580E-05 Eh
 * total energy  :  -163.7027400 Eh     change       -0.2030819E-05 Eh
 * total energy  :  -163.7027419 Eh     change       -0.1911272E-05 Eh
 * total energy  :  -163.7027436 Eh     change       -0.1641327E-05 Eh
 * total energy  :  -163.7027446 Eh     change       -0.1010842E-05 Eh
 * total energy  :  -163.7027452 Eh     change       -0.6192660E-06 Eh
 * total energy  :  -163.7027458 Eh     change       -0.6265120E-06 Eh
 * total energy  :  -163.7027458 Eh     change       -0.4035257E-08 Eh
   *** GEOMETRY OPTIMIZATION CONVERGED AFTER 44 ITERATIONS ***

 final structure:
================
107
 xtb: 6.7.1 (edcfbbe)
C          -11.59123176319165       -3.49390122242799       -1.61277035472930
C          -10.42664262936735       -3.92375911966760       -0.71530746463721
C           -9.76274214863100       -5.15560619453546       -1.34887878464082
C          -10.99589839797450       -4.29232777607952        0.66306440252787
C           -9.38250253854719       -2.83092802820826       -0.54595478291427
C           -8.26100187099277       -3.06674795645238        0.24791605341297
C           -7.28669170760293       -2.10840048408143        0.43521502002638
C           -7.39570993058233       -0.86506256893117       -0.18359713258551
N           -6.41502041363381        0.12517626584647        0.00184874342396
C           -5.07274504619785       -0.20464705890914        0.03252945792368
C           -4.16215084918815        0.55158606329070        0.78163558974110
C           -2.82909040086350        0.21455828472003        0.81480343750495
C           -2.34921461845336       -0.90112955550348        0.12377378523329
C           -0.93347631612417       -1.25872297262275        0.17748582814132
C            0.04630925289262       -0.29444048830802        0.10103596936939
C            1.40959997151727       -0.63525736572468        0.12008975048079
N            2.34127541321000        0.32895392722704        0.02498575962362
C            3.60950892821013       -0.03406636085395        0.02981862209546
C            4.62937018730322        0.98248861522456       -0.07958165502034
C            4.30855635996157        2.34105668413118       -0.18333484870103
C            5.31965702274505        3.26707169015563       -0.29273213099567
C            6.65034266367902        2.81691662041086       -0.29957332172947
C            7.78908562556795        3.73976461615460       -0.41815706611680
C            9.03356058374329        3.36888245093371        0.09318517009937
C           10.09254417757271        4.25205641376711       -0.02807967256813
N            9.99221522127037        5.43765252610872       -0.60907446027193
C            8.81578097373059        5.78572459646035       -1.10329673263886
C            7.68690980426072        4.98462266108430       -1.03816684752776
N            6.95784585671419        1.53460966549477       -0.18297665739004
C            5.99341786689622        0.62931157729055       -0.07613974090835
C            6.38131233547171       -0.76881351466554        0.04686211901557
N            7.67682116254876       -1.05521533117151        0.06133441539198
C            8.07428276041884       -2.31305278161602        0.17271354536073
C            9.52915661631700       -2.52579234864179        0.18605216022945
C           10.37047092845734       -1.57529441296116       -0.39421906389064
C           11.73693513771826       -1.79461420399467       -0.37269298105843
N           12.29701274992410       -2.86268702433370        0.17410644945329
C           11.50140206232574       -3.75856586718821        0.73443277258192
C           10.12086773634963       -3.64443494002935        0.77188448197449
C            7.16063464607258       -3.37729326942741        0.25475224690593
C            5.81435935758950       -3.09670825330180        0.24255931362183
C            5.39050437175624       -1.76588343607580        0.14655441511434
C            3.99216802940014       -1.40987392298865        0.13852039504455
N            3.08591114847776       -2.36597636621107        0.23366894288341
C            1.79492701112475       -2.00760195115139        0.22478430954768
C            0.79283416628829       -2.99051450245615        0.33363291282264
C           -0.53376245776958       -2.62554718934739        0.31382539428004
C           -1.49393758102144       -3.64501238149500        0.51501320888272
N           -2.22094554584319       -4.50894222570371        0.72163032981993
C           -3.25581474419020       -1.64778852205030       -0.63241118422350
C           -4.58672647111225       -1.30424612796890       -0.68556660267970
C           -6.83224730957663        1.45777822730297        0.16747424545401
C           -7.94470898605611        1.75929231775439        0.94550165313390
C           -8.36543867416980        3.06799446165483        1.09480199693145
C           -7.69531342726888        4.12159208359364        0.48307234270873
C           -8.12388631710990        5.57399795288617        0.62520083901647
C           -9.34892959471771        5.74176884461162        1.52921987410444
C           -8.47314553244908        6.13049575039091       -0.76340978876182
C           -6.96728464594905        6.38188213561861        1.23293675528777
C           -6.58342899174817        3.80425339907628       -0.29570564633182
C           -6.15636917747171        2.50258962902739       -0.45843725282168
C           -8.51007857656350       -0.61526246919722       -0.97734230402079
C           -9.48367592722755       -1.58212861959833       -1.14870421511386
H          -11.24471585377748       -3.24810364556197       -2.61406477621828
H          -12.30397205701178       -4.31204589954606       -1.69626029026446
H          -12.11286022240415       -2.63623556006189       -1.19394800824841
H           -8.96305339579133       -5.54176361955530       -0.72273473274334
H          -10.49730359387026       -5.94595608984333       -1.48893038300904
H           -9.34208952309998       -4.89973054282126       -2.31958529499758
H          -10.22129181593112       -4.67094744691488        1.32421006815540
H          -11.44676386723416       -3.41879815506054        1.13025098065319
H          -11.75929670652034       -5.06054609497923        0.55876414851194
H           -8.13829526137948       -4.01759888017998        0.74385944202013
H           -6.43517337146183       -2.32004966250262        1.06609276965273
H           -4.51686857974240        1.39741566534802        1.35119885467216
H           -2.14986854513410        0.79540150359313        1.42118011205371
H           -0.21316472927927        0.74748670850636       -0.00410107689550
H            3.26880647034803        2.63061134815521       -0.17305844354432
H            5.09500708588931        4.31974711348060       -0.35221013363682
H            9.14725745217812        2.40962959528649        0.57121781129355
H           11.07318803187823        4.00457920138364        0.35742113297204
H            8.77965439745636        6.75872398581530       -1.57658541953067
H            6.76225241004053        5.31894588376469       -1.48131797437027
H            9.94458297262762       -0.69493089873514       -0.84716759634748
H           12.42367662998761       -1.08367019220954       -0.81375907761639
H           12.00027754075073       -4.61116777085104        1.17744949352208
H            9.53049896423070       -4.40038410976845        1.26499032980653
H            7.50701130634127       -4.39685324013785        0.30631089309318
H            5.06970926817779       -3.87590338058282        0.30290170594666
H            1.08753345835373       -4.02353784737197        0.44371929946860
H           -2.90550262944188       -2.48450921332752       -1.21904334638862
H           -5.26442904770490       -1.88256087331531       -1.29508159287463
H           -8.48197025775796        0.96054850584597        1.43624378275810
H           -9.23134181217902        3.25083114907848        1.70949626515614
H           -9.14701447582818        5.37826080619692        2.53432663453510
H           -9.60480645940747        6.79719110025616        1.59941899607616
H          -10.21012419448405        5.21474792578823        1.12474365375919
H           -8.79862789626483        7.16540928739223       -0.68064487370097
H           -7.61700102161414        6.09561504349507       -1.43159098942247
H           -9.27835855761836        5.55022017991410       -1.21001203681029
H           -7.26398387611774        7.42080910364469        1.36116165301127
H           -6.08692924810554        6.35651881560126        0.59662955145666
H           -6.69663896385518        5.97775535094479        2.20663683532945
H           -6.03509550235470        4.58577233732188       -0.79953445180916
H           -5.29733079819487        2.28688596322552       -1.07752099842490
H           -8.61277834979595        0.34414092649682       -1.46378459320925
H          -10.32694876398410       -1.34116556657146       -1.77482585764238

          :  Hamiltonian                  GFN2-xTB          :
         :: gradient norm              0.000084866948 Eh/a0 ::
         :: HOMO-LUMO gap              0.622897366164 eV    ::
         :: SCC energy              -166.585002355987 Eh    ::
         :: -> dispersion             -0.142526463826 Eh    ::
         :: -> Gsolv                  -0.073129548952 Eh    ::
         :: repulsion energy           2.882256510133 Eh    ::

    * Orbital Energies and Occupations

         #    Occupation            Energy/Eh            Energy/eV
      -------------------------------------------------------------
         1        2.0000           -0.6988323             -19.0162
       ...           ...                  ...                  ...
       140        2.0000           -0.4143757             -11.2757
       141        2.0000           -0.4136932             -11.2572
       142        2.0000           -0.4115569             -11.1990
       143        2.0000           -0.4063597             -11.0576
       144        2.0000           -0.4048601             -11.0168
       145        2.0000           -0.4008377             -10.9073
       146        2.0000           -0.3984782             -10.8431
       147        2.0000           -0.3856713             -10.4947
       148        2.0000           -0.3848289             -10.4717
       149        2.0000           -0.3754542             -10.2166
       150        2.0000           -0.3749332             -10.2025
       151        2.0000           -0.3747582             -10.1977
       152        2.0000           -0.3527203              -9.5980 (HOMO)
       153        0.0000           -0.3298292              -8.9751 (LUMO)
       154                         -0.3055123              -8.3134
       155                         -0.2896579              -7.8820
       156                         -0.2813602              -7.6562
       157                         -0.2747982              -7.4776
       158                         -0.2511155              -6.8332
       159                         -0.2480507              -6.7498
       160                         -0.2430260              -6.6131
       161                         -0.2426705              -6.6034
       162                         -0.2348389              -6.3903
       163                         -0.2296728              -6.2497
       ...                                ...                  ...
       296                          1.1427428              31.0956
      -------------------------------------------------------------
                  HL-Gap            0.0228911 Eh            0.6229 eV

     #   Z          covCN         q      C6AA      α(0)
     1   6 C        3.761    -0.108    22.613     6.779
     2   6 C        3.902     0.026    20.088     6.371
     3   6 C        3.761    -0.105    22.562     6.771
     4   6 C        3.761    -0.106    22.565     6.772
     5   6 C        2.972     0.005    27.912     8.666
     6   6 C        2.927    -0.035    28.870     8.812
     7   6 C        2.920    -0.048    29.195     8.861
     8   6 C        2.925     0.059    26.681     8.471
     9   7 N        2.751    -0.068    22.561     7.055
    10   6 C        2.922     0.071    26.404     8.427
    11   6 C        2.920    -0.050    29.239     8.867
    12   6 C        2.923    -0.032    28.810     8.802
    13   6 C        2.976    -0.006    28.159     8.704
    14   6 C        2.974     0.022    27.503     8.602
    15   6 C        2.923    -0.051    29.266     8.872
    16   6 C        2.962     0.084    26.120     8.383
    17   7 N        1.848    -0.254    27.472     7.768
    18   6 C        2.957     0.085    26.101     8.380
    19   6 C        2.982    -0.019    28.465     8.752
    20   6 C        2.925    -0.013    28.329     8.728
    21   6 C        2.914    -0.043    29.061     8.840
    22   6 C        2.953     0.098    25.817     8.334
    23   6 C        2.989     0.024    27.464     8.596
    24   6 C        2.919    -0.035    28.879     8.812
    25   6 C        2.912     0.061    26.631     8.462
    26   7 N        1.835    -0.229    26.852     7.679
    27   6 C        2.912     0.060    26.664     8.467
    28   6 C        2.916    -0.043    29.078     8.843
    29   7 N        1.852    -0.227    26.800     7.673
    30   6 C        2.961     0.086    26.078     8.376
    31   6 C        2.961     0.085    26.096     8.379
    32   7 N        1.852    -0.227    26.802     7.673
    33   6 C        2.953     0.098    25.833     8.336
    34   6 C        2.989     0.024    27.467     8.597
    35   6 C        2.919    -0.036    28.885     8.813
    36   6 C        2.912     0.061    26.634     8.462
    37   7 N        1.835    -0.229    26.862     7.681
    38   6 C        2.912     0.060    26.665     8.467
    39   6 C        2.916    -0.044    29.081     8.843
    40   6 C        2.914    -0.043    29.058     8.840
    41   6 C        2.925    -0.013    28.343     8.731
    42   6 C        2.982    -0.018    28.462     8.751
    43   6 C        2.959     0.082    26.174     8.391
    44   7 N        1.848    -0.253    27.439     7.763
    45   6 C        2.966     0.082    26.165     8.390
    46   6 C        2.932    -0.033    28.829     8.806
    47   6 C        2.972     0.016    27.655     8.626
    48   6 C        1.916     0.125    28.041     8.552
    49   7 N        0.911    -0.257    26.668     7.469
    50   6 C        2.922    -0.029    28.733     8.790
    51   6 C        2.921    -0.049    29.209     8.863
    52   6 C        2.925     0.059    26.676     8.470
    53   6 C        2.921    -0.048    29.183     8.859
    54   6 C        2.925    -0.039    28.976     8.828
    55   6 C        2.972     0.005    27.912     8.666
    56   6 C        3.902     0.026    20.087     6.371
    57   6 C        3.761    -0.108    22.613     6.779
    58   6 C        3.761    -0.106    22.564     6.771
    59   6 C        3.761    -0.106    22.565     6.772
    60   6 C        2.927    -0.035    28.881     8.813
    61   6 C        2.920    -0.049    29.205     8.862
    62   6 C        2.921    -0.048    29.201     8.862
    63   6 C        2.925    -0.040    28.984     8.829
    64   1 H        0.925     0.036     2.496     2.471
    65   1 H        0.925     0.038     2.469     2.457
    66   1 H        0.925     0.037     2.489     2.467
    67   1 H        0.925     0.037     2.488     2.467
    68   1 H        0.925     0.040     2.454     2.450
    69   1 H        0.925     0.033     2.547     2.496
    70   1 H        0.925     0.037     2.488     2.467
    71   1 H        0.925     0.033     2.537     2.491
    72   1 H        0.925     0.040     2.453     2.449
    73   1 H        0.926     0.036     2.506     2.475
    74   1 H        0.926     0.030     2.587     2.515
    75   1 H        0.926     0.042     2.421     2.433
    76   1 H        0.926     0.040     2.444     2.445
    77   1 H        0.926     0.064     2.152     2.294
    78   1 H        0.926     0.066     2.125     2.280
    79   1 H        0.926     0.059     2.206     2.323
    80   1 H        0.926     0.063     2.165     2.301
    81   1 H        0.925     0.046     2.369     2.407
    82   1 H        0.925     0.045     2.384     2.414
    83   1 H        0.926     0.048     2.340     2.392
    84   1 H        0.926     0.063     2.161     2.299
    85   1 H        0.925     0.046     2.370     2.407
    86   1 H        0.925     0.045     2.388     2.417
    87   1 H        0.926     0.048     2.348     2.396
    88   1 H        0.926     0.058     2.218     2.329
    89   1 H        0.926     0.064     2.150     2.293
    90   1 H        0.926     0.061     2.191     2.315
    91   1 H        0.926     0.031     2.570     2.507
    92   1 H        0.926     0.040     2.443     2.444
    93   1 H        0.926     0.032     2.560     2.502
    94   1 H        0.926     0.043     2.404     2.425
    95   1 H        0.925     0.036     2.496     2.471
    96   1 H        0.925     0.038     2.470     2.458
    97   1 H        0.925     0.037     2.491     2.468
    98   1 H        0.925     0.040     2.453     2.449
    99   1 H        0.925     0.037     2.488     2.467
   100   1 H        0.925     0.033     2.538     2.491
   101   1 H        0.925     0.040     2.455     2.450
   102   1 H        0.925     0.037     2.487     2.466
   103   1 H        0.925     0.033     2.543     2.494
   104   1 H        0.926     0.036     2.502     2.474
   105   1 H        0.926     0.031     2.573     2.509
   106   1 H        0.926     0.032     2.559     2.502
   107   1 H        0.926     0.043     2.405     2.425

molecular dipole:
                 x           y           z       tot (Debye)
 q only:       -2.339       1.321      -0.189
   full:       -3.306       1.130      -0.194       8.894

 projected vibrational frequencies (cm⁻¹)
eigval :       -0.00    -0.00     0.00     0.00     0.00     0.00
eigval :        6.41     8.13     9.44    20.90    22.48    27.18
eigval :       28.72    31.17    33.53    36.36    37.77    38.32
eigval :       46.02    50.57    61.05    64.00    70.96    79.50
eigval :       93.33    94.03    98.44   103.78   108.84   111.76
eigval :      121.77   126.53   141.74   149.68   166.53   168.77
eigval :      176.20   180.38   181.21   201.84   206.73   213.46
eigval :      222.02   227.03   231.34   238.96   240.39   247.05
eigval :      250.91   259.05   282.30   293.88   306.86   310.92
eigval :      313.19   314.49   321.56   328.79   331.08   332.80
eigval :      343.54   347.22   354.39   358.74   368.34   378.04
eigval :      379.79   380.62   381.77   382.96   391.06   392.50
eigval :      403.94   410.96   416.37   420.19   427.61   434.74
eigval :      438.69   445.50   452.57   458.24   465.78   480.44
eigval :      488.61   500.57   506.22   512.88   526.45   532.34
eigval :      538.08   558.18   566.24   580.67   583.33   593.20
eigval :      598.76   602.66   606.69   608.52   611.10   622.36
eigval :      626.84   628.82   644.91   651.57   661.21   675.07
eigval :      681.73   687.67   690.73   699.11   700.75   703.21
eigval :      710.52   717.84   722.38   726.14   731.50   748.80
eigval :      765.93   773.14   788.51   795.05   797.54   813.25
eigval :      816.46   818.64   835.91   840.38   847.44   850.26
eigval :      864.05   869.93   872.37   873.81   874.89   881.19
eigval :      882.30   883.51   891.83   911.81   914.74   915.80
eigval :      915.87   917.95   922.13   923.51   925.06   926.03
eigval :      926.39   926.60   928.76   931.97   932.53   958.88
eigval :      959.19   961.86   962.14   962.85   963.04   963.28
eigval :      983.58   999.74  1004.73  1012.21  1025.30  1033.87
eigval :     1034.01  1034.48  1034.68  1036.87  1063.42  1069.51
eigval :     1091.15  1092.51  1098.54  1103.25  1110.80  1115.71
eigval :     1140.21  1141.81  1142.41  1143.44  1146.21  1151.82
eigval :     1152.57  1161.73  1188.36  1196.29  1200.61  1201.31
eigval :     1202.85  1208.34  1214.94  1225.02  1225.17  1225.29
eigval :     1231.89  1232.14  1240.17  1254.03  1260.07  1260.60
eigval :     1264.38  1270.85  1272.74  1276.62  1276.72  1277.02
eigval :     1280.86  1283.00  1289.91  1292.74  1304.11  1309.94
eigval :     1310.43  1312.91  1320.33  1322.41  1329.16  1332.77
eigval :     1351.85  1362.26  1366.37  1370.88  1379.52  1396.80
eigval :     1399.58  1400.95  1402.69  1402.89  1407.13  1412.02
eigval :     1413.56  1417.40  1423.55  1426.77  1426.96  1434.03
eigval :     1451.59  1454.52  1464.87  1473.60  1482.70  1485.13
eigval :     1485.50  1488.29  1488.80  1491.76  1492.03  1492.18
eigval :     1499.72  1499.87  1503.06  1503.76  1510.67  1511.17
eigval :     1511.54  1516.80  1517.00  1529.76  1531.57  1541.63
eigval :     1547.03  1551.64  1553.25  1564.34  1564.83  1566.80
eigval :     1569.67  1574.98  1576.16  1593.67  1598.98  1602.91
eigval :     2357.43  3020.16  3020.64  3020.97  3021.51  3024.37
eigval :     3024.79  3025.30  3026.01  3028.22  3028.59  3031.22
eigval :     3031.61  3036.34  3036.76  3044.51  3045.22  3047.28
eigval :     3048.18  3053.34  3054.47  3056.00  3057.97  3074.19
eigval :     3074.33  3078.50  3078.83  3080.27  3080.95  3088.89
eigval :     3090.09  3091.34  3092.42  3093.22  3094.05  3095.57
eigval :     3096.65  3096.69  3103.10  3105.80  3106.25  3112.81
eigval :     3114.51  3114.62  3115.48

   temp. (K)  partition function   enthalpy   heat capacity  entropy
                                   cal/mol     cal/K/mol   cal/K/mol   J/K/mol
 298.15  VIB  0.323E+27            32608.360    197.769    204.949
         ROT  0.341E+09              888.752      2.981     42.028
         INT  0.110E+36            33497.112    200.749    246.977
         TR   0.226E+29             1481.254      4.968     45.958
         TOT                       34978.3664   205.7176   292.9349  1225.6394

       T/K    H(0)-H(T)+PV         H(T)/Eh          T*S/Eh         G(T)/Eh
   ------------------------------------------------------------------------
    298.15    0.557416E-01    0.889874E+00    0.139183E+00    0.750691E+00
   ------------------------------------------------------------------------

         :::::::::::::::::::::::::::::::::::::::::::::::::::::
         ::                  THERMODYNAMIC                  ::
         :::::::::::::::::::::::::::::::::::::::::::::::::::::
         :: total free energy        -162.952055095223 Eh   ::
         ::.................................................::
         :: total energy             -163.702745850611 Eh   ::
         :: zero point energy           0.834131982599 Eh   ::
         :: G(RRHO) w/o ZPVE           -0.083441227211 Eh   ::
         :: G(RRHO) contrib.            0.750690755388 Eh   ::
         :::::::::::::::::::::::::::::::::::::::::::::::::::::

           -------------------------------------------------
          | TOTAL ENERGY             -163.702745850611 Eh   |
          | TOTAL ENTHALPY           -162.812872293064 Eh   |
          | TOTAL FREE ENERGY        -162.952055095223 Eh   |
          | GRADIENT NORM               0.000084965569 Eh/α |
          | HOMO-LUMO GAP               0.622897431078 eV   |
           -------------------------------------------------

 * finished run on 2025/08/21 at 14:31:04.082
