   * xtb version 6.7.1 (edcfbbe) compiled by 'albert@albert-system' on 2024-07-22

   ID    Z sym.   atoms
    1    6 C      1-7, 9-13, 15-20, 22-27, 29, 30, 32, 34-39, 41-50, 52-62
    2    7 N      8, 14, 28, 31, 33, 51
    3    8 O      21, 40
    4    1 H      63-94

          program call               : xtb data2507/toluene/BPZPP/BPZPP_toluene_S0_finalOpt.xtbopt.xyz --gfn 2 --uhf 2 --gbsa toluene --ohess vtight --parallel 40 --molden --ceasefiles --namespace data2507/toluene/BPZPP/BPZPP_toluene_T1_preOpt
      * Solvation model:               GBSA
        Solvent                        toluene
        Solvent mass                       9.2140E+01 g/mol
          :  Hamiltonian                  GFN2-xTB          :
 * total energy  :  -157.7384500 Eh     change       -0.1839550E-07 Eh
 * total energy  :  -157.7409800 Eh     change       -0.2529999E-02 Eh
 * total energy  :  -157.7418565 Eh     change       -0.8765414E-03 Eh
 * total energy  :  -157.7419728 Eh     change       -0.1162507E-03 Eh
 * total energy  :  -157.7420436 Eh     change       -0.7077903E-04 Eh
 * total energy  :  -157.7420634 Eh     change       -0.1984614E-04 Eh
 * total energy  :  -157.7420966 Eh     change       -0.3319783E-04 Eh
 * total energy  :  -157.7421251 Eh     change       -0.2850874E-04 Eh
 * total energy  :  -157.7421584 Eh     change       -0.3331766E-04 Eh
 * total energy  :  -157.7421826 Eh     change       -0.2419432E-04 Eh
 * total energy  :  -157.7427136 Eh     change       -0.1790758E-05 Eh
 * total energy  :  -157.7427154 Eh     change       -0.1794736E-05 Eh
 * total energy  :  -157.7427171 Eh     change       -0.1647277E-05 Eh
 * total energy  :  -157.7427185 Eh     change       -0.1396374E-05 Eh
 * total energy  :  -157.7427198 Eh     change       -0.1322572E-05 Eh
 * total energy  :  -157.7427212 Eh     change       -0.1417348E-05 Eh
 * total energy  :  -157.7427230 Eh     change       -0.1743227E-05 Eh
 * total energy  :  -157.7427250 Eh     change       -0.2060220E-05 Eh
 * total energy  :  -157.7427250 Eh     change       -0.4283464E-08 Eh
   *** GEOMETRY OPTIMIZATION CONVERGED AFTER 122 ITERATIONS ***

 final structure:
================
94
 xtb: 6.7.1 (edcfbbe)
C            9.83505926554631        3.06794208955394        0.46158925142372
C            8.88530725200831        3.36829795399474       -0.50082661502870
C            7.72918468085908        2.61540560101277       -0.59471211129264
C            7.50961993683566        1.54257837722846        0.26650102559845
C            6.26885727354339        0.75553616196057        0.17124844484959
C            5.05396559411867        1.42685075888179        0.12941296065085
C            3.83738671495089        0.74994199279185        0.08433136914082
N            2.66635482574348        1.39509894925565        0.05316452525408
C            1.52063520578640        0.72205326247346        0.01332977974554
C            0.27463931753196        1.40666588523175       -0.02838090980324
C            0.20983346750615        2.81256552275198       -0.01408027510036
C           -1.00418915578672        3.44108940882112       -0.02638459029005
C           -2.17019881474304        2.63992461697224       -0.04524022631898
N           -3.42657823196199        3.26364663350418        0.01316557577972
C           -4.36832678363131        2.93541823992917        0.99580541909885
C           -4.27883580949305        1.78666445312997        1.77475762403262
C           -5.20767047663097        1.53284610552400        2.76917710584953
C           -6.24794924791874        2.41585578084090        3.00234583449526
C           -6.35768529654078        3.56127350808322        2.23258189154053
C           -5.42631699790009        3.82585396247914        1.24102462224395
O           -5.58655500001910        4.99135891201888        0.53851619389754
C           -4.78401994561694        5.18440560669628       -0.55104463208923
C           -5.07132581769464        6.26269596221466       -1.37295191260701
C           -4.30880195521641        6.49518601617865       -2.50504842675573
C           -3.27662268951467        5.63025083563234       -2.82763396900505
C           -2.98442450181269        4.55307624488498       -2.00973184698040
C           -3.71017828239279        4.32986382141647       -0.84207180043018
N           -2.13409600207647        1.33020668084998       -0.08205524481791
C           -0.95530742017409        0.69765420444237       -0.07887646289085
C           -0.93886951123128       -0.73511214158705       -0.12537127500842
N           -2.09951988717383       -1.38462148953601       -0.25404010772620
C           -2.12386287847103       -2.69943477444692       -0.28942876856958
N           -3.34647418756369       -3.33057765850514       -0.42969528210423
C           -4.57003475885848       -2.78664441667905        0.01840811070656
C           -4.85599120438952       -1.42683724827525        0.02966585437522
C           -6.07195355319569       -0.97500843963342        0.51577036131538
C           -7.01760561242154       -1.86385699906555        0.99521645503709
C           -6.75715744756843       -3.22283357607176        0.96734859061081
C           -5.54622244362972       -3.68293660922712        0.47586825946119
O           -5.35356356940428       -5.04530782005101        0.45067017642096
C           -4.43016571554343       -5.48872176021193       -0.45721667425306
C           -4.52034850033948       -6.79828377569318       -0.90408001124787
C           -3.63246498053537       -7.26325984119886       -1.85847819892928
C           -2.68390753234701       -6.40805005782497       -2.39467013113886
C           -2.58797467064148       -5.10229316298923       -1.94724291552774
C           -3.42941901614041       -4.63860783283535       -0.94049224554903
C           -0.94063050519461       -3.47235283183340       -0.13994032617908
C            0.25559934025712       -2.82299139008983       -0.03929512093002
C            0.30133395860652       -1.41531591646394       -0.05446668641904
C            1.53450182320322       -0.70811036320349        0.01499246179525
N            2.69021413087167       -1.35772312603728        0.06794169198149
C            3.85072044395389       -0.69057808329567        0.09510847963028
C            5.07851217022236       -1.34525858214363        0.13455719621627
C            6.28210764112417       -0.65211235864667        0.16117948490415
C            7.53950959584955       -1.41713209170677        0.13011079526996
C            8.53854419664224       -1.11244738378125       -0.79217974897218
C            9.70746901720307       -1.84919088809973       -0.82946374839983
C            9.89840728548624       -2.90078121037320        0.05225887670504
C            8.90768941265987       -3.21756853229229        0.96692240905896
C            7.73485310007393       -2.48573203234546        1.00235674598981
C            8.46749188987371        1.25396926316291        1.23632149073487
C            9.61961578857871        2.01166096523741        1.33192427052546
H           10.73798321982017        3.65629739064119        0.53481551449970
H            9.04631752303805        4.19143905816979       -1.18230776953569
H            6.99448132545394        2.84306262218431       -1.35440501650040
H            5.03022240064301        2.50625376500993        0.15358073717767
H            1.13590156747800        3.36676599947678        0.02648010145209
H           -1.08491403857143        4.51606383656674        0.01087362886582
H           -3.48286621756374        1.08659238991364        1.58416469265049
H           -5.11322774236392        0.63376918358687        3.35746167864215
H           -6.97257725916751        2.21796471285339        3.77595129783415
H           -7.15308111972336        4.27283683387866        2.38729188788969
H           -5.89559133363398        6.90423863380036       -1.10535109142595
H           -4.53232186808978        7.33932424085173       -3.13766074396718
H           -2.69455272967089        5.78726073072840       -3.72223742834157
H           -2.18978580548728        3.87333277993835       -2.27503913510050
H           -4.11045522538280       -0.73320533209309       -0.31858007106267
H           -6.27231913942015        0.08448111205337        0.52151711701947
H           -7.95897434269366       -1.50662544601914        1.38206521457013
H           -7.47453990600360       -3.94587219318568        1.32225371518876
H           -5.28986304740833       -7.43117644926099       -0.49155072096854
H           -3.69751616421400       -8.28537310872364       -2.19651140583073
H           -2.01369300545923       -6.75416778472924       -3.16598666947108
H           -1.85461060188382       -4.43354691661292       -2.37158426603540
H           -0.99340661247510       -4.54726299085763       -0.07583235620626
H            1.18399662421042       -3.36361250341369        0.07268405993350
H            5.07582962639901       -2.42497065800103        0.10962324556926
H            8.38880524672524       -0.30082737902000       -1.48917025682790
H           10.47293117971386       -1.60215539399424       -1.55098559246844
H           10.81437276729508       -3.47270918396618        0.02499698920244
H            9.04945496449725       -4.03745250141595        1.65657881653727
H            6.96723709532301       -2.72641521891755        1.72462109049099
H            8.29855801211813        0.43843091281127        1.92428427091426
H           10.35247397995486        1.77729085967161        2.09052916085493

          :  Hamiltonian                  GFN2-xTB          :
         :: gradient norm              0.000046254759 Eh/a0 ::
         :: HOMO-LUMO gap              0.757606308718 eV    ::
         :: SCC energy              -160.494811863453 Eh    ::
         :: -> dispersion             -0.142840580546 Eh    ::
         :: -> Gsolv                  -0.065710367090 Eh    ::
         :: repulsion energy           2.752086832096 Eh    ::

    * Orbital Energies and Occupations

         #    Occupation            Energy/Eh            Energy/eV
      -------------------------------------------------------------
         1        2.0000           -0.7459418             -20.2981
       ...           ...                  ...                  ...
       134        2.0000           -0.4079380             -11.1006
       135        2.0000           -0.4042140             -10.9992
       136        2.0000           -0.4031639             -10.9706
       137        2.0000           -0.4015531             -10.9268
       138        2.0000           -0.3978919             -10.8272
       139        2.0000           -0.3859356             -10.5018
       140        2.0000           -0.3854730             -10.4893
       141        2.0000           -0.3822879             -10.4026
       142        2.0000           -0.3743567             -10.1868
       143        1.9440           -0.3596010              -9.7852
       144        1.8315           -0.3584346              -9.7535
       145        1.2246           -0.3557407              -9.6802
       146        1.0000           -0.3059902              -8.3264 (HOMO)
       147        0.0000           -0.2781491              -7.5688 (LUMO)
       148                         -0.2736785              -7.4472
       149                         -0.2514518              -6.8424
       150                         -0.2450694              -6.6687
       151                         -0.2434733              -6.6252
       152                         -0.2417769              -6.5791
       153                         -0.2407328              -6.5507
       154                         -0.2361362              -6.4256
       155                         -0.2283342              -6.2133
       156                         -0.2265558              -6.1649
       157                         -0.2252582              -6.1296
       ...                                ...                  ...
       280                          0.7083745              19.2759
      -------------------------------------------------------------
                  HL-Gap            0.0278411 Eh            0.7576 eV

     #   Z          covCN         q      C6AA      α(0)
     1   6 C        2.920    -0.032    28.801     8.801
     2   6 C        2.918    -0.031    28.764     8.795
     3   6 C        2.925    -0.035    28.877     8.812
     4   6 C        2.978     0.013    27.728     8.638
     5   6 C        2.975    -0.000    28.024     8.684
     6   6 C        2.924    -0.066    29.643     8.929
     7   6 C        2.942     0.085    26.117     8.382
     8   7 N        1.848    -0.260    27.622     7.789
     9   6 C        2.941     0.076    26.299     8.411
    10   6 C        2.982    -0.028    28.692     8.787
    11   6 C        2.926    -0.016    28.411     8.741
    12   6 C        2.913    -0.062    29.537     8.912
    13   6 C        2.900     0.146    24.825     8.169
    14   7 N        2.754    -0.051    22.226     7.002
    15   6 C        2.921     0.047    26.944     8.512
    16   6 C        2.922    -0.053    29.326     8.880
    17   6 C        2.919    -0.032    28.792     8.799
    18   6 C        2.919    -0.032    28.805     8.801
    19   6 C        2.918    -0.054    29.330     8.881
    20   6 C        2.887     0.127    25.217     8.233
    21   8 O        1.709    -0.241    17.991     5.727
    22   6 C        2.886     0.129    25.179     8.227
    23   6 C        2.918    -0.053    29.324     8.880
    24   6 C        2.919    -0.032    28.804     8.801
    25   6 C        2.918    -0.033    28.831     8.805
    26   6 C        2.922    -0.051    29.270     8.872
    27   6 C        2.926     0.043    27.027     8.526
    28   7 N        1.847    -0.244    27.207     7.730
    29   6 C        2.964     0.074    26.353     8.420
    30   6 C        2.959     0.077    26.277     8.408
    31   7 N        1.849    -0.258    27.573     7.782
    32   6 C        2.890     0.151    24.730     8.153
    33   7 N        2.755    -0.057    22.349     7.021
    34   6 C        2.926     0.044    27.010     8.523
    35   6 C        2.920    -0.056    29.380     8.889
    36   6 C        2.920    -0.035    28.865     8.810
    37   6 C        2.919    -0.034    28.837     8.806
    38   6 C        2.918    -0.054    29.352     8.884
    39   6 C        2.897     0.124    25.274     8.243
    40   8 O        1.708    -0.256    18.236     5.766
    41   6 C        2.896     0.129    25.184     8.228
    42   6 C        2.917    -0.054    29.336     8.882
    43   6 C        2.920    -0.033    28.817     8.803
    44   6 C        2.918    -0.036    28.889     8.814
    45   6 C        2.922    -0.049    29.210     8.863
    46   6 C        2.931     0.039    27.121     8.541
    47   6 C        2.913    -0.066    29.646     8.928
    48   6 C        2.925    -0.017    28.439     8.745
    49   6 C        2.982    -0.032    28.780     8.800
    50   6 C        2.941     0.080    26.215     8.397
    51   7 N        1.848    -0.260    27.601     7.786
    52   6 C        2.942     0.084    26.126     8.383
    53   6 C        2.924    -0.065    29.630     8.927
    54   6 C        2.975    -0.001    28.037     8.686
    55   6 C        2.978     0.013    27.726     8.637
    56   6 C        2.924    -0.032    28.796     8.800
    57   6 C        2.918    -0.030    28.753     8.793
    58   6 C        2.920    -0.032    28.804     8.801
    59   6 C        2.918    -0.031    28.764     8.795
    60   6 C        2.925    -0.035    28.877     8.813
    61   6 C        2.924    -0.032    28.793     8.800
    62   6 C        2.918    -0.030    28.752     8.793
    63   1 H        0.926     0.033     2.537     2.491
    64   1 H        0.926     0.033     2.540     2.492
    65   1 H        0.926     0.030     2.589     2.516
    66   1 H        0.926     0.042     2.422     2.434
    67   1 H        0.926     0.054     2.270     2.356
    68   1 H        0.926     0.047     2.362     2.403
    69   1 H        0.926     0.065     2.138     2.287
    70   1 H        0.926     0.052     2.292     2.367
    71   1 H        0.926     0.057     2.230     2.335
    72   1 H        0.926     0.063     2.166     2.302
    73   1 H        0.926     0.063     2.161     2.299
    74   1 H        0.926     0.057     2.233     2.337
    75   1 H        0.926     0.053     2.278     2.360
    76   1 H        0.926     0.043     2.408     2.426
    77   1 H        0.926     0.088     1.894     2.152
    78   1 H        0.926     0.050     2.323     2.383
    79   1 H        0.926     0.054     2.268     2.355
    80   1 H        0.926     0.058     2.219     2.330
    81   1 H        0.926     0.061     2.190     2.314
    82   1 H        0.926     0.056     2.251     2.346
    83   1 H        0.926     0.053     2.288     2.365
    84   1 H        0.926     0.045     2.381     2.413
    85   1 H        0.926     0.044     2.391     2.418
    86   1 H        0.926     0.050     2.320     2.382
    87   1 H        0.926     0.042     2.424     2.435
    88   1 H        0.926     0.027     2.624     2.533
    89   1 H        0.926     0.032     2.554     2.499
    90   1 H        0.926     0.033     2.538     2.491
    91   1 H        0.926     0.033     2.543     2.494
    92   1 H        0.926     0.030     2.593     2.518
    93   1 H        0.926     0.027     2.623     2.533
    94   1 H        0.926     0.032     2.554     2.499

molecular dipole:
                 x           y           z       tot (Debye)
 q only:       -2.870       0.416      -0.339
   full:       -1.991       0.389      -0.298       5.212

 projected vibrational frequencies (cm⁻¹)
eigval :       -0.00    -0.00    -0.00    -0.00    -0.00     0.00
eigval :        8.25     9.35    14.80    18.92    24.77    28.48
eigval :       36.70    40.62    44.73    50.07    57.90    63.50
eigval :       65.08    75.24    79.32    86.27    95.40    99.20
eigval :      102.96   110.84   116.14   134.84   139.74   142.44
eigval :      161.99   182.86   188.31   205.45   211.63   222.33
eigval :      236.09   239.12   247.21   250.52   252.47   269.53
eigval :      279.94   292.32   296.19   299.84   312.55   322.26
eigval :      337.76   357.55   371.02   374.70   377.27   377.99
eigval :      389.75   396.38   397.42   410.89   413.92   416.97
eigval :      426.94   428.89   436.54   442.58   446.38   452.42
eigval :      458.64   472.17   483.00   489.37   500.73   503.02
eigval :      510.07   518.37   526.17   529.43   534.30   541.60
eigval :      556.76   560.62   572.09   576.33   578.91   586.69
eigval :      590.21   592.88   596.93   613.87   615.98   625.74
eigval :      626.20   640.66   647.35   653.16   659.23   665.53
eigval :      670.42   672.55   674.86   677.28   686.88   690.99
eigval :      695.20   697.28   702.64   719.92   726.65   735.00
eigval :      760.68   761.71   771.61   781.09   781.65   783.99
eigval :      786.91   804.72   814.82   820.75   823.62   826.64
eigval :      828.90   853.90   856.19   856.69   869.21   875.59
eigval :      876.76   877.80   878.51   879.50   899.81   902.03
eigval :      902.65   904.00   905.13   908.94   909.79   912.99
eigval :      916.22   917.08   917.56   919.73   922.42   922.48
eigval :      924.90   926.44   928.95   929.93   932.80   934.09
eigval :      961.87   971.78   995.39  1005.07  1067.11  1072.68
eigval :     1076.26  1082.08  1082.83  1084.27  1084.57  1086.07
eigval :     1086.99  1102.61  1108.00  1117.38  1118.40  1120.03
eigval :     1120.95  1133.25  1142.41  1164.13  1166.25  1170.92
eigval :     1171.49  1177.29  1179.72  1180.21  1182.39  1193.59
eigval :     1195.95  1198.86  1199.47  1203.35  1205.79  1215.68
eigval :     1231.91  1234.79  1235.67  1239.21  1239.62  1245.99
eigval :     1246.72  1250.13  1264.12  1269.49  1276.10  1278.21
eigval :     1281.13  1283.54  1293.15  1297.53  1303.92  1310.89
eigval :     1314.71  1315.03  1316.37  1317.29  1327.01  1336.33
eigval :     1338.10  1345.18  1356.44  1376.34  1383.67  1394.27
eigval :     1401.85  1417.39  1422.98  1426.86  1429.33  1435.36
eigval :     1438.94  1442.89  1450.07  1452.42  1457.15  1465.10
eigval :     1470.94  1476.54  1479.44  1480.05  1488.29  1499.95
eigval :     1505.37  1534.75  1539.67  1552.84  1561.15  1566.62
eigval :     1567.17  1571.07  1574.47  1578.26  1578.56  1580.27
eigval :     1587.24  1590.06  1595.80  1597.18  3065.13  3065.39
eigval :     3068.60  3069.08  3074.59  3075.06  3079.29  3080.77
eigval :     3080.97  3082.07  3082.67  3083.66  3089.25  3089.53
eigval :     3089.78  3093.85  3094.33  3096.22  3096.43  3096.73
eigval :     3100.15  3100.76  3103.75  3103.94  3104.41  3106.94
eigval :     3110.76  3112.09  3112.87  3114.41  3126.02  3137.37

   temp. (K)  partition function   enthalpy   heat capacity  entropy
                                   cal/mol     cal/K/mol   cal/K/mol   J/K/mol
 298.15  VIB  0.380E+22            27851.229    178.035    172.836
         ROT  0.213E+09              888.752      2.981     41.086
         INT  0.808E+30            28739.982    181.016    213.923
         TR   0.218E+29             1481.254      4.968     45.884
         TOT                       30221.2356   185.9841   259.8065  1087.0304

       T/K    H(0)-H(T)+PV         H(T)/Eh          T*S/Eh         G(T)/Eh
   ------------------------------------------------------------------------
    298.15    0.481606E-01    0.742517E+00    0.123442E+00    0.619074E+00
   ------------------------------------------------------------------------

         :::::::::::::::::::::::::::::::::::::::::::::::::::::
         ::                  THERMODYNAMIC                  ::
         :::::::::::::::::::::::::::::::::::::::::::::::::::::
         :: total free energy        -157.123650573173 Eh   ::
         ::.................................................::
         :: total energy             -157.742725027910 Eh   ::
         :: zero point energy           0.694356300784 Eh   ::
         :: G(RRHO) w/o ZPVE           -0.075281846046 Eh   ::
         :: G(RRHO) contrib.            0.619074454737 Eh   ::
         :::::::::::::::::::::::::::::::::::::::::::::::::::::

           -------------------------------------------------
          | TOTAL ENERGY             -157.742725027910 Eh   |
          | TOTAL ENTHALPY           -157.000208122691 Eh   |
          | TOTAL FREE ENERGY        -157.123650573173 Eh   |
          | GRADIENT NORM               0.000048343319 Eh/α |
          | HOMO-LUMO GAP               0.757595600071 eV   |
           -------------------------------------------------

 * finished run on 2025/09/11 at 10:37:34.948
