   * xtb version 6.7.1 (edcfbbe) compiled by 'albert@albert-system' on 2024-07-22

   ID    Z sym.   atoms
    1    6 C      1-7, 9-13, 15-20, 22-27, 29, 30, 32, 34-39, 41-50, 52-62
    2    7 N      8, 14, 28, 31, 33, 51
    3    8 O      21, 40
    4    1 H      63-94

          program call               : xtb data2507/toluene/BPZPP/BPZPP.xyz --gfn 2 --gbsa toluene --ohess vtight --parallel 40 --molden --ceasefiles --namespace data2507/toluene/BPZPP/BPZPP_toluene_S0_preOpt
      * Solvation model:               GBSA
        Solvent                        toluene
        Solvent mass                       9.2140E+01 g/mol
          :  Hamiltonian                  GFN2-xTB          :
 * total energy  :  -157.7467801 Eh     change       -0.3017988E-08 Eh
 * total energy  :  -157.7689566 Eh     change       -0.2217645E-01 Eh
 * total energy  :  -157.7763098 Eh     change       -0.7353208E-02 Eh
 * total energy  :  -157.7789458 Eh     change       -0.2636031E-02 Eh
 * total energy  :  -157.7810256 Eh     change       -0.2079781E-02 Eh
 * total energy  :  -157.7820504 Eh     change       -0.1024811E-02 Eh
 * total energy  :  -157.7825491 Eh     change       -0.4986424E-03 Eh
 * total energy  :  -157.7828830 Eh     change       -0.3339566E-03 Eh
 * total energy  :  -157.7832307 Eh     change       -0.3476737E-03 Eh
 * total energy  :  -157.7835954 Eh     change       -0.3647299E-03 Eh
 * total energy  :  -157.7908869 Eh     change       -0.7624862E-06 Eh
 * total energy  :  -157.7908876 Eh     change       -0.7416793E-06 Eh
 * total energy  :  -157.7908883 Eh     change       -0.6841398E-06 Eh
 * total energy  :  -157.7908890 Eh     change       -0.6807567E-06 Eh
 * total energy  :  -157.7908896 Eh     change       -0.6331235E-06 Eh
 * total energy  :  -157.7908901 Eh     change       -0.4647379E-06 Eh
 * total energy  :  -157.7908904 Eh     change       -0.3389293E-06 Eh
 * total energy  :  -157.7908906 Eh     change       -0.2398391E-06 Eh
 * total energy  :  -157.7908906 Eh     change       -0.2067395E-08 Eh
   *** GEOMETRY OPTIMIZATION CONVERGED AFTER 152 ITERATIONS ***

 final structure:
================
94
 xtb: 6.7.1 (edcfbbe)
C            9.57871330203046        3.01275194275889       -0.04356143927768
C            8.64599102433760        3.18254300719886       -1.05332372405886
C            7.47733324144823        2.44290263138553       -1.05041376859829
C            7.23298592817107        1.51246453622778       -0.04366681857551
C            5.97801477199745        0.73933957111278       -0.03674811239835
C            4.78281904636362        1.40515410784424       -0.14768337642585
C            3.55688013664272        0.71591592255300       -0.08684180139565
N            2.40109641644970        1.39187183386765       -0.18369088440647
C            1.27731723047897        0.70016950177396       -0.11082524753583
C            0.01945423958062        1.39661190128755       -0.18156780759467
C           -0.04582619174144        2.79631900170246       -0.28668728629700
C           -1.26391257916462        3.41986500540155       -0.30875715959706
C           -2.42872604441300        2.62688677170844       -0.20485239403476
N           -3.67261534309524        3.23602797896091       -0.13825816609194
C           -4.65741746315911        2.86370314731404        0.80179783524086
C           -4.71150526453275        1.60839930780203        1.39186802861545
C           -5.66013078936862        1.32469321921824        2.36156784565732
C           -6.58097838212016        2.28097691126553        2.74456570762547
C           -6.55186166340179        3.53260032543885        2.15171910987978
C           -5.59613283205284        3.82691735035356        1.19379720984678
O           -5.61735941180962        5.09950651305754        0.66983257308019
C           -4.90270123367292        5.29534190057512       -0.48289796953155
C           -5.17107224095667        6.43538623094712       -1.22346218500228
C           -4.49565915032529        6.66671040597906       -2.41037801958937
C           -3.58012410524916        5.73810579259075       -2.87180140774340
C           -3.31202749407728        4.59669849449302       -2.13492884871076
C           -3.93885868475594        4.37813096110369       -0.91296785700522
N           -2.37499399280478        1.30875099681462       -0.13064409662826
C           -1.19518226027493        0.69258409807522       -0.11986023230037
C           -1.18574506285798       -0.75948251619532       -0.03727854086257
N           -2.35166807792739       -1.39440024105758       -0.09667857948316
C           -2.39124129854420       -2.71756962923774       -0.02135920887516
N           -3.61483615209057       -3.32437227792388       -0.13990339972180
C           -4.84670046560186       -2.64920684806558        0.04389233977077
C           -5.10228846114600       -1.36705768184305       -0.42072039790391
C           -6.32957107992278       -0.77254030018504       -0.17530173092240
C           -7.31214719051452       -1.44684525961911        0.52662327440009
C           -7.08250823693655       -2.73982785046757        0.96450004851331
C           -5.86002732348860       -3.34210396369265        0.71549741841308
O           -5.68968306306134       -4.64627965296778        1.12870780462162
C           -4.78750642841751       -5.36416476729767        0.38677648646371
C           -4.93881028341525       -6.74008023638229        0.30196108016514
C           -4.08023936160025       -7.47786089948292       -0.49424252978949
C           -3.10311481312715       -6.83787153180459       -1.23812536763460
C           -2.94470612137301       -5.46558728174139       -1.14933229386799
C           -3.75219406303173       -4.72102194634702       -0.29751114308941
C           -1.22067260122491       -3.47688311651514        0.22773088199584
C           -0.01637143494848       -2.83138239056507        0.26386454193946
C            0.03911849104441       -1.43791973140573        0.08541401100515
C            1.28572546166530       -0.72317473911955        0.05074816097867
N            2.42000437952845       -1.39579498063618        0.15371246705713
C            3.56597103631982       -0.69943141971476        0.09380458691528
C            4.80201248556617       -1.36636044921530        0.19262131097732
C            5.98806862689115       -0.67867577299505        0.12295292739470
C            7.25714029189435       -1.42618552274484        0.17941448030869
C            8.24003101177726       -1.23886085633837       -0.78931198393702
C            9.41893298747924       -1.95935960442287       -0.73802805250152
C            9.63539896391496       -2.87185314084246        0.28165343958095
C            8.65984690741983       -3.07087828830967        1.24448943673375
C            7.47568744770847       -2.35838974466132        1.19066467920615
C            8.17284677425968        1.35352666829964        0.97159177363422
C            9.33558746253018        2.10154040104189        0.97130112326384
H           10.49072219506159        3.59135285170022       -0.04569727636575
H            8.82898285657214        3.89351871996811       -1.84605512364580
H            6.75306498914189        2.56805595942868       -1.84301401090390
H            4.75491699992179        2.47911866993820       -0.25695888745509
H            0.87704188831536        3.35438309110719       -0.32563703348276
H           -1.33981021714595        4.49466350816584       -0.36175559873672
H           -4.00069562484228        0.85948571491865        1.08645442153619
H           -5.67380354367015        0.34274854078000        2.80812864842070
H           -7.32215390392113        2.06220928566289        3.49707264971842
H           -7.25292428630898        4.30502846823493        2.42635978692044
H           -5.90795643193258        7.12818295678747       -0.84909276405106
H           -4.69972989514632        7.56159334142673       -2.97677885637779
H           -3.07056067636047        5.89437676637376       -3.80990312859084
H           -2.60619832151643        3.86752134429377       -2.50305689087017
H           -4.32773643499382       -0.83149141283875       -0.94036274718234
H           -6.51040409244580        0.22875833845703       -0.53255201490036
H           -8.26125980405274       -0.97504901565944        0.72699992030211
H           -7.83352799536356       -3.29929787344737        1.49966267298448
H           -5.73197531869511       -7.20813076291202        0.86303382172953
H           -4.19199422389272       -8.54920149632786       -0.55061984808442
H           -2.45827472584598       -7.40487866825862       -1.89131210916857
H           -2.19004946711391       -4.96406747321795       -1.73585420836911
H           -1.28095806803364       -4.53726347544706        0.41059966595661
H            0.90489121512947       -3.36616786192271        0.43695306598122
H            4.78999265654124       -2.44065774316410        0.30119021017376
H            8.07166265967315       -0.53553350523457       -1.59145969309396
H           10.17234715052138       -1.80670187289689       -1.49697777942633
H           10.56008083871232       -3.42835983069762        0.32407438369712
H            8.82157107018837       -3.78311383788142        2.04073189401186
H            6.71851326047690       -2.50541935544824        1.94796420843293
H            7.98122784540560        0.65160911186326        1.76989049932204
H           10.05513638631909        1.97175071988729        1.76650936961279

          :  Hamiltonian                  GFN2-xTB          :
         :: gradient norm              0.000035131218 Eh/a0 ::
         :: HOMO-LUMO gap              1.232488104696 eV    ::
         :: SCC energy              -160.543152786400 Eh    ::
         :: -> dispersion             -0.144040191811 Eh    ::
         :: -> Gsolv                  -0.064583540795 Eh    ::
         :: repulsion energy           2.752262141736 Eh    ::

    * Orbital Energies and Occupations

         #    Occupation            Energy/Eh            Energy/eV
      -------------------------------------------------------------
         1        2.0000           -0.7365229             -20.0418
       ...           ...                  ...                  ...
       133        2.0000           -0.4129811             -11.2378
       134        2.0000           -0.4124380             -11.2230
       135        2.0000           -0.4088442             -11.1252
       136        2.0000           -0.4074242             -11.0866
       137        2.0000           -0.3992365             -10.8638
       138        2.0000           -0.3956893             -10.7673
       139        2.0000           -0.3935468             -10.7090
       140        2.0000           -0.3908502             -10.6356
       141        2.0000           -0.3790414             -10.3142
       142        2.0000           -0.3757803             -10.2255
       143        2.0000           -0.3612128              -9.8291
       144        2.0000           -0.3584589              -9.7542
       145        2.0000           -0.3542157              -9.6387 (HOMO)
       146                         -0.3089225              -8.4062 (LUMO)
       147                         -0.2781634              -7.5692
       148                         -0.2751340              -7.4868
       149                         -0.2479843              -6.7480
       150                         -0.2450319              -6.6677
       151                         -0.2421168              -6.5883
       152                         -0.2403508              -6.5403
       153                         -0.2369290              -6.4472
       154                         -0.2348201              -6.3898
       155                         -0.2298414              -6.2543
       156                         -0.2294073              -6.2425
       ...                                ...                  ...
       280                          0.7118898              19.3715
      -------------------------------------------------------------
                  HL-Gap            0.0452931 Eh            1.2325 eV

     #   Z          covCN         q      C6AA      α(0)
     1   6 C        2.920    -0.030    28.740     8.791
     2   6 C        2.918    -0.029    28.724     8.789
     3   6 C        2.925    -0.033    28.832     8.806
     4   6 C        2.979     0.013    27.721     8.637
     5   6 C        2.975     0.010    27.788     8.647
     6   6 C        2.923    -0.053    29.313     8.879
     7   6 C        2.965     0.080    26.209     8.397
     8   7 N        1.848    -0.271    27.898     7.828
     9   6 C        2.959     0.081    26.181     8.393
    10   6 C        2.982    -0.028    28.696     8.787
    11   6 C        2.926    -0.018    28.449     8.747
    12   6 C        2.914    -0.060    29.486     8.904
    13   6 C        2.896     0.154    24.656     8.141
    14   7 N        2.754    -0.067    22.542     7.052
    15   6 C        2.921     0.044    27.015     8.523
    16   6 C        2.922    -0.060    29.489     8.905
    17   6 C        2.920    -0.036    28.899     8.816
    18   6 C        2.919    -0.036    28.906     8.817
    19   6 C        2.919    -0.056    29.399     8.891
    20   6 C        2.889     0.123    25.307     8.248
    21   8 O        1.708    -0.262    18.339     5.782
    22   6 C        2.889     0.126    25.228     8.235
    23   6 C        2.918    -0.056    29.380     8.888
    24   6 C        2.920    -0.036    28.889     8.814
    25   6 C        2.919    -0.037    28.930     8.820
    26   6 C        2.923    -0.052    29.302     8.877
    27   6 C        2.927     0.039    27.120     8.540
    28   7 N        1.849    -0.253    27.430     7.762
    29   6 C        2.962     0.086    26.079     8.376
    30   6 C        2.961     0.087    26.057     8.373
    31   7 N        1.851    -0.263    27.699     7.800
    32   6 C        2.890     0.155    24.652     8.140
    33   7 N        2.757    -0.060    22.399     7.029
    34   6 C        2.931     0.044    27.023     8.525
    35   6 C        2.920    -0.047    29.171     8.857
    36   6 C        2.920    -0.034    28.840     8.807
    37   6 C        2.920    -0.033    28.831     8.805
    38   6 C        2.918    -0.054    29.351     8.884
    39   6 C        2.901     0.124    25.283     8.245
    40   8 O        1.708    -0.263    18.353     5.784
    41   6 C        2.900     0.129    25.184     8.228
    42   6 C        2.918    -0.054    29.330     8.881
    43   6 C        2.920    -0.033    28.821     8.804
    44   6 C        2.919    -0.037    28.912     8.818
    45   6 C        2.921    -0.048    29.201     8.862
    46   6 C        2.933     0.036    27.184     8.551
    47   6 C        2.914    -0.066    29.649     8.929
    48   6 C        2.926    -0.018    28.450     8.747
    49   6 C        2.982    -0.033    28.816     8.806
    50   6 C        2.958     0.082    26.165     8.390
    51   7 N        1.848    -0.273    27.932     7.833
    52   6 C        2.964     0.081    26.192     8.395
    53   6 C        2.923    -0.053    29.319     8.880
    54   6 C        2.975     0.010    27.780     8.646
    55   6 C        2.979     0.013    27.722     8.637
    56   6 C        2.924    -0.030    28.750     8.793
    57   6 C        2.919    -0.029    28.719     8.788
    58   6 C        2.920    -0.030    28.738     8.791
    59   6 C        2.918    -0.029    28.723     8.789
    60   6 C        2.925    -0.033    28.830     8.805
    61   6 C        2.924    -0.030    28.752     8.793
    62   6 C        2.919    -0.029    28.719     8.788
    63   1 H        0.926     0.037     2.488     2.467
    64   1 H        0.926     0.037     2.489     2.467
    65   1 H        0.926     0.033     2.544     2.494
    66   1 H        0.926     0.051     2.312     2.378
    67   1 H        0.926     0.060     2.203     2.321
    68   1 H        0.926     0.047     2.352     2.398
    69   1 H        0.926     0.077     2.011     2.217
    70   1 H        0.926     0.043     2.408     2.426
    71   1 H        0.926     0.050     2.321     2.382
    72   1 H        0.926     0.055     2.254     2.348
    73   1 H        0.926     0.057     2.235     2.338
    74   1 H        0.926     0.052     2.299     2.371
    75   1 H        0.926     0.049     2.335     2.390
    76   1 H        0.926     0.039     2.464     2.455
    77   1 H        0.926     0.077     2.005     2.214
    78   1 H        0.926     0.048     2.342     2.393
    79   1 H        0.926     0.053     2.280     2.361
    80   1 H        0.926     0.058     2.224     2.332
    81   1 H        0.926     0.060     2.200     2.320
    82   1 H        0.926     0.055     2.256     2.349
    83   1 H        0.926     0.053     2.286     2.365
    84   1 H        0.926     0.047     2.360     2.402
    85   1 H        0.926     0.048     2.350     2.397
    86   1 H        0.926     0.057     2.237     2.339
    87   1 H        0.926     0.051     2.310     2.377
    88   1 H        0.926     0.031     2.571     2.507
    89   1 H        0.926     0.036     2.500     2.473
    90   1 H        0.926     0.037     2.487     2.466
    91   1 H        0.926     0.037     2.490     2.467
    92   1 H        0.926     0.033     2.545     2.495
    93   1 H        0.926     0.031     2.577     2.510
    94   1 H        0.926     0.036     2.502     2.474

molecular dipole:
                 x           y           z       tot (Debye)
 q only:       -0.326      -0.488      -0.507
   full:        0.494      -0.456      -0.446       2.051

 projected vibrational frequencies (cm⁻¹)
eigval :       -0.00    -0.00    -0.00    -0.00     0.00     0.00
eigval :        9.75    11.24    15.49    22.36    27.92    29.01
eigval :       37.93    44.06    44.20    55.65    59.78    60.27
eigval :       64.21    76.78    77.42    86.83    92.14   101.19
eigval :      110.13   113.41   120.42   135.67   144.22   147.29
eigval :      165.31   184.02   195.55   200.69   211.34   220.08
eigval :      231.84   238.59   249.85   253.75   261.66   269.65
eigval :      282.74   289.28   305.70   310.05   317.82   332.88
eigval :      353.50   360.62   369.71   373.32   375.46   382.84
eigval :      391.81   397.80   401.47   410.17   412.65   417.97
eigval :      437.76   439.67   442.61   446.21   448.52   453.88
eigval :      463.09   468.59   481.74   491.80   502.79   506.98
eigval :      511.56   522.99   530.10   533.58   538.88   544.71
eigval :      562.01   566.29   578.23   581.92   584.83   590.10
eigval :      590.82   595.06   599.66   617.19   618.67   630.32
eigval :      645.72   647.02   652.04   657.43   667.99   670.52
eigval :      673.59   676.52   679.45   692.72   695.80   700.97
eigval :      708.60   712.07   727.92   740.59   749.01   762.69
eigval :      763.83   765.21   772.74   779.49   782.08   784.70
eigval :      789.93   808.33   826.62   829.22   838.05   852.20
eigval :      854.77   855.14   859.11   867.72   873.79   876.23
eigval :      877.00   878.09   881.52   882.20   900.48   903.76
eigval :      904.61   905.53   906.70   909.07   912.01   914.07
eigval :      917.01   919.04   920.16   921.94   925.79   928.07
eigval :      928.65   929.91   930.53   930.89   933.72   937.11
eigval :      970.73   979.65   999.61  1007.40  1066.93  1072.69
eigval :     1082.00  1082.48  1083.12  1084.46  1085.69  1086.37
eigval :     1088.54  1101.76  1102.88  1118.36  1119.14  1120.43
eigval :     1121.12  1139.55  1144.46  1165.44  1167.75  1171.61
eigval :     1173.11  1178.60  1179.59  1179.87  1182.60  1193.57
eigval :     1195.42  1198.33  1199.08  1200.98  1208.28  1222.06
eigval :     1224.11  1234.99  1237.45  1238.59  1247.86  1251.39
eigval :     1252.90  1268.79  1272.75  1280.90  1282.23  1284.88
eigval :     1290.69  1299.93  1305.51  1310.20  1314.47  1316.56
eigval :     1317.64  1321.15  1326.18  1330.22  1333.78  1350.96
eigval :     1359.58  1381.55  1390.64  1403.70  1416.12  1421.69
eigval :     1423.13  1425.71  1426.38  1431.19  1438.46  1440.77
eigval :     1446.49  1458.47  1460.11  1465.56  1468.00  1478.48
eigval :     1482.59  1485.47  1488.23  1491.47  1506.13  1523.78
eigval :     1530.83  1560.80  1570.10  1571.92  1573.89  1575.02
eigval :     1575.75  1577.79  1580.19  1587.44  1588.12  1589.16
eigval :     1593.51  1596.26  1596.73  1599.00  3068.12  3068.48
eigval :     3072.10  3073.01  3077.57  3078.39  3083.53  3084.82
eigval :     3088.13  3088.79  3089.43  3089.66  3089.97  3090.77
eigval :     3091.82  3092.45  3093.79  3094.84  3095.44  3096.10
eigval :     3098.96  3100.58  3101.59  3102.52  3103.57  3108.06
eigval :     3108.61  3109.48  3111.12  3111.93  3128.93  3144.27

   temp. (K)  partition function   enthalpy   heat capacity  entropy
                                   cal/mol     cal/K/mol   cal/K/mol   J/K/mol
 298.15  VIB  0.116E+22            27593.110    176.890    170.758
         ROT  0.210E+09              888.752      2.981     41.064
         INT  0.243E+30            28481.863    179.870    211.822
         TR   0.218E+29             1481.254      4.968     45.884
         TOT                       29963.1167   184.8385   257.7056  1078.2403

       T/K    H(0)-H(T)+PV         H(T)/Eh          T*S/Eh         G(T)/Eh
   ------------------------------------------------------------------------
    298.15    0.477493E-01    0.745458E+00    0.122444E+00    0.623013E+00
   ------------------------------------------------------------------------

         :::::::::::::::::::::::::::::::::::::::::::::::::::::
         ::                  THERMODYNAMIC                  ::
         :::::::::::::::::::::::::::::::::::::::::::::::::::::
         :: total free energy        -157.167877340823 Eh   ::
         ::.................................................::
         :: total energy             -157.790890643538 Eh   ::
         :: zero point energy           0.697708294516 Eh   ::
         :: G(RRHO) w/o ZPVE           -0.074694991801 Eh   ::
         :: G(RRHO) contrib.            0.623013302715 Eh   ::
         :::::::::::::::::::::::::::::::::::::::::::::::::::::

           -------------------------------------------------
          | TOTAL ENERGY             -157.790890643538 Eh   |
          | TOTAL ENTHALPY           -157.045433083169 Eh   |
          | TOTAL FREE ENERGY        -157.167877340823 Eh   |
          | GRADIENT NORM               0.000035128995 Eh/α |
          | HOMO-LUMO GAP               1.232488864181 eV   |
           -------------------------------------------------

 * finished run on 2025/09/11 at 10:31:42.262
