   * xtb version 6.7.1 (edcfbbe) compiled by 'albert@albert-system' on 2024-07-22

   ID    Z sym.   atoms
    1    6 C      1-7, 9-13, 15-20, 22-27, 29, 30, 32, 34-39, 41-50, 52-62
    2    7 N      8, 14, 28, 31, 33, 51
    3    8 O      21, 40
    4    1 H      63-94

          program call               : xtb data2507/toluene/BPZPP/BPZPP_toluene_T1_crest.xyz --gfn 2 --uhf 2 --gbsa toluene --ohess vtight --parallel 40 --molden --ceasefiles --namespace data2507/toluene/BPZPP/BPZPP_toluene_T1_finalOpt
      * Solvation model:               GBSA
        Solvent                        toluene
        Solvent mass                       9.2140E+01 g/mol
          :  Hamiltonian                  GFN2-xTB          :
 * total energy  :  -157.7432360 Eh     change       -0.1184455E-07 Eh
 * total energy  :  -157.7433414 Eh     change       -0.1053063E-03 Eh
 * total energy  :  -157.7434060 Eh     change       -0.6466650E-04 Eh
 * total energy  :  -157.7434238 Eh     change       -0.1778476E-04 Eh
 * total energy  :  -157.7434518 Eh     change       -0.2797927E-04 Eh
 * total energy  :  -157.7434682 Eh     change       -0.1642832E-04 Eh
 * total energy  :  -157.7435033 Eh     change       -0.3509603E-04 Eh
 * total energy  :  -157.7435531 Eh     change       -0.4978306E-04 Eh
 * total energy  :  -157.7435682 Eh     change       -0.1508588E-04 Eh
 * total energy  :  -157.7435950 Eh     change       -0.2682313E-04 Eh
 * total energy  :  -157.7437425 Eh     change       -0.1771942E-06 Eh
 * total energy  :  -157.7437426 Eh     change       -0.1373138E-06 Eh
 * total energy  :  -157.7437428 Eh     change       -0.1070234E-06 Eh
 * total energy  :  -157.7437429 Eh     change       -0.1006276E-06 Eh
 * total energy  :  -157.7437430 Eh     change       -0.1466153E-06 Eh
 * total energy  :  -157.7437432 Eh     change       -0.1937856E-06 Eh
 * total energy  :  -157.7437434 Eh     change       -0.2002728E-06 Eh
 * total energy  :  -157.7437436 Eh     change       -0.1643964E-06 Eh
 * total energy  :  -157.7437436 Eh     change       -0.6494645E-09 Eh
   *** GEOMETRY OPTIMIZATION CONVERGED AFTER 68 ITERATIONS ***

 final structure:
================
94
 xtb: 6.7.1 (edcfbbe)
C            9.88191949091757        2.99724338774554        0.16998318313374
C            9.68334500899700        2.06085660378582       -0.83164415391400
C            8.52348770493550        1.30934705009335       -0.86324308547973
C            7.54054856532967        1.48524032973514        0.10833005300934
C            6.29213537541821        0.70509087888033        0.07413045498583
C            5.08131907240134        1.38087494069837        0.15702626489390
C            3.85944386175213        0.71699696188928        0.08655959649172
N            2.69235017445730        1.36713227814505        0.17231742873779
C            1.54193038840851        0.70999639942687        0.08407422210397
C            0.30040323046420        1.40393530210913        0.14455030671353
C            0.23879673440194        2.80345567184787        0.28629772689407
C           -0.97199206404417        3.43612655851657        0.31866061218791
C           -2.14772965859054        2.65329008053981        0.18987789949929
N           -3.39386171798910        3.27683367769594        0.22808375038206
C           -4.48408549189791        2.76820867153441        0.95688731328259
C           -4.61233255572645        1.42931494181060        1.30962299156227
C           -5.68654807666870        1.00233463291274        2.07135691363157
C           -6.65388016903099        1.89829844450996        2.49186476183111
C           -6.54912795293621        3.23241603038320        2.13874489762472
C           -5.47589733182487        3.66741428754684        1.37761491690636
O           -5.43456490833321        5.00528561323229        1.07193195175876
C           -4.58424036880393        5.37672381112605        0.06754964297676
C           -4.76077435343371        6.62892630042204       -0.50066574983813
C           -3.94570680569595        7.03741771175837       -1.54227772310463
C           -2.97881703516759        6.17839652286788       -2.03751147026939
C           -2.79761285519190        4.92881189068958       -1.47184511723288
C           -3.56949090886020        4.52384363302658       -0.38590920525475
N           -2.10864602115394        1.34729864052580        0.06670330907798
C           -0.93256810668180        0.71038060928008        0.05709279293572
C           -0.93100698179005       -0.71625268199870       -0.05962080612981
N           -2.10576758581634       -1.35555179173099       -0.06920996489250
C           -2.14234845067751       -2.66156595692869       -0.19283426450668
N           -3.38734472120188       -3.28741787083189       -0.23094660630054
C           -3.56053440476152       -4.53494784362524        0.38269296408816
C           -2.78708149325877       -4.93924161777783        1.46776493636144
C           -2.96570633143407       -6.18944318092138        2.03289570488275
C           -3.93163286096657       -7.04978417280619        1.53808121517452
C           -4.74838194084825       -6.64199532826534        0.49751500695989
C           -4.57438139432393       -5.38921375431507       -0.07020354286659
O           -5.42632502095767       -5.01866342145005       -1.07352263352428
C           -5.46972546562753       -3.68081982452833       -1.37898096150557
C           -6.54419766457745       -3.24726910491047       -2.13919160019943
C           -6.65109171738204       -1.91329922818293       -2.49220935360000
C           -5.68461747494085       -1.01604305945091       -2.07249666442979
C           -4.60922369281828       -1.44156686888985       -1.31161011079299
C           -4.47881987636893       -2.78028368671994       -0.95894724728700
C           -0.96505416078636       -3.44195767459217       -0.32216766306068
C            0.24448778960205       -2.80687036045187       -0.28960677185341
C            0.30342209525677       -1.40728533558819       -0.14728486825021
C            1.54355337117619       -0.71080518269456       -0.08657969829118
N            2.69554495102929       -1.36527957773963       -0.17473209119833
C            3.86116655362187       -0.71240773668319       -0.08895754977306
C            5.08476232863532       -1.37317705417218       -0.15941716783207
C            6.29390031521529       -0.69430281236194       -0.07655592693395
C            7.54465532525813       -1.47064928539825       -0.11103963841885
C            7.74947711129383       -2.42603174673435       -1.10418903520584
C            8.91644389608012       -3.16714015406613       -1.13825642165338
C            9.89190488418935       -2.97348313540362       -0.17421613077398
C            9.69057929501067       -2.03749839777417        0.82723554709132
C            8.52776671819776       -1.29061874323306        0.85962389057931
C            7.74264626737865        2.44084422774658        1.10182334315469
C            8.90670285604990        3.18652978846865        1.13513829778659
H           10.79132817566121        3.57961404322930        0.19621817768446
H           10.43620212249128        1.91482112088806       -1.59281286569199
H            8.36910691245625        0.58744161098591       -1.65185823994185
H            5.06680376136521        2.45670122067715        0.25013378841070
H            1.16552939376818        3.34928055881755        0.38510476374016
H           -1.04214494293603        4.50213415491531        0.46717074768125
H           -3.85796432291043        0.73234421786826        0.98555712093068
H           -5.76070486700721       -0.04151659057526        2.33367553525116
H           -7.48898813346311        1.56624365460796        3.08819347943689
H           -7.28380345237256        3.95929677666073        2.44705750342783
H           -5.54039512842882        7.26358701533355       -0.11064764939988
H           -4.07976130057439        8.01607550477098       -1.97488511147705
H           -2.36096945408548        6.47642327931428       -2.87009503647341
H           -2.05162118230491        4.25736955722125       -1.86851100099097
H           -2.04188674492522       -4.26678872388856        1.86421353487574
H           -2.34656472419144       -6.48692527782033        2.86471119470728
H           -4.06366471154180       -8.02891783337701        1.97023316976085
H           -5.52740355254902       -7.27765055739385        0.10791939250059
H           -7.27813080290580       -3.97516378940961       -2.44688120190812
H           -7.48717524528709       -1.58237269838772       -3.08779996896697
H           -5.76038429765631        0.02770984768360       -2.33474920409575
H           -3.85563082513211       -0.74350423583480       -0.98809634438756
H           -1.03306019272892       -4.50803146238958       -0.47120157439289
H            1.17224310449126       -3.35088810199106       -0.38872675433325
H            5.07301415045046       -2.44903606761672       -0.25255632571192
H            6.99382683604442       -2.56944602394744       -1.86397159901740
H            9.06581949648055       -3.89714833906509       -1.92105877078438
H           10.80366801359871       -3.55212535897832       -0.20118919506776
H           10.44362916504509       -1.88809818144277        1.58756617210174
H            8.37126885019281       -0.56903318419236        1.64810759921572
H            6.98714574807627        2.58094190008690        1.86237190218000
H            9.05391158456488        3.91675495442068        1.91814721010848

          :  Hamiltonian                  GFN2-xTB          :
         :: gradient norm              0.000021982105 Eh/a0 ::
         :: HOMO-LUMO gap              0.778782041900 eV    ::
         :: SCC energy              -160.495178335696 Eh    ::
         :: -> dispersion             -0.141209790856 Eh    ::
         :: -> Gsolv                  -0.066619892857 Eh    ::
         :: repulsion energy           2.751434775567 Eh    ::

    * Orbital Energies and Occupations

         #    Occupation            Energy/Eh            Energy/eV
      -------------------------------------------------------------
         1        2.0000           -0.7430240             -20.2187
       ...           ...                  ...                  ...
       134        2.0000           -0.4079335             -11.1004
       135        2.0000           -0.4040008             -10.9934
       136        2.0000           -0.4031157             -10.9693
       137        2.0000           -0.3998146             -10.8795
       138        2.0000           -0.3995485             -10.8723
       139        2.0000           -0.3859548             -10.5024
       140        2.0000           -0.3857606             -10.4971
       141        2.0000           -0.3793872             -10.3237
       142        2.0000           -0.3781106             -10.2889
       143        1.9324           -0.3592572              -9.7759
       144        1.8051           -0.3581121              -9.7447
       145        1.2625           -0.3557826              -9.6813
       146        1.0000           -0.3061315              -8.3303 (HOMO)
       147        0.0000           -0.2775120              -7.5515 (LUMO)
       148                         -0.2749839              -7.4827
       149                         -0.2484993              -6.7620
       150                         -0.2481515              -6.7525
       151                         -0.2432900              -6.6203
       152                         -0.2422130              -6.5910
       153                         -0.2395885              -6.5195
       154                         -0.2371797              -6.4540
       155                         -0.2279707              -6.2034
       156                         -0.2265240              -6.1640
       157                         -0.2252784              -6.1301
       ...                                ...                  ...
       280                          0.7082179              19.2716
      -------------------------------------------------------------
                  HL-Gap            0.0286196 Eh            0.7788 eV

     #   Z          covCN         q      C6AA      α(0)
     1   6 C        2.920    -0.032    28.802     8.801
     2   6 C        2.918    -0.030    28.752     8.793
     3   6 C        2.924    -0.032    28.793     8.800
     4   6 C        2.978     0.013    27.727     8.637
     5   6 C        2.975    -0.000    28.029     8.684
     6   6 C        2.924    -0.065    29.630     8.927
     7   6 C        2.942     0.084    26.127     8.383
     8   7 N        1.848    -0.260    27.623     7.789
     9   6 C        2.941     0.078    26.257     8.404
    10   6 C        2.982    -0.029    28.717     8.790
    11   6 C        2.925    -0.016    28.421     8.743
    12   6 C        2.913    -0.063    29.564     8.916
    13   6 C        2.895     0.148    24.789     8.163
    14   7 N        2.754    -0.054    22.288     7.012
    15   6 C        2.922     0.045    26.987     8.519
    16   6 C        2.921    -0.058    29.443     8.898
    17   6 C        2.919    -0.033    28.833     8.805
    18   6 C        2.919    -0.033    28.825     8.804
    19   6 C        2.918    -0.054    29.346     8.883
    20   6 C        2.891     0.125    25.247     8.238
    21   8 O        1.709    -0.248    18.105     5.745
    22   6 C        2.890     0.129    25.181     8.227
    23   6 C        2.918    -0.054    29.332     8.881
    24   6 C        2.919    -0.033    28.811     8.802
    25   6 C        2.918    -0.035    28.860     8.810
    26   6 C        2.922    -0.050    29.244     8.868
    27   6 C        2.928     0.041    27.076     8.533
    28   7 N        1.849    -0.252    27.407     7.759
    29   6 C        2.963     0.075    26.329     8.416
    30   6 C        2.963     0.075    26.329     8.416
    31   7 N        1.849    -0.252    27.407     7.759
    32   6 C        2.895     0.148    24.789     8.163
    33   7 N        2.754    -0.054    22.288     7.012
    34   6 C        2.928     0.041    27.076     8.533
    35   6 C        2.922    -0.050    29.244     8.868
    36   6 C        2.918    -0.035    28.860     8.810
    37   6 C        2.919    -0.033    28.811     8.802
    38   6 C        2.918    -0.054    29.332     8.881
    39   6 C        2.890     0.129    25.181     8.227
    40   8 O        1.709    -0.248    18.105     5.745
    41   6 C        2.891     0.125    25.247     8.238
    42   6 C        2.918    -0.054    29.346     8.883
    43   6 C        2.919    -0.033    28.825     8.804
    44   6 C        2.919    -0.033    28.833     8.805
    45   6 C        2.921    -0.058    29.443     8.898
    46   6 C        2.922     0.045    26.987     8.519
    47   6 C        2.913    -0.063    29.564     8.916
    48   6 C        2.925    -0.016    28.421     8.743
    49   6 C        2.982    -0.029    28.717     8.790
    50   6 C        2.941     0.078    26.257     8.404
    51   7 N        1.848    -0.260    27.623     7.789
    52   6 C        2.942     0.084    26.127     8.383
    53   6 C        2.924    -0.065    29.630     8.927
    54   6 C        2.975    -0.000    28.029     8.684
    55   6 C        2.978     0.013    27.727     8.637
    56   6 C        2.925    -0.035    28.875     8.812
    57   6 C        2.918    -0.031    28.763     8.795
    58   6 C        2.920    -0.032    28.802     8.801
    59   6 C        2.918    -0.030    28.752     8.793
    60   6 C        2.924    -0.032    28.793     8.800
    61   6 C        2.925    -0.035    28.876     8.812
    62   6 C        2.918    -0.031    28.763     8.795
    63   1 H        0.926     0.033     2.537     2.491
    64   1 H        0.926     0.032     2.553     2.499
    65   1 H        0.926     0.027     2.624     2.533
    66   1 H        0.926     0.042     2.423     2.434
    67   1 H        0.926     0.052     2.292     2.367
    68   1 H        0.926     0.045     2.378     2.412
    69   1 H        0.926     0.084     1.936     2.176
    70   1 H        0.926     0.051     2.311     2.377
    71   1 H        0.926     0.054     2.266     2.354
    72   1 H        0.926     0.060     2.201     2.320
    73   1 H        0.926     0.062     2.177     2.307
    74   1 H        0.926     0.056     2.243     2.342
    75   1 H        0.926     0.053     2.284     2.363
    76   1 H        0.926     0.044     2.400     2.422
    77   1 H        0.926     0.044     2.400     2.422
    78   1 H        0.926     0.053     2.284     2.363
    79   1 H        0.926     0.056     2.243     2.342
    80   1 H        0.926     0.062     2.177     2.307
    81   1 H        0.926     0.060     2.201     2.320
    82   1 H        0.926     0.054     2.266     2.354
    83   1 H        0.926     0.051     2.311     2.377
    84   1 H        0.926     0.084     1.936     2.176
    85   1 H        0.926     0.045     2.378     2.411
    86   1 H        0.926     0.052     2.292     2.367
    87   1 H        0.926     0.042     2.423     2.434
    88   1 H        0.926     0.030     2.592     2.517
    89   1 H        0.926     0.033     2.541     2.493
    90   1 H        0.926     0.033     2.537     2.491
    91   1 H        0.926     0.032     2.553     2.499
    92   1 H        0.926     0.027     2.624     2.533
    93   1 H        0.926     0.030     2.592     2.517
    94   1 H        0.926     0.033     2.541     2.493

molecular dipole:
                 x           y           z       tot (Debye)
 q only:       -2.834      -0.003      -0.001
   full:       -1.978      -0.002      -0.001       5.028

 projected vibrational frequencies (cm⁻¹)
eigval :       -0.00    -0.00     0.00     0.00     0.00     0.00
eigval :        2.04     4.44    12.06    15.71    24.02    28.26
eigval :       33.82    39.95    41.25    45.48    51.09    58.09
eigval :       59.57    62.40    80.42    87.57    97.26    98.65
eigval :      105.01   110.42   123.78   132.04   135.40   145.59
eigval :      162.82   184.12   190.85   205.95   216.55   226.41
eigval :      227.74   238.79   246.40   248.12   257.56   267.64
eigval :      277.65   292.35   295.58   305.35   312.30   313.88
eigval :      343.77   354.67   367.14   370.50   378.58   378.61
eigval :      390.13   392.36   395.66   413.89   413.90   419.82
eigval :      425.39   429.78   438.83   443.81   446.93   450.03
eigval :      462.02   472.96   479.52   488.58   501.13   501.94
eigval :      512.25   519.36   525.00   527.33   535.56   539.56
eigval :      557.19   559.44   571.40   575.37   584.51   585.33
eigval :      586.11   590.31   598.00   614.79   616.06   626.09
eigval :      629.61   641.47   647.62   652.69   658.31   666.28
eigval :      667.62   673.85   674.46   678.41   681.60   690.84
eigval :      694.67   699.58   702.85   719.79   728.88   735.15
eigval :      758.41   760.05   770.75   778.11   780.00   781.79
eigval :      786.42   804.07   818.15   822.44   824.24   827.63
eigval :      830.04   855.24   855.48   856.86   873.33   873.37
eigval :      874.78   875.69   876.90   881.42   897.46   899.26
eigval :      903.63   904.61   906.49   906.94   908.71   913.17
eigval :      914.51   914.75   917.14   921.64   922.06   922.51
eigval :      922.94   924.09   924.61   928.36   928.43   937.20
eigval :      962.16   971.60   996.12  1004.44  1067.67  1072.86
eigval :     1076.57  1081.64  1084.14  1084.38  1084.98  1085.37
eigval :     1086.55  1104.37  1105.51  1115.94  1116.74  1119.60
eigval :     1119.70  1136.99  1138.61  1164.88  1165.49  1170.69
eigval :     1171.13  1177.42  1177.77  1178.89  1180.79  1192.01
eigval :     1194.55  1198.60  1199.29  1201.49  1207.05  1214.54
eigval :     1232.10  1233.52  1235.56  1238.99  1240.05  1245.56
eigval :     1246.97  1247.48  1262.99  1269.66  1273.90  1277.75
eigval :     1278.95  1282.78  1294.27  1297.23  1300.47  1309.70
eigval :     1314.37  1314.72  1315.88  1317.20  1328.67  1335.14
eigval :     1340.10  1345.67  1356.08  1378.28  1381.94  1395.87
eigval :     1401.92  1418.70  1420.33  1426.73  1429.09  1435.48
eigval :     1438.45  1442.34  1449.76  1452.11  1456.71  1463.61
eigval :     1470.52  1476.49  1478.67  1479.41  1487.62  1502.16
eigval :     1505.26  1537.20  1538.13  1549.48  1563.39  1563.42
eigval :     1568.75  1568.78  1574.43  1578.36  1578.64  1579.32
eigval :     1588.08  1589.13  1595.77  1597.06  3064.36  3064.48
eigval :     3068.24  3068.79  3073.91  3074.37  3080.01  3081.08
eigval :     3082.90  3083.23  3083.45  3083.84  3088.72  3088.86
eigval :     3091.65  3091.69  3092.24  3092.33  3096.64  3097.03
eigval :     3098.54  3098.66  3100.37  3100.58  3105.28  3105.35
eigval :     3110.14  3110.35  3113.64  3113.74  3123.27  3126.67

   temp. (K)  partition function   enthalpy   heat capacity  entropy
                                   cal/mol     cal/K/mol   cal/K/mol   J/K/mol
 298.15  VIB  0.856E+23            27926.200    177.484    175.605
         ROT  0.106E+09              888.752      2.981     39.706
         INT  0.908E+31            28814.952    180.465    215.311
         TR   0.218E+29             1481.254      4.968     45.884
         TOT                       30296.2060   185.4335   261.1953  1092.8410

       T/K    H(0)-H(T)+PV         H(T)/Eh          T*S/Eh         G(T)/Eh
   ------------------------------------------------------------------------
    298.15    0.482801E-01    0.742295E+00    0.124102E+00    0.618193E+00
   ------------------------------------------------------------------------

         :::::::::::::::::::::::::::::::::::::::::::::::::::::
         ::                  THERMODYNAMIC                  ::
         :::::::::::::::::::::::::::::::::::::::::::::::::::::
         :: total free energy        -157.125550739202 Eh   ::
         ::.................................................::
         :: total energy             -157.743743559727 Eh   ::
         :: zero point energy           0.694015045357 Eh   ::
         :: G(RRHO) w/o ZPVE           -0.075822224832 Eh   ::
         :: G(RRHO) contrib.            0.618192820525 Eh   ::
         :::::::::::::::::::::::::::::::::::::::::::::::::::::

           -------------------------------------------------
          | TOTAL ENERGY             -157.743743559727 Eh   |
          | TOTAL ENTHALPY           -157.001448437022 Eh   |
          | TOTAL FREE ENERGY        -157.125550739202 Eh   |
          | GRADIENT NORM               0.000023634066 Eh/α |
          | HOMO-LUMO GAP               0.778777741601 eV   |
           -------------------------------------------------

 * finished run on 2025/09/11 at 10:47:59.471
