   * xtb version 6.7.1 (edcfbbe) compiled by 'albert@albert-system' on 2024-07-22

   ID    Z sym.   atoms
    1    6 C      1-7, 9-13, 15-20, 22-27, 29, 30, 32, 34-39, 41-50, 52-62
    2    7 N      8, 14, 28, 31, 33, 51
    3    8 O      21, 40
    4    1 H      63-94

          program call               : xtb data2507/toluene/BPZPP/BPZPP_toluene_S0_crest.xyz --gfn 2 --gbsa toluene --ohess vtight --parallel 40 --molden --ceasefiles --namespace data2507/toluene/BPZPP/BPZPP_toluene_S0_finalOpt
      * Solvation model:               GBSA
        Solvent                        toluene
        Solvent mass                       9.2140E+01 g/mol
          :  Hamiltonian                  GFN2-xTB          :
 * total energy  :  -157.7905615 Eh     change       -0.3314625E-08 Eh
 * total energy  :  -157.7906381 Eh     change       -0.7656965E-04 Eh
 * total energy  :  -157.7906848 Eh     change       -0.4676168E-04 Eh
 * total energy  :  -157.7907108 Eh     change       -0.2597775E-04 Eh
 * total energy  :  -157.7907324 Eh     change       -0.2159725E-04 Eh
 * total energy  :  -157.7907539 Eh     change       -0.2153250E-04 Eh
 * total energy  :  -157.7907641 Eh     change       -0.1014049E-04 Eh
 * total energy  :  -157.7907737 Eh     change       -0.9598762E-05 Eh
 * total energy  :  -157.7907871 Eh     change       -0.1337995E-04 Eh
 * total energy  :  -157.7907970 Eh     change       -0.9898235E-05 Eh
 * total energy  :  -157.7909024 Eh     change       -0.6544927E-06 Eh
 * total energy  :  -157.7909031 Eh     change       -0.6723825E-06 Eh
 * total energy  :  -157.7909040 Eh     change       -0.8515338E-06 Eh
 * total energy  :  -157.7909050 Eh     change       -0.9897681E-06 Eh
 * total energy  :  -157.7909060 Eh     change       -0.1090433E-05 Eh
 * total energy  :  -157.7909072 Eh     change       -0.1143611E-05 Eh
 * total energy  :  -157.7909083 Eh     change       -0.1101437E-05 Eh
 * total energy  :  -157.7909093 Eh     change       -0.9740508E-06 Eh
 * total energy  :  -157.7909093 Eh     change       -0.7956032E-08 Eh
   *** GEOMETRY OPTIMIZATION CONVERGED AFTER 44 ITERATIONS ***

 final structure:
================
94
 xtb: 6.7.1 (edcfbbe)
C            9.85190640218308        3.04661172624793        0.32267035732431
C            8.92982149752437        3.29677613496509       -0.68010291707810
C            7.76429625535100        2.55573512004340       -0.75242745215719
C            7.51188701701095        1.54427849006511        0.17077704110166
C            6.26084866789957        0.76819374539950        0.09898056046005
C            5.06382929990066        1.43495126001478        0.01591556689463
C            3.84097563887130        0.73761486694250        0.00458219488435
N            2.68305685981296        1.41296001943432       -0.07010176730531
C            1.56224429339660        0.71263138875282       -0.06783535891728
C            0.30137582872351        1.40590263051064       -0.11837795545469
C            0.22678678398406        2.80896410876731       -0.13948183223681
C           -0.99558515867471        3.42508163620430       -0.14215991564499
C           -2.15583494046876        2.61987505418241       -0.10141140061713
N           -3.40582168800140        3.21328122271470       -0.01006249554656
C           -4.39616868377228        2.77342974402564        0.89432504054694
C           -4.44063328014628        1.48484938262530        1.40873685797074
C           -5.39582887603947        1.13268791391684        2.34906791343709
C           -6.33273785245488        2.05327385602053        2.77770158509424
C           -6.31380007659308        3.33774965866881        2.25945243353899
C           -5.35163997640572        3.69995844399368        1.33168641254982
O           -5.38348617998501        5.00119052263919        0.88414447400475
C           -4.65903544750745        5.27373123893345       -0.24671724719014
C           -4.93574989715508        6.45116322886549       -0.92279527521857
C           -4.25092808039209        6.76080296911394       -2.08625207878170
C           -3.31680718467632        5.87358972754191       -2.58988525005079
C           -3.04036058309442        4.69487728883008       -1.91765064882852
C           -3.67782385697632        4.39618127921869       -0.71840046972714
N           -2.09287435160573        1.30022631680269       -0.11036379399443
C           -0.90914159020510        0.69221021616682       -0.12203483049305
C           -0.89218027822278       -0.76184806532365       -0.13519741800862
N           -2.05339027718451       -1.39642829382715       -0.25548989981500
C           -2.08721332906940       -2.72170667596045       -0.26761322598454
N           -3.30647689882102       -3.32340460298053       -0.44348470376959
C           -4.54292635605154       -2.66428231971970       -0.23287044792185
C           -4.79693860521175       -1.35551587427109       -0.61763162424612
C           -6.02904853606112       -0.78088296062463       -0.35014003450721
C           -7.01802241273394       -1.50096230950189        0.29499186066057
C           -6.78973135692423       -2.81884850190253        0.65184109183228
C           -5.56238209405874       -3.40110336472213        0.38009439747940
O           -5.39342214242170       -4.72869358111710        0.71085777294473
C           -4.47844471537306       -5.39554732175076       -0.06216981300295
C           -4.62302166423678       -6.76395806088087       -0.23435467228223
C           -3.74977640770280       -7.44839266396405       -1.06160630138839
C           -2.76439971366463       -6.76039406133658       -1.74967565193552
C           -2.61358074945502       -5.39550592234043       -1.57474631494209
C           -3.43631232195091       -4.70772473080991       -0.69037633116808
C           -0.91636514833977       -3.49068279345525       -0.05142197207998
C            0.28369057322007       -2.84343367555318        0.04722252358248
C            0.33421121397687       -1.44085448078602       -0.03609769964241
C            1.57634705136003       -0.71835715473782        0.00036976506861
N            2.71256493504636       -1.39075938810974        0.08005048244306
C            3.85524696921735       -0.68669686656643        0.08804144428178
C            5.09318253612323       -1.35366161177595        0.15893598727665
C            6.27639773252652       -0.65776343379414        0.15407575078958
C            7.54846576522930       -1.40231041452615        0.16330927297878
C            8.53521525405816       -1.13599742072421       -0.78289716664576
C            9.71683246411794       -1.85370829659307       -0.78270603802231
C            9.93249791623315       -2.84238720368585        0.16348253021600
C            8.95311500142104       -3.12011863750565        1.10267451099970
C            7.76590694960870       -2.41054792360911        1.09894083449238
C            8.44090972713133        1.30511698069690        1.18044115883994
C            9.60059185403826        2.05388623376742        1.25575087214744
H           10.76166885796030        3.62598681366227        0.37904584096168
H            9.11890143253151        4.07173578150054       -1.40882856967377
H            7.04913721609203        2.74442563061094       -1.54066445298947
H            5.03157320498738        2.51387009641874       -0.01610832279574
H            1.14569045243819        3.37482453298951       -0.13076717967648
H           -1.07838790923991        4.50064010261946       -0.13235732122078
H           -3.71790893333460        0.76325446053801        1.06758917599417
H           -5.40160270941520        0.12582851377594        2.73639788729446
H           -7.07864291632382        1.78133987173341        3.50784682514219
H           -7.02798960775709        4.08375600558210        2.57083574063542
H           -5.68679926786079        7.11050710812321       -0.51747615180218
H           -4.46216531925379        7.68418062662288       -2.60201628211529
H           -2.79916338739716        6.09100907582726       -3.51121900700133
H           -2.32065625853147        3.99802213979630       -2.31985356951376
H           -4.01810794917448       -0.78567493202520       -1.09247712694016
H           -6.20900298806460        0.24045878251595       -0.64571085859169
H           -7.97113565564582       -1.04536499210463        0.51314547300275
H           -7.54574816698783       -3.41329600567360        1.14026000569959
H           -5.42238603322704       -7.26813156116899        0.28503164320374
H           -3.85588537817952       -8.51467624672813       -1.18510559284464
H           -2.10740926044672       -7.28396934147802       -2.42656476931449
H           -1.85239094655937       -4.85667959907392       -2.11816699963631
H           -0.97322197148985       -4.56120934042880        0.05911058974848
H            1.20502927287538       -3.38446146548618        0.19937304409388
H            5.08523615200546       -2.43304393388352        0.18966270414308
H            8.36709557398325       -0.37295566546465       -1.52856425556929
H           10.47294785967489       -1.63920614895158       -1.52379933715318
H           10.85931276855134       -3.39692958348710        0.16678277912219
H            9.11403882254272       -3.89223120486745        1.84115577919199
H            7.00576199085519       -2.62122673769676        1.83795782326516
H            8.24292156651378        0.53948343672952        1.91613119862784
H           10.31142000934990        1.86076151435555        2.04590912587555

          :  Hamiltonian                  GFN2-xTB          :
         :: gradient norm              0.000063228089 Eh/a0 ::
         :: HOMO-LUMO gap              1.231833994587 eV    ::
         :: SCC energy              -160.543202461323 Eh    ::
         :: -> dispersion             -0.144051119515 Eh    ::
         :: -> Gsolv                  -0.064590141019 Eh    ::
         :: repulsion energy           2.752293185255 Eh    ::

    * Orbital Energies and Occupations

         #    Occupation            Energy/Eh            Energy/eV
      -------------------------------------------------------------
         1        2.0000           -0.7365465             -20.0425
       ...           ...                  ...                  ...
       133        2.0000           -0.4130104             -11.2386
       134        2.0000           -0.4124483             -11.2233
       135        2.0000           -0.4088641             -11.1258
       136        2.0000           -0.4074235             -11.0866
       137        2.0000           -0.3992163             -10.8632
       138        2.0000           -0.3956485             -10.7661
       139        2.0000           -0.3935295             -10.7085
       140        2.0000           -0.3907629             -10.6332
       141        2.0000           -0.3789891             -10.3128
       142        2.0000           -0.3757094             -10.2236
       143        2.0000           -0.3611921              -9.8285
       144        2.0000           -0.3584468              -9.7538
       145        2.0000           -0.3541731              -9.6375 (HOMO)
       146                         -0.3089040              -8.4057 (LUMO)
       147                         -0.2782122              -7.5705
       148                         -0.2751477              -7.4871
       149                         -0.2481123              -6.7515
       150                         -0.2450226              -6.6674
       151                         -0.2421022              -6.5879
       152                         -0.2403657              -6.5407
       153                         -0.2369199              -6.4469
       154                         -0.2347787              -6.3887
       155                         -0.2298294              -6.2540
       156                         -0.2293903              -6.2420
       ...                                ...                  ...
       280                          0.7120700              19.3764
      -------------------------------------------------------------
                  HL-Gap            0.0452692 Eh            1.2318 eV

     #   Z          covCN         q      C6AA      α(0)
     1   6 C        2.920    -0.030    28.739     8.791
     2   6 C        2.918    -0.029    28.724     8.789
     3   6 C        2.925    -0.033    28.832     8.806
     4   6 C        2.979     0.013    27.722     8.637
     5   6 C        2.975     0.010    27.789     8.647
     6   6 C        2.923    -0.053    29.313     8.879
     7   6 C        2.964     0.080    26.209     8.397
     8   7 N        1.847    -0.271    27.897     7.828
     9   6 C        2.959     0.081    26.181     8.393
    10   6 C        2.982    -0.028    28.696     8.787
    11   6 C        2.926    -0.018    28.448     8.747
    12   6 C        2.914    -0.060    29.485     8.904
    13   6 C        2.896     0.154    24.657     8.142
    14   7 N        2.754    -0.067    22.540     7.051
    15   6 C        2.921     0.044    27.013     8.523
    16   6 C        2.922    -0.060    29.488     8.905
    17   6 C        2.920    -0.036    28.900     8.816
    18   6 C        2.919    -0.036    28.906     8.817
    19   6 C        2.919    -0.056    29.399     8.891
    20   6 C        2.889     0.123    25.306     8.248
    21   8 O        1.708    -0.262    18.340     5.782
    22   6 C        2.889     0.126    25.229     8.235
    23   6 C        2.919    -0.056    29.379     8.888
    24   6 C        2.920    -0.036    28.889     8.814
    25   6 C        2.919    -0.037    28.930     8.820
    26   6 C        2.923    -0.052    29.304     8.877
    27   6 C        2.927     0.039    27.119     8.540
    28   7 N        1.849    -0.252    27.424     7.761
    29   6 C        2.963     0.086    26.080     8.376
    30   6 C        2.961     0.087    26.057     8.373
    31   7 N        1.851    -0.263    27.697     7.800
    32   6 C        2.890     0.155    24.652     8.140
    33   7 N        2.757    -0.060    22.399     7.029
    34   6 C        2.931     0.044    27.022     8.525
    35   6 C        2.920    -0.047    29.168     8.856
    36   6 C        2.920    -0.034    28.840     8.807
    37   6 C        2.920    -0.033    28.830     8.805
    38   6 C        2.918    -0.054    29.351     8.884
    39   6 C        2.901     0.124    25.283     8.244
    40   8 O        1.708    -0.263    18.351     5.784
    41   6 C        2.900     0.129    25.184     8.228
    42   6 C        2.918    -0.054    29.331     8.881
    43   6 C        2.920    -0.033    28.821     8.804
    44   6 C        2.919    -0.037    28.913     8.818
    45   6 C        2.921    -0.048    29.201     8.862
    46   6 C        2.933     0.036    27.184     8.551
    47   6 C        2.914    -0.066    29.650     8.929
    48   6 C        2.926    -0.018    28.450     8.747
    49   6 C        2.982    -0.033    28.816     8.805
    50   6 C        2.958     0.082    26.165     8.390
    51   7 N        1.848    -0.273    27.932     7.833
    52   6 C        2.964     0.081    26.191     8.394
    53   6 C        2.923    -0.053    29.319     8.880
    54   6 C        2.975     0.010    27.780     8.646
    55   6 C        2.979     0.013    27.721     8.636
    56   6 C        2.924    -0.030    28.751     8.793
    57   6 C        2.919    -0.029    28.719     8.788
    58   6 C        2.920    -0.030    28.738     8.791
    59   6 C        2.918    -0.029    28.724     8.789
    60   6 C        2.925    -0.033    28.830     8.805
    61   6 C        2.924    -0.030    28.752     8.793
    62   6 C        2.919    -0.029    28.719     8.788
    63   1 H        0.926     0.037     2.488     2.467
    64   1 H        0.926     0.037     2.489     2.467
    65   1 H        0.926     0.033     2.542     2.493
    66   1 H        0.926     0.051     2.311     2.377
    67   1 H        0.926     0.060     2.203     2.321
    68   1 H        0.926     0.048     2.351     2.398
    69   1 H        0.926     0.077     2.014     2.219
    70   1 H        0.926     0.043     2.409     2.427
    71   1 H        0.926     0.050     2.321     2.382
    72   1 H        0.926     0.055     2.254     2.348
    73   1 H        0.926     0.057     2.235     2.338
    74   1 H        0.926     0.052     2.300     2.372
    75   1 H        0.926     0.049     2.336     2.390
    76   1 H        0.926     0.039     2.465     2.455
    77   1 H        0.926     0.078     2.005     2.214
    78   1 H        0.926     0.048     2.344     2.394
    79   1 H        0.926     0.053     2.281     2.362
    80   1 H        0.926     0.058     2.223     2.332
    81   1 H        0.926     0.060     2.201     2.320
    82   1 H        0.926     0.055     2.257     2.349
    83   1 H        0.926     0.053     2.287     2.365
    84   1 H        0.926     0.047     2.359     2.402
    85   1 H        0.926     0.048     2.349     2.397
    86   1 H        0.926     0.057     2.238     2.339
    87   1 H        0.926     0.051     2.309     2.376
    88   1 H        0.926     0.031     2.572     2.508
    89   1 H        0.926     0.036     2.501     2.473
    90   1 H        0.926     0.037     2.487     2.466
    91   1 H        0.926     0.037     2.490     2.467
    92   1 H        0.926     0.033     2.543     2.494
    93   1 H        0.926     0.031     2.576     2.510
    94   1 H        0.926     0.036     2.502     2.474

molecular dipole:
                 x           y           z       tot (Debye)
 q only:       -0.312      -0.459      -0.546
   full:        0.506      -0.428      -0.472       2.069

 projected vibrational frequencies (cm⁻¹)
eigval :       -0.00    -0.00    -0.00     0.00     0.00     0.00
eigval :       12.51    12.71    16.12    23.62    27.39    29.70
eigval :       38.20    43.50    45.23    55.44    59.50    64.52
eigval :       65.02    76.92    78.30    89.34    92.76   100.84
eigval :      110.80   113.85   121.39   135.95   144.55   147.29
eigval :      166.09   184.81   197.39   201.22   211.62   220.46
eigval :      232.52   239.45   250.16   254.04   262.28   270.34
eigval :      283.80   289.48   306.47   309.92   317.91   333.20
eigval :      354.15   361.28   370.92   373.80   375.94   384.46
eigval :      392.01   397.88   401.84   409.85   412.80   418.12
eigval :      438.22   438.99   442.44   446.30   448.47   453.97
eigval :      462.46   468.51   481.57   491.57   502.53   507.33
eigval :      511.72   523.49   530.19   533.41   538.91   544.82
eigval :      561.16   566.37   578.12   581.91   584.72   590.11
eigval :      590.73   595.11   599.81   617.11   618.74   630.43
eigval :      645.92   648.21   651.86   657.36   668.35   671.05
eigval :      673.06   676.23   679.27   692.19   697.45   700.82
eigval :      708.57   711.85   728.08   740.64   748.80   762.48
eigval :      764.08   764.67   773.15   781.94   784.34   785.62
eigval :      790.26   808.33   826.55   832.11   836.68   852.39
eigval :      854.63   855.02   859.07   870.43   875.22   875.37
eigval :      876.98   878.00   881.45   882.48   903.39   904.01
eigval :      904.68   905.57   907.59   909.95   912.11   914.09
eigval :      917.83   921.11   921.58   923.67   926.45   927.30
eigval :      928.79   929.23   929.32   930.60   931.64   938.81
eigval :      970.68   979.72   999.90  1007.33  1066.82  1073.04
eigval :     1081.95  1082.86  1083.58  1084.89  1086.46  1087.06
eigval :     1089.10  1102.06  1103.14  1118.81  1119.63  1120.74
eigval :     1121.94  1140.39  1147.11  1166.81  1168.22  1171.78
eigval :     1173.34  1178.90  1179.96  1180.54  1182.91  1193.98
eigval :     1195.43  1197.96  1199.92  1200.98  1208.87  1221.92
eigval :     1224.27  1235.09  1237.78  1239.01  1248.43  1251.87
eigval :     1252.71  1268.68  1272.83  1281.09  1282.83  1285.35
eigval :     1291.15  1300.15  1305.71  1310.42  1314.50  1316.57
eigval :     1317.65  1321.22  1326.35  1330.41  1334.10  1350.98
eigval :     1359.64  1381.72  1390.82  1404.13  1416.14  1421.69
eigval :     1423.21  1425.68  1426.32  1431.14  1438.43  1440.72
eigval :     1446.78  1458.54  1460.10  1465.55  1468.26  1478.37
eigval :     1482.62  1485.25  1488.15  1491.83  1506.44  1523.96
eigval :     1530.90  1560.45  1570.26  1571.91  1573.96  1574.94
eigval :     1575.83  1577.63  1580.00  1587.41  1588.23  1589.01
eigval :     1593.49  1596.34  1596.62  1599.03  3068.36  3068.47
eigval :     3072.05  3072.71  3077.68  3078.23  3083.49  3084.47
eigval :     3086.99  3088.87  3089.76  3089.91  3091.61  3091.70
eigval :     3091.88  3091.99  3092.69  3093.38  3094.42  3095.81
eigval :     3099.52  3101.85  3102.20  3103.66  3103.88  3107.26
eigval :     3108.84  3109.25  3111.11  3112.19  3129.39  3145.44

   temp. (K)  partition function   enthalpy   heat capacity  entropy
                                   cal/mol     cal/K/mol   cal/K/mol   J/K/mol
 298.15  VIB  0.622E+21            27552.749    176.921    170.028
         ROT  0.210E+09              888.752      2.981     41.062
         INT  0.131E+30            28441.502    179.901    211.090
         TR   0.218E+29             1481.254      4.968     45.884
         TOT                       29922.7556   184.8696   256.9734  1075.1768

       T/K    H(0)-H(T)+PV         H(T)/Eh          T*S/Eh         G(T)/Eh
   ------------------------------------------------------------------------
    298.15    0.476849E-01    0.745570E+00    0.122096E+00    0.623473E+00
   ------------------------------------------------------------------------

         :::::::::::::::::::::::::::::::::::::::::::::::::::::
         ::                  THERMODYNAMIC                  ::
         :::::::::::::::::::::::::::::::::::::::::::::::::::::
         :: total free energy        -157.167435915603 Eh   ::
         ::.................................................::
         :: total energy             -157.790909278212 Eh   ::
         :: zero point energy           0.697884780221 Eh   ::
         :: G(RRHO) w/o ZPVE           -0.074411417612 Eh   ::
         :: G(RRHO) contrib.            0.623473362608 Eh   ::
         :::::::::::::::::::::::::::::::::::::::::::::::::::::

           -------------------------------------------------
          | TOTAL ENERGY             -157.790909278212 Eh   |
          | TOTAL ENTHALPY           -157.045339551711 Eh   |
          | TOTAL FREE ENERGY        -157.167435915603 Eh   |
          | GRADIENT NORM               0.000063209543 Eh/α |
          | HOMO-LUMO GAP               1.231836675380 eV   |
           -------------------------------------------------

 * finished run on 2025/09/11 at 10:37:14.889
