   * xtb version 6.7.1 (edcfbbe) compiled by 'albert@albert-system' on 2024-07-22

   ID    Z sym.   atoms
    1    6 C      1-5, 7-13, 15-19, 21-27, 29-35, 37, 39-52, 54-65, 67, 68
    2    7 N      6, 14, 20, 28, 36, 38, 53, 66
    3    1 H      69-106

          program call               : xtb data2507/toluene/m2Cz2Trz/m2Cz2Trz_toluene_S0_crest.xyz --gfn 2 --gbsa toluene --ohess vtight --parallel 40 --molden --ceasefiles --namespace data2507/toluene/m2Cz2Trz/m2Cz2Trz_toluene_S0_finalOpt
      * Solvation model:               GBSA
        Solvent                        toluene
        Solvent mass                       9.2140E+01 g/mol
          :  Hamiltonian                  GFN2-xTB          :
 * total energy  :  -171.4356652 Eh     change       -0.2215415E-08 Eh
 * total energy  :  -171.4358528 Eh     change       -0.1876407E-03 Eh
 * total energy  :  -171.4359951 Eh     change       -0.1422746E-03 Eh
 * total energy  :  -171.4360780 Eh     change       -0.8289639E-04 Eh
 * total energy  :  -171.4361974 Eh     change       -0.1193838E-03 Eh
 * total energy  :  -171.4363489 Eh     change       -0.1515363E-03 Eh
 * total energy  :  -171.4365009 Eh     change       -0.1519895E-03 Eh
 * total energy  :  -171.4366246 Eh     change       -0.1236904E-03 Eh
 * total energy  :  -171.4367451 Eh     change       -0.1204873E-03 Eh
 * total energy  :  -171.4368683 Eh     change       -0.1232069E-03 Eh
 * total energy  :  -171.4375173 Eh     change       -0.5358987E-06 Eh
 * total energy  :  -171.4375179 Eh     change       -0.5575025E-06 Eh
 * total energy  :  -171.4375184 Eh     change       -0.5870270E-06 Eh
 * total energy  :  -171.4375190 Eh     change       -0.5628894E-06 Eh
 * total energy  :  -171.4375195 Eh     change       -0.4921323E-06 Eh
 * total energy  :  -171.4375199 Eh     change       -0.4210491E-06 Eh
 * total energy  :  -171.4375203 Eh     change       -0.3649906E-06 Eh
 * total energy  :  -171.4375206 Eh     change       -0.3488125E-06 Eh
 * total energy  :  -171.4375206 Eh     change       -0.2008733E-08 Eh
   *** GEOMETRY OPTIMIZATION CONVERGED AFTER 68 ITERATIONS ***

 final structure:
================
106
 xtb: 6.7.1 (edcfbbe)
C           -7.99165033210680       -1.47863877269209        2.20578641302117
C           -8.13331017484770       -0.16187099401547        1.79396369508169
C           -7.02733333881727        0.55926578574099        1.38736360487264
C           -5.76690118552482       -0.03698731951904        1.38753145226422
C           -4.59998918045497        0.70885684676456        0.92476813601167
N           -4.74045039292133        2.00356403096689        0.65450331886987
C           -3.65087126138590        2.63493199722786        0.22815697531945
C           -3.74086645000420        4.07210788736118       -0.02358959064538
C           -4.88942924663635        4.77731374522566        0.33449139362911
C           -4.97074386908915        6.13552684768619        0.09437017186109
C           -3.91198525177896        6.80024804342629       -0.50599634505808
C           -2.76807110559244        6.10383172868162       -0.86620413333083
C           -2.67932519611824        4.74597705886418       -0.62697049871598
N           -2.48485445342206        2.03179053206786       -0.00384332306465
C           -2.45361942081317        0.73048537144367        0.25555744780468
C           -1.20310649275560        0.01996189412947       -0.03634978239868
C            0.00355346443906        0.67514684483253        0.15514196244472
C            1.22047621229074        0.03422491599845       -0.02899817926556
C            2.45631863853554        0.75544055780605        0.29350139350702
N            2.44663144067144        2.07509365114333        0.14573930885999
C            3.59900683187782        2.69142710519459        0.40787294122897
C            3.63649483607887        4.14940167925702        0.30743857172269
C            4.81261124984988        4.84246072871204        0.59279972280702
C            4.84192556900628        6.22114640711011        0.50743071575993
C            3.70155010869290        6.91969037960526        0.14021040537529
C            2.52905716235632        6.23615245304364       -0.14494069181380
C            2.49349904040823        4.85742673868041       -0.06335992645104
N            4.71922725480584        2.05724240214377        0.74210718384449
C            4.61864883699676        0.74202884481461        0.91131126164827
C            5.81530267800615       -0.00713661097755        1.28491054726938
C            5.71329340978998       -1.34789344038056        1.65349241375858
C            6.84898405732120       -2.06309356989648        1.97980870388026
C            8.09269266349629       -1.45152807033229        1.93560207925584
C            8.19995484721144       -0.11816435289425        1.56943947495567
C            7.06752244471639        0.60458192611148        1.24723132165893
N            3.49080316159909        0.05666575529504        0.73868490091351
C            1.22943458526328       -1.29797415586599       -0.47788160322541
N            2.42376581310275       -1.95442219704094       -0.77287523935588
C            3.45339838139444       -1.44685597404561       -1.54462339071038
C            3.49038072007479       -0.29623582063414       -2.31845585286594
C            4.65206520508777       -0.02342326157899       -3.01633945780524
C            5.74763250313959       -0.88247087441880       -2.96560854215675
C            5.70074374542243       -2.05014715226985       -2.22985314917887
C            4.54515257609420       -2.34187950906434       -1.51767832449290
C            4.15087897011626       -3.44258245982703       -0.68110743513786
C            4.79105478741000       -4.60357490451843       -0.26778764709858
C            4.12121462294387       -5.46203848008018        0.58238636651998
C            2.83669957138082       -5.16646557998249        1.03212410988668
C            2.18129963952322       -4.01561876104017        0.63401157223139
C            2.83831555226697       -3.16362525023263       -0.23995253183594
C            0.02135367880660       -1.95327571786033       -0.69047787753969
C           -1.19459819803764       -1.31609388560966       -0.47147779755866
N           -2.38364701303091       -1.99319877256339       -0.74336201011931
C           -3.43201647651312       -1.50969611252497       -1.50480399910923
C           -3.48911147727294       -0.38091983008944       -2.30905898243205
C           -4.66733885811691       -0.12965541524210       -2.98712298146682
C           -5.75952577162236       -0.98874047366809       -2.88706825884442
C           -5.69331624465855       -2.13525667223372       -2.12007622068596
C           -4.52069201272853       -2.40569123330513       -1.42759220284122
C           -4.10428623398607       -3.48177859352897       -0.57003852377418
C           -4.73122753763595       -4.63228731606464       -0.10960288633312
C           -4.03895238465210       -5.46556382653653        0.74756803044384
C           -2.74460230514049       -5.15543516546695        1.15774245010156
C           -2.10201478779674       -4.01479095246118        0.71241765832473
C           -2.78272674577558       -3.18795329649571       -0.16739403000905
N           -3.45882543572175        0.03988149726484        0.77335051490829
C           -5.63014285974514       -1.36090675280930        1.80337014242868
C           -6.73970962285937       -2.07494241103920        2.21179409736503
H           -8.85806337947790       -2.04048063950531        2.52173134045676
H           -9.10852076572884        0.30177757738769        1.78926747821557
H           -7.11775971336443        1.58288744177663        1.05859630385874
H           -5.70141372111408        4.24261518259552        0.80220985372013
H           -5.86094440202688        6.67847412915430        0.37447879833299
H           -3.97817669564858        7.86150834868561       -0.69358583731047
H           -1.94648409504665        6.62132279845241       -1.33834603886243
H           -1.80050082526478        4.18480473083106       -0.90509137333277
H           -0.00245509621441        1.69938452941544        0.49484706682271
H            5.68790421502630        4.28160015747250        0.88098538492092
H            5.75433861165196        6.75402845845335        0.72939784636765
H            3.72617529904603        7.99723196549274        0.07615711571489
H            1.64137469524284        6.78062856919949       -0.42967084389717
H            1.59168170633458        4.30705371073527       -0.28276340778910
H            4.73867373260358       -1.80956195182313        1.67822396581424
H            6.76363231019432       -3.10033058398853        2.26636913608339
H            8.97950813508160       -2.01418405551492        2.18687024632468
H            9.16884970025486        0.35730305239337        1.53480815641435
H            7.13088267913739        1.64126129919564        0.95508484907721
H            2.64293341102223        0.37410982596614       -2.37031744262460
H            4.70795115587683        0.87510174895333       -3.61394487172062
H            6.63937604851195       -0.63054166207676       -3.51945466858300
H            6.54313398175500       -2.72394341204895       -2.20516776102334
H            5.79348043955608       -4.82147943611705       -0.60229986550935
H            4.59941473248021       -6.37173351926964        0.91290655238809
H            2.34165672947604       -5.84716826751153        1.70852862764619
H            1.19490159785767       -3.78372844348065        1.00434540488842
H            0.02763148618758       -2.96253868077211       -1.07519812173833
H           -2.64436525906061        0.28852206129103       -2.39978503001085
H           -4.73924119703650        0.75190469666523       -3.60786240044698
H           -6.66435514214309       -0.75364571704685       -3.42688927795956
H           -6.53364285747231       -2.80913409168927       -2.05691038788010
H           -5.74065148176728       -4.86155549615737       -0.41415213360230
H           -4.50677249674549       -6.36653684248749        1.11475810428042
H           -2.23137792099735       -5.81648345401634        1.84002258729282
H           -1.10734570544653       -3.77066052302656        1.05151137725771
H           -4.64983005584631       -1.81099339153450        1.79691288659761
H           -6.62787690270470       -3.09960945567025        2.53245682481924

          :  Hamiltonian                  GFN2-xTB          :
         :: gradient norm              0.000037731798 Eh/a0 ::
         :: HOMO-LUMO gap              1.933505492502 eV    ::
         :: SCC energy              -174.562948448772 Eh    ::
         :: -> dispersion             -0.171595261319 Eh    ::
         :: -> Gsolv                  -0.079477958807 Eh    ::
         :: repulsion energy           3.125427816826 Eh    ::

    * Orbital Energies and Occupations

         #    Occupation            Energy/Eh            Energy/eV
      -------------------------------------------------------------
         1        2.0000           -0.6985235             -19.0078
       ...           ...                  ...                  ...
       147        2.0000           -0.4183479             -11.3838
       148        2.0000           -0.4173790             -11.3575
       149        2.0000           -0.4171045             -11.3500
       150        2.0000           -0.4144329             -11.2773
       151        2.0000           -0.4139924             -11.2653
       152        2.0000           -0.3909425             -10.6381
       153        2.0000           -0.3908261             -10.6349
       154        2.0000           -0.3894467             -10.5974
       155        2.0000           -0.3885589             -10.5732
       156        2.0000           -0.3873499             -10.5403
       157        2.0000           -0.3866760             -10.5220
       158        2.0000           -0.3768315             -10.2541
       159        2.0000           -0.3751458             -10.2082 (HOMO)
       160                         -0.3040908              -8.2747 (LUMO)
       161                         -0.2993121              -8.1447
       162                         -0.2987961              -8.1307
       163                         -0.2961992              -8.0600
       164                         -0.2624095              -7.1405
       165                         -0.2613095              -7.1106
       166                         -0.2550850              -6.9412
       167                         -0.2547725              -6.9327
       168                         -0.2388421              -6.4992
       169                         -0.2385743              -6.4919
       170                         -0.2362671              -6.4292
       ...                                ...                  ...
       310                          0.7354038              20.0114
      -------------------------------------------------------------
                  HL-Gap            0.0710550 Eh            1.9335 eV

     #   Z          covCN         q      C6AA      α(0)
     1   6 C        2.920    -0.021    28.528     8.759
     2   6 C        2.918    -0.027    28.671     8.781
     3   6 C        2.923    -0.026    28.641     8.776
     4   6 C        2.984    -0.010    28.269     8.721
     5   6 C        2.987     0.221    23.358     7.928
     6   7 N        1.844    -0.321    29.170     8.004
     7   6 C        2.986     0.221    23.352     7.927
     8   6 C        2.983    -0.011    28.285     8.724
     9   6 C        2.923    -0.026    28.648     8.777
    10   6 C        2.918    -0.027    28.667     8.780
    11   6 C        2.920    -0.022    28.546     8.762
    12   6 C        2.918    -0.027    28.685     8.783
    13   6 C        2.923    -0.026    28.655     8.778
    14   7 N        1.845    -0.336    29.563     8.058
    15   6 C        2.993     0.243    22.941     7.857
    16   6 C        2.983    -0.016    28.409     8.743
    17   6 C        2.931    -0.029    28.725     8.790
    18   6 C        2.982    -0.017    28.420     8.745
    19   6 C        2.991     0.241    22.973     7.862
    20   7 N        1.845    -0.336    29.563     8.058
    21   6 C        2.985     0.220    23.363     7.929
    22   6 C        2.983    -0.011    28.289     8.725
    23   6 C        2.923    -0.026    28.652     8.778
    24   6 C        2.918    -0.027    28.669     8.780
    25   6 C        2.920    -0.022    28.546     8.762
    26   6 C        2.918    -0.028    28.689     8.783
    27   6 C        2.923    -0.026    28.659     8.779
    28   7 N        1.844    -0.321    29.173     8.005
    29   6 C        2.987     0.220    23.364     7.929
    30   6 C        2.984    -0.010    28.263     8.721
    31   6 C        2.924    -0.024    28.600     8.770
    32   6 C        2.918    -0.026    28.656     8.778
    33   6 C        2.920    -0.021    28.532     8.759
    34   6 C        2.918    -0.027    28.672     8.781
    35   6 C        2.923    -0.025    28.640     8.776
    36   7 N        1.845    -0.319    29.129     7.999
    37   6 C        2.912     0.076    26.309     8.411
    38   7 N        2.801    -0.043    22.068     6.977
    39   6 C        3.074     0.057    26.651     8.464
    40   6 C        2.910    -0.052    29.282     8.873
    41   6 C        2.924    -0.037    28.933     8.821
    42   6 C        2.920    -0.043    29.058     8.840
    43   6 C        2.913    -0.035    28.877     8.812
    44   6 C        3.067    -0.016    28.338     8.729
    45   6 C        3.067    -0.014    28.295     8.722
    46   6 C        2.913    -0.032    28.803     8.800
    47   6 C        2.920    -0.040    28.982     8.828
    48   6 C        2.924    -0.033    28.813     8.803
    49   6 C        2.910    -0.051    29.261     8.870
    50   6 C        3.072     0.050    26.813     8.490
    51   6 C        2.925    -0.064    29.583     8.920
    52   6 C        2.912     0.076    26.307     8.411
    53   7 N        2.801    -0.045    22.111     6.984
    54   6 C        3.074     0.057    26.655     8.465
    55   6 C        2.910    -0.052    29.296     8.875
    56   6 C        2.924    -0.038    28.935     8.821
    57   6 C        2.920    -0.043    29.063     8.841
    58   6 C        2.913    -0.035    28.882     8.813
    59   6 C        3.067    -0.016    28.349     8.731
    60   6 C        3.067    -0.014    28.300     8.723
    61   6 C        2.913    -0.032    28.804     8.801
    62   6 C        2.920    -0.040    28.982     8.828
    63   6 C        2.924    -0.033    28.812     8.802
    64   6 C        2.910    -0.051    29.260     8.870
    65   6 C        3.073     0.050    26.804     8.489
    66   7 N        1.845    -0.320    29.158     8.003
    67   6 C        2.924    -0.024    28.601     8.770
    68   6 C        2.918    -0.026    28.656     8.778
    69   1 H        0.926     0.055     2.259     2.350
    70   1 H        0.926     0.052     2.298     2.370
    71   1 H        0.926     0.051     2.307     2.375
    72   1 H        0.926     0.052     2.294     2.368
    73   1 H        0.926     0.052     2.291     2.367
    74   1 H        0.926     0.055     2.259     2.351
    75   1 H        0.926     0.050     2.326     2.385
    76   1 H        0.926     0.045     2.378     2.411
    77   1 H        0.926     0.059     2.205     2.322
    78   1 H        0.926     0.053     2.285     2.364
    79   1 H        0.926     0.052     2.292     2.368
    80   1 H        0.926     0.055     2.261     2.351
    81   1 H        0.926     0.049     2.326     2.385
    82   1 H        0.926     0.045     2.380     2.413
    83   1 H        0.926     0.045     2.377     2.411
    84   1 H        0.926     0.051     2.313     2.378
    85   1 H        0.926     0.055     2.261     2.352
    86   1 H        0.926     0.052     2.301     2.372
    87   1 H        0.926     0.050     2.316     2.380
    88   1 H        0.925     0.006     2.962     2.691
    89   1 H        0.926     0.030     2.588     2.515
    90   1 H        0.926     0.040     2.454     2.450
    91   1 H        0.926     0.045     2.384     2.414
    92   1 H        0.926     0.043     2.408     2.427
    93   1 H        0.926     0.042     2.422     2.434
    94   1 H        0.926     0.042     2.426     2.436
    95   1 H        0.926     0.026     2.641     2.541
    96   1 H        0.926     0.066     2.128     2.281
    97   1 H        0.925     0.006     2.952     2.687
    98   1 H        0.926     0.030     2.591     2.517
    99   1 H        0.926     0.039     2.457     2.451
   100   1 H        0.926     0.045     2.387     2.416
   101   1 H        0.926     0.043     2.410     2.428
   102   1 H        0.926     0.042     2.420     2.433
   103   1 H        0.926     0.042     2.424     2.435
   104   1 H        0.926     0.026     2.643     2.542
   105   1 H        0.926     0.046     2.373     2.409
   106   1 H        0.926     0.051     2.312     2.378

molecular dipole:
                 x           y           z       tot (Debye)
 q only:       -0.011      -0.206       0.451
   full:       -0.019       0.117       0.416       1.098

 projected vibrational frequencies (cm⁻¹)
eigval :       -0.00    -0.00    -0.00    -0.00     0.00     0.00
eigval :        7.73    11.57    14.25    14.36    16.40    23.96
eigval :       25.59    27.06    31.10    31.99    43.43    44.31
eigval :       47.01    49.34    52.58    55.87    58.36    65.70
eigval :       76.16    83.07    93.48    98.76   100.52   104.48
eigval :      118.72   128.06   128.99   137.88   144.64   153.50
eigval :      158.61   168.56   182.02   191.72   193.57   196.87
eigval :      205.62   212.09   226.01   232.39   252.45   258.74
eigval :      261.92   267.49   272.83   275.48   301.34   322.60
eigval :      341.47   365.22   366.37   366.80   367.24   368.03
eigval :      368.21   386.48   392.31   397.51   399.73   406.22
eigval :      411.59   419.71   421.17   425.24   432.32   433.55
eigval :      443.13   445.27   453.87   479.02   498.14   514.59
eigval :      517.91   520.55   532.75   541.09   542.61   544.37
eigval :      547.03   578.50   586.25   586.97   587.26   587.36
eigval :      588.03   595.37   610.82   611.42   619.14   620.43
eigval :      627.82   628.51   629.24   633.13   642.06   646.18
eigval :      658.80   664.59   669.73   673.45   675.39   675.57
eigval :      676.37   690.75   698.96   707.83   709.19   715.35
eigval :      747.01   753.12   755.99   756.48   763.22   765.73
eigval :      769.36   775.54   777.31   778.25   780.72   795.50
eigval :      797.58   816.14   846.61   847.29   861.43   865.15
eigval :      871.35   873.82   874.28   876.54   877.97   879.04
eigval :      880.63   890.37   897.13   898.31   900.50   901.54
eigval :      901.84   907.33   910.57   911.75   912.47   912.84
eigval :      914.04   915.61   919.41   922.60   922.73   923.43
eigval :      930.99   931.03   931.82   932.79   933.54   934.79
eigval :      936.64   942.80   972.49   978.53   989.41   989.73
eigval :     1011.45  1011.91  1038.09  1046.08  1059.08  1065.39
eigval :     1069.11  1071.63  1072.46  1073.32  1074.42  1075.32
eigval :     1076.55  1081.51  1103.60  1108.44  1109.73  1112.04
eigval :     1112.27  1113.27  1146.72  1149.11  1150.72  1164.89
eigval :     1166.19  1168.88  1170.08  1175.27  1175.65  1176.35
eigval :     1176.58  1178.11  1178.42  1180.35  1180.78  1187.63
eigval :     1189.32  1200.50  1201.64  1209.45  1209.46  1212.74
eigval :     1218.68  1229.55  1233.48  1234.29  1249.42  1267.31
eigval :     1268.57  1268.70  1269.84  1292.08  1293.07  1296.82
eigval :     1297.46  1310.46  1322.85  1326.73  1327.94  1328.28
eigval :     1330.66  1337.99  1355.80  1356.54  1359.49  1359.69
eigval :     1363.64  1369.37  1370.36  1372.77  1374.27  1395.63
eigval :     1417.69  1419.29  1425.81  1426.19  1427.51  1427.70
eigval :     1429.92  1430.16  1455.85  1463.34  1463.62  1468.19
eigval :     1471.81  1472.43  1475.06  1483.29  1485.05  1485.26
eigval :     1501.78  1508.01  1516.91  1518.93  1538.88  1571.01
eigval :     1574.79  1575.46  1580.79  1580.97  1582.88  1583.13
eigval :     1589.63  1590.14  1592.00  1592.29  1593.21  1593.45
eigval :     1597.41  1597.73  1611.90  1612.52  3058.30  3058.92
eigval :     3077.27  3077.49  3080.29  3080.74  3081.22  3081.41
eigval :     3081.76  3082.05  3086.31  3086.68  3086.78  3087.02
eigval :     3087.07  3087.54  3087.56  3087.79  3093.84  3094.31
eigval :     3094.37  3094.89  3094.99  3095.04  3095.35  3098.17
eigval :     3098.42  3101.40  3101.56  3101.81  3102.71  3103.40
eigval :     3103.49  3103.81  3105.91  3106.10  3107.89  3108.39

   temp. (K)  partition function   enthalpy   heat capacity  entropy
                                   cal/mol     cal/K/mol   cal/K/mol   J/K/mol
 298.15  VIB  0.445E+27            31901.123    194.877    202.093
         ROT  0.178E+09              888.752      2.981     40.732
         INT  0.791E+35            32789.875    197.858    242.825
         TR   0.249E+29             1481.254      4.968     46.149
         TOT                       34271.1291   202.8263   288.9741  1209.0675

       T/K    H(0)-H(T)+PV         H(T)/Eh          T*S/Eh         G(T)/Eh
   ------------------------------------------------------------------------
    298.15    0.546145E-01    0.853515E+00    0.137301E+00    0.716214E+00
   ------------------------------------------------------------------------

         :::::::::::::::::::::::::::::::::::::::::::::::::::::
         ::                  THERMODYNAMIC                  ::
         :::::::::::::::::::::::::::::::::::::::::::::::::::::
         :: total free energy        -170.721306990740 Eh   ::
         ::.................................................::
         :: total energy             -171.437520629317 Eh   ::
         :: zero point energy           0.798900019931 Eh   ::
         :: G(RRHO) w/o ZPVE           -0.082686381353 Eh   ::
         :: G(RRHO) contrib.            0.716213638578 Eh   ::
         :::::::::::::::::::::::::::::::::::::::::::::::::::::

           -------------------------------------------------
          | TOTAL ENERGY             -171.437520629317 Eh   |
          | TOTAL ENTHALPY           -170.584006088792 Eh   |
          | TOTAL FREE ENERGY        -170.721306990740 Eh   |
          | GRADIENT NORM               0.000037732438 Eh/α |
          | HOMO-LUMO GAP               1.933505465971 eV   |
           -------------------------------------------------

 * finished run on 2025/08/25 at 02:11:10.130
