   * xtb version 6.7.1 (edcfbbe) compiled by 'albert@albert-system' on 2024-07-22

   ID    Z sym.   atoms
    1    6 C      1-5, 7-13, 15-19, 21-27, 29-35, 37, 39-52, 54-65, 67, 68
    2    7 N      6, 14, 20, 28, 36, 38, 53, 66
    3    1 H      69-106

          program call               : xtb data2507/toluene/m2Cz2Trz/m2Cz2Trz_toluene_S0_finalOpt.xtbopt.xyz --gfn 2 --uhf 2 --gbsa toluene --ohess vtight --parallel 40 --molden --ceasefiles --namespace data2507/toluene/m2Cz2Trz/m2Cz2Trz_toluene_T1_preOpt
      * Solvation model:               GBSA
        Solvent                        toluene
        Solvent mass                       9.2140E+01 g/mol
          :  Hamiltonian                  GFN2-xTB          :
 * total energy  :  -171.3599919 Eh     change       -0.6673409E-07 Eh
 * total energy  :  -171.3618707 Eh     change       -0.1878890E-02 Eh
 * total energy  :  -171.3629209 Eh     change       -0.1050177E-02 Eh
 * total energy  :  -171.3631010 Eh     change       -0.1800609E-03 Eh
 * total energy  :  -171.3633193 Eh     change       -0.2183538E-03 Eh
 * total energy  :  -171.3633684 Eh     change       -0.4905129E-04 Eh
 * total energy  :  -171.3634328 Eh     change       -0.6443237E-04 Eh
 * total energy  :  -171.3634853 Eh     change       -0.5246639E-04 Eh
 * total energy  :  -171.3635384 Eh     change       -0.5314181E-04 Eh
 * total energy  :  -171.3636084 Eh     change       -0.6998492E-04 Eh
 * total energy  :  -171.3644996 Eh     change       -0.1307304E-05 Eh
 * total energy  :  -171.3645007 Eh     change       -0.1114893E-05 Eh
 * total energy  :  -171.3645017 Eh     change       -0.9682963E-06 Eh
 * total energy  :  -171.3645026 Eh     change       -0.9001936E-06 Eh
 * total energy  :  -171.3645035 Eh     change       -0.9192647E-06 Eh
 * total energy  :  -171.3645045 Eh     change       -0.1026695E-05 Eh
 * total energy  :  -171.3645057 Eh     change       -0.1151846E-05 Eh
 * total energy  :  -171.3645069 Eh     change       -0.1201676E-05 Eh
 * total energy  :  -171.3645069 Eh     change       -0.3297231E-08 Eh
   *** GEOMETRY OPTIMIZATION CONVERGED AFTER 68 ITERATIONS ***

 final structure:
================
106
 xtb: 6.7.1 (edcfbbe)
C           -8.09760338357688       -1.55891347503554        1.72322807139789
C           -8.22975512757087       -0.24021008621337        1.31476031907380
C           -7.10756748975771        0.50833356788627        1.01570302967115
C           -5.84008223655408       -0.06184554164042        1.11940333854843
C           -4.65104033510685        0.71681551166569        0.78200276081154
N           -4.76790326613303        2.03948307319803        0.65901740553879
C           -3.64530430943688        2.70452409009310        0.34998919352174
C           -3.73023189240288        4.15912823872159        0.23536367112086
C           -4.88996764515175        4.82734889138991        0.62901787251121
C           -4.96959867369342        6.20213708223448        0.51989632812031
C           -3.89892736265406        6.92370634829472        0.01406691270547
C           -2.74424927376553        6.26493108759921       -0.38195809517831
C           -2.65648139374300        4.89094330574125       -0.27239776127274
N           -2.47419125048007        2.13022408513999        0.12946305085835
C           -2.44617998125353        0.79531061346740        0.24315374267393
C           -1.20901689540611        0.11106267899758       -0.04671915892540
C           -0.00033438239547        0.77570192578948        0.08968856971419
C            1.22097006265786        0.12634374789999       -0.03588996239879
C            2.44268662611863        0.81773961507679        0.28161152172072
N            2.44144705402035        2.15948688971305        0.26092419745198
C            3.60042145191628        2.74548255464934        0.50392855994845
C            3.64652682865741        4.20620540234710        0.50657276571250
C            4.83832320484319        4.87056089829825        0.79897478546676
C            4.88011890097858        6.25122705647504        0.80422572259010
C            3.73768416483419        6.98388145456393        0.51968554788512
C            2.54947792000032        6.32972365931303        0.22886215124155
C            2.50075783074625        4.94969009492649        0.22118975614498
N            4.74627224098768        2.08704791267709        0.74216544771142
C            4.66064462190308        0.75664395814588        0.78221937381518
C            5.87138172026554       -0.01346159037282        1.05759540482892
C            5.77823487401536       -1.35842818462593        1.41078470592091
C            6.92269990939125       -2.09064668826846        1.65800552499613
C            8.16828637314771       -1.49040780570782        1.55354101520329
C            8.26717544764941       -0.15193937808771        1.20442169582330
C            7.12534198053895        0.58644303938124        0.95916513679340
N            3.53502260883228        0.09813761373904        0.58606475358567
C            1.22382942927955       -1.25235054513895       -0.41088850867223
N            2.42508437528919       -1.92009202255568       -0.67416977795985
C            3.37122055896671       -1.52399242792425       -1.59837794610287
C            3.35800825451789       -0.43392058669047       -2.45714381365018
C            4.45172376464565       -0.25386377374217       -3.28501768558028
C            5.52365739345770       -1.14239503333734       -3.27255584428564
C            5.52478023077204       -2.25020133189579       -2.44189206418299
C            4.44032347247844       -2.44962734386294       -1.60228682808429
C            4.10005206766976       -3.46602230287864       -0.64059529700110
C            4.72992308313799       -4.61971055394605       -0.20091124258623
C            4.11259931239098       -5.37932914542664        0.77879516691141
C            2.89023442733536       -4.99413063492355        1.32695935786139
C            2.24257747720127       -3.84933427414389        0.90315461101521
C            2.84711484080249       -3.09297298635061       -0.09379990625508
C            0.01976272438791       -1.91791315523313       -0.57793860547893
C           -1.19442942138506       -1.27062054254718       -0.40448860828280
N           -2.38768313307836       -1.96174240182582       -0.64370616684781
C           -3.35696771865336       -1.59239134051235       -1.55363712706753
C           -3.37052163749508       -0.52149869431430       -2.43643745914375
C           -4.48466583701419       -0.36555789468639       -3.24146493602460
C           -5.55082421212868       -1.25939725587248       -3.18363348313289
C           -5.52577799740965       -2.34850153401211       -2.32896049193290
C           -4.42083160824909       -2.52331616235871       -1.51093458743445
C           -4.05351740500138       -3.51377973388870       -0.53243519133094
C           -4.66813990465630       -4.65782387714809       -0.04803008023837
C           -4.02535260785162       -5.38860599455070        0.93716010021906
C           -2.79269726529064       -4.98420207066938        1.44692367806292
C           -2.16020217467037       -3.84821921020905        0.97851886061569
C           -2.79091716532862       -3.12122613934157       -0.02367990167307
N           -3.51331364869238        0.07021799988469        0.60711120623869
C           -5.71333498638241       -1.38707767543767        1.53219526853398
C           -6.83842775340997       -2.12932625867624        1.83272143998757
H           -8.97634804448233       -2.14137472653629        1.95730937851474
H           -9.21049653781653        0.20409610501458        1.22983334296680
H           -7.18957150643117        1.53490203282491        0.69245609261722
H           -5.71265725890668        4.25055036797883        1.02273892672150
H           -5.86910484381052        6.71403100555617        0.82858222356058
H           -3.96375850011162        7.99811286262716       -0.07225591924768
H           -1.91279388371436        6.82653649230704       -0.78128908369200
H           -1.76824430187447        4.36088203712579       -0.58007648718624
H           -0.00746257782038        1.81603225531048        0.37603483075970
H            5.71710082279085        4.28541031135963        1.02194658018791
H            5.80560537591641        6.75938919683168        1.03175791707701
H            3.77219434499961        8.06313469579865        0.52491567850094
H            1.65922944727452        6.89990601748006        0.00874104754179
H            1.58552052615748        4.42429192344292       -0.00361154434602
H            4.80125881304745       -1.80871453031897        1.49418859587043
H            6.84254375354839       -3.13129414589137        1.93393177325882
H            9.06223788165142       -2.06471547998846        1.74647054240999
H            9.23732232732521        0.31585841583861        1.12404265270355
H            7.18175829542545        1.62831830818069        0.68298093255191
H            2.52534729524364        0.25499298217034       -2.47388662336042
H            4.47148488914512        0.59297225775516       -3.95525210556034
H            6.36141761343429       -0.96499515694020       -3.92979492699092
H            6.35215541506784       -2.94260624660243       -2.44516837613907
H            5.68290139766870       -4.91374147396715       -0.61235396301433
H            4.58708160291152       -6.28190988703882        1.13300864161328
H            2.44166035124648       -5.60014997701894        2.09951971592796
H            1.30420788749148       -3.54200141254407        1.33788218383913
H            0.02651275848285       -2.95162297327226       -0.89461246803134
H           -2.54244434418958        0.17128756723134       -2.48818692700822
H           -4.52549775286314        0.46611872442364       -3.92951510606002
H           -6.40535570762348       -1.10081892616013       -3.82391340360759
H           -6.34922509981698       -3.04487787219426       -2.29657082340240
H           -5.62898250066237       -4.96623665449763       -0.42963631694611
H           -4.48770035256396       -6.28320482559219        1.32602582828012
H           -2.32412178891349       -5.56772722311105        2.22496584003226
H           -1.21385870659250       -3.52484185631262        1.38349754700329
H           -4.72612655598678       -1.81433853805969        1.61651644696902
H           -6.73268425489292       -3.15486801088047        2.15301327794581

          :  Hamiltonian                  GFN2-xTB          :
         :: gradient norm              0.000060076579 Eh/a0 ::
         :: HOMO-LUMO gap              0.250892354226 eV    ::
         :: SCC energy              -174.478515491853 Eh    ::
         :: -> dispersion             -0.170730479209 Eh    ::
         :: -> Gsolv                  -0.079249961746 Eh    ::
         :: repulsion energy           3.114008600720 Eh    ::

    * Orbital Energies and Occupations

         #    Occupation            Energy/Eh            Energy/eV
      -------------------------------------------------------------
         1        2.0000           -0.6921930             -18.8355
       ...           ...                  ...                  ...
       148        2.0000           -0.4119441             -11.2096
       149        2.0000           -0.4115459             -11.1987
       150        2.0000           -0.4108324             -11.1793
       151        2.0000           -0.4101307             -11.1602
       152        2.0000           -0.3940087             -10.7215
       153        2.0000           -0.3937978             -10.7158
       154        2.0000           -0.3848730             -10.4729
       155        2.0000           -0.3840008             -10.4492
       156        1.9954           -0.3794691             -10.3259
       157        1.9863           -0.3784231             -10.2974
       158        1.7654           -0.3754866             -10.2175
       159        1.2530           -0.3733347             -10.1590
       160        0.9879           -0.2984506              -8.1213 (HOMO)
       161        0.0050           -0.2892304              -7.8704 (LUMO)
       162        0.0047           -0.2891783              -7.8689
       163        0.0024           -0.2885536              -7.8519
       164                         -0.2598090              -7.0698
       165                         -0.2596031              -7.0642
       166                         -0.2531305              -6.8880
       167                         -0.2496063              -6.7921
       168                         -0.2374219              -6.4606
       169                         -0.2372359              -6.4555
       170                         -0.2331786              -6.3451
       171                         -0.2330202              -6.3408
       ...                                ...                  ...
       310                          0.7314698              19.9043
      -------------------------------------------------------------
                  HL-Gap            0.0092202 Eh            0.2509 eV

     #   Z          covCN         q      C6AA      α(0)
     1   6 C        2.920    -0.024    28.597     8.769
     2   6 C        2.918    -0.028    28.695     8.784
     3   6 C        2.924    -0.027    28.665     8.780
     4   6 C        2.984    -0.010    28.256     8.720
     5   6 C        2.960     0.216    23.443     7.942
     6   7 N        1.844    -0.331    29.437     8.041
     7   6 C        2.970     0.215    23.468     7.946
     8   6 C        2.984    -0.010    28.260     8.720
     9   6 C        2.923    -0.029    28.716     8.788
    10   6 C        2.918    -0.029    28.716     8.788
    11   6 C        2.920    -0.026    28.647     8.777
    12   6 C        2.918    -0.029    28.722     8.788
    13   6 C        2.923    -0.029    28.716     8.788
    14   7 N        1.844    -0.334    29.523     8.053
    15   6 C        2.970     0.215    23.472     7.947
    16   6 C        2.978    -0.017    28.430     8.746
    17   6 C        2.928    -0.028    28.695     8.785
    18   6 C        2.977    -0.018    28.451     8.749
    19   6 C        2.966     0.210    23.559     7.962
    20   7 N        1.844    -0.332    29.470     8.045
    21   6 C        2.967     0.214    23.493     7.950
    22   6 C        2.983    -0.010    28.262     8.720
    23   6 C        2.923    -0.029    28.724     8.789
    24   6 C        2.918    -0.029    28.721     8.788
    25   6 C        2.920    -0.026    28.653     8.778
    26   6 C        2.918    -0.029    28.728     8.789
    27   6 C        2.923    -0.029    28.725     8.789
    28   7 N        1.844    -0.332    29.452     8.043
    29   6 C        2.956     0.216    23.454     7.943
    30   6 C        2.984    -0.010    28.249     8.718
    31   6 C        2.924    -0.026    28.661     8.779
    32   6 C        2.918    -0.028    28.691     8.784
    33   6 C        2.920    -0.024    28.601     8.770
    34   6 C        2.918    -0.028    28.696     8.784
    35   6 C        2.924    -0.026    28.662     8.780
    36   7 N        1.846    -0.299    28.591     7.925
    37   6 C        2.911     0.038    27.157     8.545
    38   7 N        2.802    -0.008    21.402     6.871
    39   6 C        3.080     0.055    26.674     8.467
    40   6 C        2.909    -0.043    29.072     8.841
    41   6 C        2.923    -0.034    28.854     8.809
    42   6 C        2.920    -0.037    28.921     8.819
    43   6 C        2.912    -0.031    28.767     8.795
    44   6 C        3.065    -0.013    28.279     8.720
    45   6 C        3.066    -0.009    28.178     8.704
    46   6 C        2.911    -0.029    28.718     8.787
    47   6 C        2.920    -0.032    28.807     8.802
    48   6 C        2.922    -0.031    28.771     8.796
    49   6 C        2.909    -0.043    29.063     8.840
    50   6 C        3.077     0.050    26.797     8.487
    51   6 C        2.919    -0.058    29.435     8.897
    52   6 C        2.911     0.037    27.166     8.547
    53   7 N        2.802    -0.010    21.439     6.877
    54   6 C        3.080     0.056    26.669     8.466
    55   6 C        2.909    -0.044    29.086     8.843
    56   6 C        2.923    -0.035    28.861     8.810
    57   6 C        2.920    -0.037    28.928     8.820
    58   6 C        2.912    -0.031    28.774     8.796
    59   6 C        3.065    -0.014    28.285     8.721
    60   6 C        3.066    -0.010    28.188     8.706
    61   6 C        2.911    -0.029    28.720     8.788
    62   6 C        2.920    -0.033    28.816     8.803
    63   6 C        2.922    -0.031    28.774     8.797
    64   6 C        2.909    -0.043    29.068     8.841
    65   6 C        3.078     0.050    26.790     8.486
    66   7 N        1.846    -0.302    28.678     7.937
    67   6 C        2.924    -0.026    28.657     8.779
    68   6 C        2.918    -0.028    28.689     8.783
    69   1 H        0.926     0.051     2.307     2.375
    70   1 H        0.926     0.048     2.350     2.397
    71   1 H        0.926     0.047     2.362     2.403
    72   1 H        0.926     0.047     2.354     2.399
    73   1 H        0.926     0.046     2.365     2.405
    74   1 H        0.926     0.049     2.338     2.391
    75   1 H        0.926     0.044     2.395     2.420
    76   1 H        0.926     0.043     2.415     2.430
    77   1 H        0.926     0.061     2.184     2.311
    78   1 H        0.926     0.048     2.349     2.397
    79   1 H        0.926     0.046     2.370     2.407
    80   1 H        0.926     0.048     2.344     2.394
    81   1 H        0.926     0.044     2.400     2.423
    82   1 H        0.926     0.042     2.418     2.432
    83   1 H        0.926     0.041     2.432     2.439
    84   1 H        0.926     0.048     2.348     2.396
    85   1 H        0.926     0.051     2.310     2.377
    86   1 H        0.926     0.047     2.353     2.399
    87   1 H        0.926     0.046     2.368     2.407
    88   1 H        0.926     0.017     2.773     2.604
    89   1 H        0.926     0.036     2.498     2.471
    90   1 H        0.926     0.045     2.387     2.416
    91   1 H        0.926     0.050     2.323     2.383
    92   1 H        0.926     0.049     2.330     2.387
    93   1 H        0.926     0.049     2.338     2.391
    94   1 H        0.926     0.047     2.355     2.400
    95   1 H        0.926     0.035     2.522     2.484
    96   1 H        0.926     0.051     2.303     2.373
    97   1 H        0.926     0.017     2.781     2.608
    98   1 H        0.926     0.036     2.505     2.475
    99   1 H        0.926     0.044     2.391     2.418
   100   1 H        0.926     0.049     2.328     2.386
   101   1 H        0.926     0.049     2.336     2.390
   102   1 H        0.926     0.048     2.342     2.393
   103   1 H        0.926     0.047     2.359     2.402
   104   1 H        0.926     0.034     2.529     2.487
   105   1 H        0.926     0.042     2.428     2.436
   106   1 H        0.926     0.048     2.348     2.396

molecular dipole:
                 x           y           z       tot (Debye)
 q only:        0.018      -2.341      -0.170
   full:        0.013      -2.011      -0.163       5.128

 projected vibrational frequencies (cm⁻¹)
eigval :       -0.00     0.00     0.00     0.00     0.00     0.00
eigval :        6.05    10.46    12.56    19.38    22.14    22.65
eigval :       26.10    27.63    29.88    30.50    37.83    45.34
eigval :       50.63    52.30    54.01    54.93    61.20    65.23
eigval :       79.46    81.28    93.26   101.08   104.77   107.02
eigval :      118.06   125.20   126.36   138.89   139.46   146.24
eigval :      158.54   162.49   185.46   193.15   197.61   199.40
eigval :      209.48   212.33   226.32   232.09   245.79   254.58
eigval :      256.68   261.42   271.33   271.92   292.52   325.70
eigval :      338.80   358.59   363.18   367.35   370.24   370.46
eigval :      371.46   379.22   384.22   393.22   394.81   403.01
eigval :      407.03   416.35   418.91   420.12   421.86   428.58
eigval :      429.28   434.48   446.63   479.60   482.38   500.23
eigval :      514.56   514.79   535.21   536.43   538.92   540.29
eigval :      544.12   570.24   583.74   585.67   585.91   586.99
eigval :      587.52   588.48   593.80   596.63   599.30   601.14
eigval :      606.92   607.83   619.78   622.30   632.95   638.05
eigval :      649.87   658.94   661.23   669.91   672.24   672.30
eigval :      673.13   674.39   676.80   688.86   708.44   708.90
eigval :      729.56   735.92   739.46   753.95   757.42   763.27
eigval :      765.90   769.01   772.00   772.29   773.25   774.72
eigval :      777.09   784.17   829.89   833.93   862.44   865.50
eigval :      866.86   870.98   872.48   874.35   875.97   880.22
eigval :      881.84   885.71   897.37   898.00   898.20   899.86
eigval :      901.05   903.17   903.43   905.11   906.21   907.72
eigval :      908.17   913.73   914.36   915.96   917.20   918.42
eigval :      927.42   927.83   929.06   929.61   929.85   931.05
eigval :      932.68   939.40   962.79   966.58   984.63   985.42
eigval :     1004.04  1009.55  1009.99  1011.15  1034.74  1060.62
eigval :     1063.48  1063.76  1066.83  1070.05  1071.21  1074.01
eigval :     1074.89  1075.54  1076.91  1095.83  1105.17  1107.44
eigval :     1108.94  1111.58  1112.82  1125.06  1136.27  1136.75
eigval :     1139.65  1154.47  1159.52  1163.79  1173.74  1174.58
eigval :     1175.34  1175.53  1176.07  1176.53  1177.11  1178.67
eigval :     1179.34  1180.29  1188.52  1190.43  1196.68  1200.11
eigval :     1201.39  1220.48  1223.59  1227.48  1229.24  1238.13
eigval :     1244.94  1249.26  1267.51  1268.41  1268.83  1269.30
eigval :     1276.17  1279.18  1286.05  1287.71  1307.75  1311.68
eigval :     1325.97  1327.96  1328.27  1328.44  1335.55  1336.07
eigval :     1339.27  1341.89  1344.05  1359.34  1360.37  1378.08
eigval :     1378.85  1392.18  1393.52  1406.89  1409.48  1417.14
eigval :     1421.61  1427.49  1432.58  1432.62  1435.87  1437.18
eigval :     1455.13  1457.97  1461.43  1463.67  1466.68  1468.87
eigval :     1470.41  1475.15  1478.81  1479.49  1482.50  1518.48
eigval :     1562.90  1563.27  1574.79  1575.73  1576.04  1576.47
eigval :     1578.92  1579.81  1580.33  1580.48  1585.95  1589.05
eigval :     1590.39  1591.92  1596.12  1599.43  3070.09  3070.36
eigval :     3077.62  3077.86  3078.43  3078.51  3078.70  3081.54
eigval :     3081.66  3081.96  3082.55  3083.51  3083.91  3083.93
eigval :     3084.60  3088.69  3089.52  3090.08  3090.21  3091.22
eigval :     3091.61  3091.98  3092.04  3096.10  3096.41  3097.88
eigval :     3098.22  3099.07  3100.17  3100.24  3100.33  3101.70
eigval :     3102.07  3102.50  3102.81  3103.12  3103.38  3103.69

   temp. (K)  partition function   enthalpy   heat capacity  entropy
                                   cal/mol     cal/K/mol   cal/K/mol   J/K/mol
 298.15  VIB  0.531E+27            32187.113    197.303    203.554
         ROT  0.179E+09              888.752      2.981     40.748
         INT  0.953E+35            33075.866    200.284    244.301
         TR   0.249E+29             1481.254      4.968     46.149
         TOT                       34557.1196   205.2519   290.4500  1215.2428

       T/K    H(0)-H(T)+PV         H(T)/Eh          T*S/Eh         G(T)/Eh
   ------------------------------------------------------------------------
    298.15    0.550703E-01    0.847916E+00    0.138002E+00    0.709914E+00
   ------------------------------------------------------------------------

         :::::::::::::::::::::::::::::::::::::::::::::::::::::
         ::                  THERMODYNAMIC                  ::
         :::::::::::::::::::::::::::::::::::::::::::::::::::::
         :: total free energy        -170.654593034716 Eh   ::
         ::.................................................::
         :: total energy             -171.364506887336 Eh   ::
         :: zero point energy           0.792845749396 Eh   ::
         :: G(RRHO) w/o ZPVE           -0.082931896775 Eh   ::
         :: G(RRHO) contrib.            0.709913852621 Eh   ::
         :::::::::::::::::::::::::::::::::::::::::::::::::::::

           -------------------------------------------------
          | TOTAL ENERGY             -171.364506887336 Eh   |
          | TOTAL ENTHALPY           -170.516590862501 Eh   |
          | TOTAL FREE ENERGY        -170.654593034716 Eh   |
          | GRADIENT NORM               0.000060355579 Eh/α |
          | HOMO-LUMO GAP               0.250894475548 eV   |
           -------------------------------------------------

 * finished run on 2025/08/25 at 02:11:31.004
