   * xtb version 6.7.1 (edcfbbe) compiled by 'albert@albert-system' on 2024-07-22

   ID    Z sym.   atoms
    1    6 C      1-5, 7-13, 15-19, 21-27, 29-35, 37, 39-52, 54-65, 67, 68
    2    7 N      6, 14, 20, 28, 36, 38, 53, 66
    3    1 H      69-106

          program call               : xtb data2507/toluene/m2Cz2Trz/m2Cz2Trz.xyz --gfn 2 --gbsa toluene --ohess vtight --parallel 40 --molden --ceasefiles --namespace data2507/toluene/m2Cz2Trz/m2Cz2Trz_toluene_S0_preOpt
      * Solvation model:               GBSA
        Solvent                        toluene
        Solvent mass                       9.2140E+01 g/mol
          :  Hamiltonian                  GFN2-xTB          :
 * total energy  :  -171.4088771 Eh     change       -0.9695498E-08 Eh
 * total energy  :  -171.4267525 Eh     change       -0.1787542E-01 Eh
 * total energy  :  -171.4322933 Eh     change       -0.5540804E-02 Eh
 * total energy  :  -171.4342104 Eh     change       -0.1917089E-02 Eh
 * total energy  :  -171.4352651 Eh     change       -0.1054631E-02 Eh
 * total energy  :  -171.4356259 Eh     change       -0.3607972E-03 Eh
 * total energy  :  -171.4358314 Eh     change       -0.2055178E-03 Eh
 * total energy  :  -171.4359953 Eh     change       -0.1639481E-03 Eh
 * total energy  :  -171.4361362 Eh     change       -0.1409249E-03 Eh
 * total energy  :  -171.4362645 Eh     change       -0.1282239E-03 Eh
 * total energy  :  -171.4375722 Eh     change       -0.1722403E-06 Eh
 * total energy  :  -171.4375726 Eh     change       -0.4682963E-06 Eh
 * total energy  :  -171.4375728 Eh     change       -0.1953274E-06 Eh
 * total energy  :  -171.4375731 Eh     change       -0.2367936E-06 Eh
 * total energy  :  -171.4375733 Eh     change       -0.2271728E-06 Eh
 * total energy  :  -171.4375735 Eh     change       -0.1507553E-06 Eh
 * total energy  :  -171.4375736 Eh     change       -0.1431170E-06 Eh
 * total energy  :  -171.4375737 Eh     change       -0.1286858E-06 Eh
 * total energy  :  -171.4375738 Eh     change       -0.9980633E-07 Eh
   *** GEOMETRY OPTIMIZATION CONVERGED AFTER 102 ITERATIONS ***

 final structure:
================
106
 xtb: 6.7.1 (edcfbbe)
C           -7.95476430599642       -1.66590875037036        2.18996238530870
C           -8.10635029044266       -0.32356292343834        1.87587956642888
C           -7.01004147909955        0.42677234907954        1.49699061452162
C           -5.74955205660285       -0.16529555739964        1.42681775999497
C           -4.59317444828850        0.61553041174363        0.99622667098379
N           -4.74325549906038        1.92484005942578        0.81668294760744
C           -3.66247026538442        2.59029262119966        0.42107448019378
C           -3.76368835593952        4.04069860151116        0.26933864049886
C           -4.92185988775227        4.70903085749089        0.66528264920976
C           -5.01444279814004        6.07979462250988        0.51918827570164
C           -3.95695214382014        6.79431731631485       -0.02339785234308
C           -2.80326487208069        6.13502419159504       -0.42045685480755
C           -2.70366299034504        4.76457952986701       -0.27603173925791
N           -2.49589988723381        2.01148423070958        0.13537064468938
C           -2.45564508099611        0.69565887568103        0.30328836707628
C           -1.20453244961109        0.01202721237805       -0.04520343745906
C            0.00205927033885        0.65479788263906        0.18575237832146
C            1.21790191488875        0.02547169171210       -0.03880433356331
C            2.45641629067875        0.72362563961156        0.32399729265353
N            2.46321294467687        2.04624435524903        0.21011400255916
C            3.61828183149052        2.64209646892469        0.50649715677243
C            3.67999003234632        4.10021578811341        0.42186391726973
C            4.86070015334386        4.77238704052415        0.73658107906440
C            4.91495346626560        6.15067377116287        0.65775727813602
C            3.79511235444332        6.86961981645317        0.26742643584446
C            2.61795396991018        6.20696564045172       -0.04636901873571
C            2.55744139467750        4.82876546023538        0.02898542006085
N            4.72111084447276        1.98760891765838        0.85780561323350
C            4.60352552591493        0.66948948754044        0.99068139191594
C            5.78259401838705       -0.09890281074571        1.38052201803375
C            5.66982319597905       -1.46087381010347        1.65732739482423
C            6.79089427684300       -2.19158090740571        1.99958138167156
C            8.03074272919275       -1.57394009824292        2.06479485276911
C            8.14858510080351       -0.21932415378700        1.79166396118519
C            7.03090904767653        0.51819421031223        1.45219028041930
N            3.47466391818101        0.00028192888481        0.76699898413636
C            1.22654300202755       -1.27674621323209       -0.56701947380499
N            2.42274139661400       -1.91528382805518       -0.89294655789301
C            3.45903068292776       -1.36261837875139       -1.62338665503774
C            3.50069551369350       -0.16960450500573       -2.32987014938227
C            4.66952813987640        0.14569514952891       -2.99738049517635
C            5.76756913623907       -0.71160644448902       -2.98218062386527
C            5.71620366871892       -1.91959439927581       -2.31486925403824
C            4.55342967218511       -2.25486811990353       -1.63416919693361
C            4.15373952079634       -3.40148801155795       -0.86436512603184
C            4.79322854368319       -4.58148088890988       -0.50725713461968
C            4.11769028842249       -5.48547345893176        0.28953409272592
C            2.82770990132858       -5.21787479748397        0.74128302366816
C            2.17253350946877       -4.04947484703196        0.39798245425876
C            2.83581197455353       -3.15054619034767       -0.42248993309945
C            0.01882075748944       -1.91578212702098       -0.82563189197446
C           -1.19662344897111       -1.29180728927018       -0.56875875672036
N           -2.38662445225982       -1.94462766688404       -0.89021912089134
C           -3.43159103898272       -1.40323497281664       -1.61665275315212
C           -3.48316004870530       -0.21805871586744       -2.33562169566539
C           -4.65944640708682        0.08685867549738       -2.99490202541010
C           -5.75494855523328       -0.77310373499750       -2.95949486499178
C           -5.69357473815747       -1.97403332005942       -2.28028168793475
C           -4.52323516601284       -2.29884753816484       -1.60747136662319
C           -4.11234514008835       -3.43605743701891       -0.82969241720559
C           -4.74397384226183       -4.61497906798345       -0.45545497735711
C           -4.05725254314866       -5.50914139505589        0.34283117788010
C           -2.76389929418225       -5.23272485804579        0.77939379510928
C           -2.11650153137561       -4.06510470671692        0.41911241000373
C           -2.79124506504391       -3.17622415168961       -0.40284982723977
N           -3.45135422658242       -0.03507561841707        0.78331908816851
C           -5.60293289488021       -1.51528706679405        1.74378193497710
C           -6.70277084248639       -2.25867558894908        2.12530734746425
H           -8.81334650306407       -2.25051820022794        2.48526884750163
H           -9.08168213104042        0.13718842192700        1.92603388846168
H           -7.10793141629434        1.47095860447462        1.24384841423671
H           -5.73265384353786        4.13588808538512        1.08714608917517
H           -5.91244053090523        6.59360074518853        0.82794238584805
H           -4.03164208896975        7.86542469572442       -0.13732815811012
H           -1.98224320023719        6.69186565240622       -0.84654696805825
H           -1.81694318890639        4.23202742964443       -0.58372101343125
H           -0.00407949486647        1.65532420691653        0.59020016302633
H            5.72020810566133        4.19582890862244        1.04070443145582
H            5.83115919556534        6.66719362491970        0.90177087518062
H            3.83949828659272        7.94674567058226        0.20740887599680
H            1.74651373781581        6.76732877032052       -0.34997921308657
H            1.65207176732443        4.29415429692235       -0.21362629676617
H            4.69862052588723       -1.92655067986132        1.59793879753358
H            6.69754694142073       -3.24544704531267        2.21380593523229
H            8.90611505010039       -2.14832046151375        2.32927269928192
H            9.11433171051690        0.26104541282262        1.84287613095303
H            7.10278957744196        1.57185235698847        1.23191330389140
H            2.65144012768097        0.49990989576817       -2.35400743390029
H            4.72939009459071        1.07705950110341       -3.54194977232097
H            6.66484424458654       -0.42600790982996       -3.51013858840158
H            6.56064736907534       -2.59127619174804       -2.31890066797209
H            5.79988213576886       -4.77853152112517       -0.84213710497426
H            4.59574113040857       -6.40988389644978        0.57652897814272
H            2.32836802322598       -5.93440883803664        1.37624022035300
H            1.18178743004120       -3.83958477984784        0.76986438678130
H            0.02523402652404       -2.89850098709301       -1.27380245813764
H           -2.63577570294791        0.45293109150706       -2.37602416935324
H           -4.72729820278246        1.01219981693207       -3.54873005829050
H           -6.65819329171694       -0.49549565863689       -3.48150520814389
H           -6.53598884957069       -2.64818683158704       -2.26909578672774
H           -5.75318144312062       -4.81863530549023       -0.77849686853802
H           -4.52900261539169       -6.43266053705707        0.64283394378676
H           -2.25568383113543       -5.94167523365185        1.41581312117743
H           -1.12279083914497       -3.84824107359511        0.77888130302502
H           -4.62276699701747       -1.96172241938224        1.68300484470302
H           -6.58365425187593       -3.30310807147892        2.37073318632618

          :  Hamiltonian                  GFN2-xTB          :
         :: gradient norm              0.000056228390 Eh/a0 ::
         :: HOMO-LUMO gap              1.942033772532 eV    ::
         :: SCC energy              -174.563034005105 Eh    ::
         :: -> dispersion             -0.171215269128 Eh    ::
         :: -> Gsolv                  -0.079766182208 Eh    ::
         :: repulsion energy           3.125460174566 Eh    ::

    * Orbital Energies and Occupations

         #    Occupation            Energy/Eh            Energy/eV
      -------------------------------------------------------------
         1        2.0000           -0.6985683             -19.0090
       ...           ...                  ...                  ...
       147        2.0000           -0.4184899             -11.3877
       148        2.0000           -0.4173995             -11.3580
       149        2.0000           -0.4172422             -11.3537
       150        2.0000           -0.4145595             -11.2807
       151        2.0000           -0.4142988             -11.2736
       152        2.0000           -0.3909397             -10.6380
       153        2.0000           -0.3908370             -10.6352
       154        2.0000           -0.3895694             -10.6007
       155        2.0000           -0.3887715             -10.5790
       156        2.0000           -0.3875903             -10.5469
       157        2.0000           -0.3868365             -10.5264
       158        2.0000           -0.3769446             -10.2572
       159        2.0000           -0.3752360             -10.2107 (HOMO)
       160                         -0.3038676              -8.2687 (LUMO)
       161                         -0.2994192              -8.1476
       162                         -0.2991584              -8.1405
       163                         -0.2961635              -8.0590
       164                         -0.2626221              -7.1463
       165                         -0.2614888              -7.1155
       166                         -0.2551232              -6.9423
       167                         -0.2549375              -6.9372
       168                         -0.2388434              -6.4993
       169                         -0.2386708              -6.4946
       170                         -0.2363353              -6.4310
       ...                                ...                  ...
       310                          0.7352233              20.0064
      -------------------------------------------------------------
                  HL-Gap            0.0713684 Eh            1.9420 eV

     #   Z          covCN         q      C6AA      α(0)
     1   6 C        2.920    -0.021    28.528     8.759
     2   6 C        2.918    -0.027    28.671     8.781
     3   6 C        2.923    -0.026    28.641     8.776
     4   6 C        2.984    -0.010    28.270     8.722
     5   6 C        2.987     0.221    23.359     7.928
     6   7 N        1.844    -0.321    29.169     8.004
     7   6 C        2.986     0.221    23.352     7.927
     8   6 C        2.983    -0.011    28.287     8.724
     9   6 C        2.923    -0.026    28.648     8.777
    10   6 C        2.918    -0.027    28.667     8.780
    11   6 C        2.920    -0.022    28.545     8.761
    12   6 C        2.918    -0.027    28.685     8.783
    13   6 C        2.923    -0.026    28.656     8.779
    14   7 N        1.845    -0.336    29.566     8.058
    15   6 C        2.993     0.243    22.936     7.856
    16   6 C        2.983    -0.016    28.406     8.743
    17   6 C        2.931    -0.029    28.723     8.789
    18   6 C        2.982    -0.016    28.412     8.744
    19   6 C        2.992     0.242    22.954     7.859
    20   7 N        1.845    -0.336    29.568     8.059
    21   6 C        2.985     0.221    23.359     7.928
    22   6 C        2.983    -0.011    28.290     8.725
    23   6 C        2.923    -0.026    28.650     8.778
    24   6 C        2.918    -0.027    28.669     8.780
    25   6 C        2.920    -0.022    28.545     8.761
    26   6 C        2.918    -0.027    28.687     8.783
    27   6 C        2.923    -0.026    28.659     8.779
    28   7 N        1.844    -0.321    29.170     8.004
    29   6 C        2.987     0.220    23.364     7.929
    30   6 C        2.984    -0.010    28.268     8.721
    31   6 C        2.924    -0.024    28.603     8.770
    32   6 C        2.918    -0.026    28.656     8.778
    33   6 C        2.920    -0.021    28.530     8.759
    34   6 C        2.918    -0.027    28.672     8.781
    35   6 C        2.923    -0.026    28.641     8.776
    36   7 N        1.845    -0.320    29.147     8.001
    37   6 C        2.912     0.076    26.309     8.411
    38   7 N        2.801    -0.044    22.087     6.980
    39   6 C        3.074     0.057    26.657     8.465
    40   6 C        2.910    -0.052    29.291     8.874
    41   6 C        2.924    -0.037    28.933     8.821
    42   6 C        2.920    -0.043    29.060     8.840
    43   6 C        2.913    -0.035    28.879     8.812
    44   6 C        3.067    -0.016    28.344     8.730
    45   6 C        3.067    -0.014    28.299     8.723
    46   6 C        2.913    -0.032    28.804     8.801
    47   6 C        2.920    -0.040    28.982     8.828
    48   6 C        2.924    -0.033    28.812     8.803
    49   6 C        2.910    -0.051    29.261     8.870
    50   6 C        3.073     0.050    26.809     8.490
    51   6 C        2.925    -0.064    29.584     8.920
    52   6 C        2.912     0.076    26.307     8.410
    53   7 N        2.801    -0.045    22.110     6.984
    54   6 C        3.074     0.056    26.660     8.466
    55   6 C        2.910    -0.052    29.301     8.876
    56   6 C        2.924    -0.038    28.934     8.821
    57   6 C        2.920    -0.043    29.063     8.841
    58   6 C        2.913    -0.036    28.883     8.813
    59   6 C        3.067    -0.016    28.352     8.731
    60   6 C        3.067    -0.014    28.302     8.723
    61   6 C        2.913    -0.032    28.804     8.801
    62   6 C        2.920    -0.039    28.982     8.828
    63   6 C        2.924    -0.033    28.812     8.802
    64   6 C        2.910    -0.051    29.261     8.870
    65   6 C        3.073     0.050    26.803     8.488
    66   7 N        1.845    -0.321    29.165     8.004
    67   6 C        2.924    -0.024    28.601     8.770
    68   6 C        2.918    -0.026    28.656     8.778
    69   1 H        0.926     0.055     2.258     2.350
    70   1 H        0.926     0.052     2.297     2.370
    71   1 H        0.926     0.051     2.306     2.375
    72   1 H        0.926     0.052     2.292     2.367
    73   1 H        0.926     0.052     2.291     2.367
    74   1 H        0.926     0.055     2.259     2.350
    75   1 H        0.926     0.050     2.325     2.384
    76   1 H        0.926     0.046     2.376     2.411
    77   1 H        0.926     0.058     2.220     2.330
    78   1 H        0.926     0.053     2.286     2.365
    79   1 H        0.926     0.052     2.291     2.367
    80   1 H        0.926     0.055     2.260     2.351
    81   1 H        0.926     0.050     2.325     2.385
    82   1 H        0.926     0.045     2.378     2.411
    83   1 H        0.926     0.046     2.373     2.409
    84   1 H        0.926     0.051     2.312     2.378
    85   1 H        0.926     0.055     2.260     2.351
    86   1 H        0.926     0.052     2.299     2.371
    87   1 H        0.926     0.051     2.310     2.377
    88   1 H        0.925     0.006     2.954     2.688
    89   1 H        0.926     0.030     2.589     2.516
    90   1 H        0.926     0.039     2.455     2.450
    91   1 H        0.926     0.045     2.385     2.415
    92   1 H        0.926     0.043     2.409     2.427
    93   1 H        0.926     0.042     2.421     2.433
    94   1 H        0.926     0.042     2.425     2.435
    95   1 H        0.926     0.026     2.643     2.542
    96   1 H        0.926     0.066     2.127     2.281
    97   1 H        0.925     0.007     2.945     2.684
    98   1 H        0.926     0.030     2.590     2.517
    99   1 H        0.926     0.039     2.457     2.451
   100   1 H        0.926     0.045     2.387     2.416
   101   1 H        0.926     0.043     2.411     2.428
   102   1 H        0.926     0.042     2.420     2.432
   103   1 H        0.926     0.042     2.423     2.434
   104   1 H        0.926     0.026     2.641     2.541
   105   1 H        0.926     0.046     2.373     2.409
   106   1 H        0.926     0.051     2.312     2.378

molecular dipole:
                 x           y           z       tot (Debye)
 q only:       -0.005      -0.223       0.458
   full:       -0.011       0.101       0.441       1.150

 projected vibrational frequencies (cm⁻¹)
eigval :       -0.00    -0.00    -0.00    -0.00     0.00     0.00
eigval :        6.12    10.13    11.95    15.02    17.64    22.82
eigval :       26.32    27.60    28.63    30.61    38.97    40.25
eigval :       47.63    49.69    52.20    55.31    57.41    65.97
eigval :       75.14    83.17    92.72    97.59    99.23   105.16
eigval :      119.68   127.71   129.63   138.25   144.09   153.21
eigval :      158.91   168.46   180.86   191.11   192.73   196.12
eigval :      207.30   211.56   225.92   232.12   252.43   258.81
eigval :      262.12   267.23   275.08   276.58   301.83   322.05
eigval :      340.42   363.62   365.40   366.09   367.78   368.53
eigval :      369.20   387.68   393.08   398.47   400.25   404.98
eigval :      409.85   419.20   420.16   424.85   432.41   432.92
eigval :      443.52   445.77   453.54   477.73   498.39   514.99
eigval :      517.99   521.15   533.87   542.55   543.15   544.17
eigval :      547.18   578.82   586.14   586.95   587.28   587.37
eigval :      587.94   595.75   610.84   611.36   619.45   620.46
eigval :      627.65   628.54   628.63   632.93   641.92   646.23
eigval :      658.36   664.26   670.07   674.19   674.66   675.40
eigval :      675.76   690.77   698.56   707.52   708.57   715.78
eigval :      747.03   752.18   755.11   755.98   763.31   766.12
eigval :      769.05   775.10   775.79   777.38   780.41   795.87
eigval :      796.87   816.11   846.76   847.34   860.25   864.99
eigval :      870.06   871.00   873.66   876.50   877.56   879.18
eigval :      881.85   895.97   897.06   898.72   899.26   900.14
eigval :      901.43   907.03   910.50   911.29   911.83   912.34
eigval :      912.99   914.08   919.93   920.31   920.70   923.37
eigval :      928.49   929.52   931.21   932.84   933.43   934.13
eigval :      934.34   934.49   972.54   978.50   989.42   989.77
eigval :     1011.45  1011.87  1038.12  1046.15  1059.09  1064.83
eigval :     1068.61  1070.75  1071.97  1072.81  1074.28  1075.04
eigval :     1076.81  1081.47  1103.47  1108.04  1109.45  1112.00
eigval :     1112.94  1113.61  1146.38  1149.15  1150.55  1164.86
eigval :     1165.87  1168.65  1169.76  1175.14  1175.40  1176.14
eigval :     1177.28  1178.34  1178.53  1180.16  1180.62  1187.53
eigval :     1189.24  1200.12  1201.36  1209.18  1209.39  1212.58
eigval :     1218.04  1229.37  1233.17  1233.52  1249.35  1266.76
eigval :     1268.21  1269.00  1269.82  1292.21  1293.28  1297.01
eigval :     1297.59  1310.64  1323.01  1326.67  1327.94  1328.39
eigval :     1330.80  1337.73  1355.59  1356.38  1359.33  1359.55
eigval :     1363.66  1369.46  1370.34  1372.54  1374.13  1396.01
eigval :     1418.17  1419.32  1425.86  1426.10  1427.43  1427.74
eigval :     1429.78  1430.18  1456.35  1463.07  1463.32  1468.30
eigval :     1471.86  1472.57  1474.89  1483.57  1485.06  1485.18
eigval :     1501.89  1508.64  1517.29  1519.26  1539.26  1571.25
eigval :     1574.70  1575.53  1580.74  1580.91  1582.90  1583.11
eigval :     1589.61  1590.14  1591.79  1592.17  1593.01  1593.32
eigval :     1597.55  1597.76  1611.84  1612.45  3059.09  3059.90
eigval :     3077.03  3077.17  3080.38  3080.85  3081.11  3081.24
eigval :     3081.40  3081.97  3086.11  3086.33  3086.49  3086.76
eigval :     3086.95  3087.24  3087.47  3087.82  3093.05  3093.76
eigval :     3094.30  3094.45  3094.69  3094.95  3095.47  3098.12
eigval :     3098.14  3101.01  3101.21  3101.49  3101.77  3103.51
eigval :     3103.62  3104.68  3105.89  3106.97  3107.82  3109.13

   temp. (K)  partition function   enthalpy   heat capacity  entropy
                                   cal/mol     cal/K/mol   cal/K/mol   J/K/mol
 298.15  VIB  0.952E+27            31932.532    194.687    202.669
         ROT  0.178E+09              888.752      2.981     40.733
         INT  0.169E+36            32821.284    197.668    243.402
         TR   0.249E+29             1481.254      4.968     46.149
         TOT                       34302.5383   202.6361   289.5512  1211.4820

       T/K    H(0)-H(T)+PV         H(T)/Eh          T*S/Eh         G(T)/Eh
   ------------------------------------------------------------------------
    298.15    0.546646E-01    0.853424E+00    0.137575E+00    0.715849E+00
   ------------------------------------------------------------------------

         :::::::::::::::::::::::::::::::::::::::::::::::::::::
         ::                  THERMODYNAMIC                  ::
         :::::::::::::::::::::::::::::::::::::::::::::::::::::
         :: total free energy        -170.721725062494 Eh   ::
         ::.................................................::
         :: total energy             -171.437573827371 Eh   ::
         :: zero point energy           0.798759287964 Eh   ::
         :: G(RRHO) w/o ZPVE           -0.082910523087 Eh   ::
         :: G(RRHO) contrib.            0.715848764877 Eh   ::
         :::::::::::::::::::::::::::::::::::::::::::::::::::::

           -------------------------------------------------
          | TOTAL ENERGY             -171.437573827371 Eh   |
          | TOTAL ENTHALPY           -170.584149965104 Eh   |
          | TOTAL FREE ENERGY        -170.721725062494 Eh   |
          | GRADIENT NORM               0.000056192434 Eh/α |
          | HOMO-LUMO GAP               1.942033933996 eV   |
           -------------------------------------------------

 * finished run on 2025/08/25 at 02:03:48.786
