   * xtb version 6.7.1 (edcfbbe) compiled by 'albert@albert-system' on 2024-07-22

   ID    Z sym.   atoms
    1    6 C      1-5, 7-13, 15-19, 21-27, 29-35, 37, 39-52, 54-65, 67, 68
    2    7 N      6, 14, 20, 28, 36, 38, 53, 66
    3    1 H      69-106

          program call               : xtb data2507/toluene/m2Cz2Trz/m2Cz2Trz_toluene_T1_crest.xyz --gfn 2 --uhf 2 --gbsa toluene --ohess vtight --parallel 40 --molden --ceasefiles --namespace data2507/toluene/m2Cz2Trz/m2Cz2Trz_toluene_T1_finalOpt
      * Solvation model:               GBSA
        Solvent                        toluene
        Solvent mass                       9.2140E+01 g/mol
          :  Hamiltonian                  GFN2-xTB          :
 * total energy  :  -171.3628836 Eh     change        0.8768401E-07 Eh
 * total energy  :  -171.3630763 Eh     change       -0.1926263E-03 Eh
 * total energy  :  -171.3632065 Eh     change       -0.1302464E-03 Eh
 * total energy  :  -171.3632695 Eh     change       -0.6303185E-04 Eh
 * total energy  :  -171.3633716 Eh     change       -0.1020432E-03 Eh
 * total energy  :  -171.3635355 Eh     change       -0.1638980E-03 Eh
 * total energy  :  -171.3637266 Eh     change       -0.1910952E-03 Eh
 * total energy  :  -171.3638928 Eh     change       -0.1662041E-03 Eh
 * total energy  :  -171.3640162 Eh     change       -0.1234302E-03 Eh
 * total energy  :  -171.3641024 Eh     change       -0.8623359E-04 Eh
 * total energy  :  -171.3645992 Eh     change       -0.1506447E-05 Eh
 * total energy  :  -171.3646004 Eh     change       -0.1179535E-05 Eh
 * total energy  :  -171.3646014 Eh     change       -0.9339533E-06 Eh
 * total energy  :  -171.3646022 Eh     change       -0.8267747E-06 Eh
 * total energy  :  -171.3646030 Eh     change       -0.8243617E-06 Eh
 * total energy  :  -171.3646039 Eh     change       -0.8614111E-06 Eh
 * total energy  :  -171.3646048 Eh     change       -0.8948957E-06 Eh
 * total energy  :  -171.3646057 Eh     change       -0.8882676E-06 Eh
 * total energy  :  -171.3646057 Eh     change       -0.3864926E-08 Eh
   *** GEOMETRY OPTIMIZATION CONVERGED AFTER 68 ITERATIONS ***

 final structure:
================
106
 xtb: 6.7.1 (edcfbbe)
C           -8.19584728291590       -1.46581452491069        1.43206740746330
C           -8.28903997099656       -0.18160863311859        0.91716963585678
C           -7.14424109577794        0.55590490223586        0.68332646892303
C           -5.89307650851626        0.00721039617295        0.95692304371428
C           -4.67850809320613        0.77110349044923        0.67927706587010
N           -4.77694429843864        2.09143173985550        0.52718931098404
C           -3.62965358995376        2.74243637847158        0.27836122605036
C           -3.68989294385064        4.19861188166887        0.17116812108682
C           -4.87382943531200        4.87433501114252        0.46923725418061
C           -4.92980706692721        6.25126788293307        0.37420782552485
C           -3.81031929112969        6.96816080234737       -0.02027496484477
C           -2.63110682978977        6.30214611666016       -0.32027904171360
C           -2.56707658297628        4.92589954727658       -0.22497153258890
N           -2.45856750182459        2.15200960233999        0.11195035476945
C           -2.44867610867866        0.81766956436286        0.24349139498965
C           -1.21511916988279        0.11331003096282        0.00068637379428
C           -0.00201868056710        0.78019994110142        0.09360951415635
C            1.21658936930989        0.12229971569236       -0.00087833349836
C            2.44446858712764        0.83476887950048        0.24187997570090
N            2.44135311163243        2.17119770534213        0.12879044813864
C            3.60765299067471        2.77063004257557        0.29387973395130
C            3.65262396569767        4.22885525417652        0.20989494364905
C            4.84037605875673        4.90972737599951        0.48011046898699
C            4.88196451124238        6.28849173227638        0.40715706465351
C            3.74373429737767        7.00249835694677        0.06445855913625
C            2.56024385144826        6.33158322529614       -0.20645370013136
C            2.51092766982637        4.95340070983166       -0.13410956581913
N            4.76384107548428        2.12699746363347        0.52237699557005
C            4.67905671552404        0.80392911234121        0.65784307664086
C            5.90314352809610        0.04782878886573        0.91476354828961
C            5.83194923554065       -1.24602305608120        1.42685513452432
C            6.98873472263987       -1.96782476605410        1.64719628737829
C            8.22309387927579       -1.41037205651202        1.35049532504436
C            8.29959156717560       -0.12305237042299        0.84068892589296
C            7.14626213238152        0.60722970612338        0.62683352625136
N            3.54516567244318        0.13646175680669        0.56363410405115
C            1.21467696529565       -1.27886267422340       -0.27787371561033
N            2.41172457225570       -1.97346507783386       -0.48986268817118
C            3.35079196141471       -1.67297622767726       -1.45590478227812
C            3.33665410413118       -0.66671671683752       -2.41131333040970
C            4.42121141090612       -0.57502265647083       -3.26518876563375
C            5.48506563510051       -1.46954560998685       -3.18311683648760
C            5.48773363964083       -2.49453394544768       -2.25227400826141
C            4.41300375091861       -2.60378354293963       -1.38401875551601
C            4.07654407973692       -3.52178423092613       -0.32667277749309
C            4.70274307503898       -4.63347230997544        0.21482101941219
C            4.08931484456956       -5.29274679881294        1.26700859643398
C            2.87322703394742       -4.85030238585931        1.78520112937386
C            2.22938347434914       -3.74563962502905        1.26090835142466
C            2.83159933506312       -3.08957124031430        0.19399722260607
C            0.00775195529853       -1.94942724218914       -0.40018666246110
C           -1.20406403539431       -1.28792987157266       -0.27456880865652
N           -2.39690697880202       -1.99072836963162       -0.48274463200537
C           -3.34370868821059       -1.69207599027714       -1.44159036895067
C           -3.33908837525935       -0.68501065930328       -2.39632123915051
C           -4.43024000827082       -0.59507437588672       -3.24189345475549
C           -5.49140997417502       -1.49211208269588       -3.15248791497569
C           -5.48442085296261       -2.51819676915283       -2.22286352587936
C           -4.40282702715426       -2.62586880402607       -1.36298201366790
C           -4.05596199564629       -3.54411986952042       -0.30927710668046
C           -4.67520494740823       -4.65822000594828        0.23527437998291
C           -4.05245921889635       -5.31711223912337        1.28217857273572
C           -2.83393675550920       -4.87187884528324        1.79210380090178
C           -2.19695407847772       -3.76470939887466        1.26463241158076
C           -2.80861236803253       -3.10889905376986        0.20299861189902
N           -3.53918230973453        0.11268910053980        0.58272208033237
C           -5.80512948140937       -1.28348344766398        1.47447496950981
C           -6.95335615356082       -2.01275820735804        1.71410767756548
H           -9.09249625226053       -2.03903099503266        1.61554536205303
H           -9.25694681626275        0.24443751786369        0.69795870529711
H           -7.19580504885370        1.55588922732864        0.28014412951265
H           -5.73457230458384        4.30118108532603        0.77772438094901
H           -5.84832278060633        6.76883187620701        0.60856933957041
H           -3.85610157202841        8.04443651417377       -0.09463864697845
H           -1.76087448403909        6.86075403363227       -0.63078156933705
H           -1.65928920847831        4.39054655715905       -0.45683663005501
H           -0.00572293730088        1.83676539381098        0.31222086352270
H            5.71573072295565        4.33885864536110        0.74913293902019
H            5.80379024630589        6.80984484315374        0.61902400602395
H            3.77816209649795        8.08028824504894        0.00791708842051
H            1.67468198253828        6.88796284202983       -0.47466266093295
H            1.59967898862169        4.41463767136899       -0.34314942148733
H            4.86356229744741       -1.66458810057437        1.65397401253218
H            6.92670801753565       -2.96813663128798        2.04853307626992
H            9.12645039284400       -1.97772879818200        1.51861943471050
H            9.26115445919646        0.31119656731725        0.60998122844017
H            7.18512556913675        1.60963822322734        0.22824336323566
H            2.51027436231967        0.02653295876043       -2.48053926545023
H            4.44023210549037        0.20609582377146       -4.01099685328812
H            6.31534953535533       -1.36298984386913       -3.86464934771839
H            6.30913898132406       -3.19220599571248       -2.20132255268996
H            5.64993673594633       -4.97243955147969       -0.17473370004185
H            4.56130741715855       -6.16127055411293        1.70091643692800
H            2.42654074110827       -5.37938814486751        2.61342880266554
H            1.29499448697059       -3.39375279696374        1.66989632319082
H            0.01142047746146       -3.00228609561730       -0.64618294463406
H           -2.51467239117614        0.00994891017342       -2.47153744913886
H           -4.45667705079976        0.18666668584840       -3.98683721939619
H           -6.32726456007459       -1.38672812811409       -3.82737807672345
H           -6.30379159916072       -3.21784249615508       -2.16637432737922
H           -5.62426287075900       -4.99922185757770       -0.14793502384327
H           -4.51894631438544       -6.18749131043763        1.71833098670136
H           -2.37979623684489       -5.40073334103162        2.61643032022268
H           -1.26056564783532       -3.41102061646262        1.66740058329088
H           -4.83056394518711       -1.69374029091334        1.69000133639283
H           -6.87839258195405       -3.01069695740166        2.11911886370673

          :  Hamiltonian                  GFN2-xTB          :
         :: gradient norm              0.000054292232 Eh/a0 ::
         :: HOMO-LUMO gap              0.251172933138 eV    ::
         :: SCC energy              -174.478812087099 Eh    ::
         :: -> dispersion             -0.171419655514 Eh    ::
         :: -> Gsolv                  -0.078886747887 Eh    ::
         :: repulsion energy           3.114206431580 Eh    ::

    * Orbital Energies and Occupations

         #    Occupation            Energy/Eh            Energy/eV
      -------------------------------------------------------------
         1        2.0000           -0.6918075             -18.8250
       ...           ...                  ...                  ...
       148        2.0000           -0.4118420             -11.2068
       149        2.0000           -0.4115830             -11.1997
       150        2.0000           -0.4105457             -11.1715
       151        2.0000           -0.4101467             -11.1607
       152        2.0000           -0.3938093             -10.7161
       153        2.0000           -0.3937457             -10.7144
       154        2.0000           -0.3848650             -10.4727
       155        2.0000           -0.3840412             -10.4503
       156        1.9954           -0.3792527             -10.3200
       157        1.9892           -0.3784233             -10.2974
       158        1.7573           -0.3752150             -10.2101
       159        1.2581           -0.3731308             -10.1534
       160        0.9901           -0.2987070              -8.1282 (HOMO)
       161        0.0060           -0.2894769              -7.8771 (LUMO)
       162        0.0022           -0.2885079              -7.8507
       163        0.0018           -0.2883289              -7.8458
       164                         -0.2595006              -7.0614
       165                         -0.2594638              -7.0604
       166                         -0.2528132              -6.8794
       167                         -0.2494460              -6.7878
       168                         -0.2371533              -6.4533
       169                         -0.2371095              -6.4521
       170                         -0.2331432              -6.3442
       171                         -0.2331127              -6.3433
       ...                                ...                  ...
       310                          0.7315775              19.9072
      -------------------------------------------------------------
                  HL-Gap            0.0092302 Eh            0.2512 eV

     #   Z          covCN         q      C6AA      α(0)
     1   6 C        2.920    -0.024    28.601     8.770
     2   6 C        2.918    -0.028    28.694     8.784
     3   6 C        2.924    -0.026    28.661     8.779
     4   6 C        2.984    -0.009    28.243     8.717
     5   6 C        2.959     0.217    23.437     7.941
     6   7 N        1.844    -0.332    29.458     8.044
     7   6 C        2.969     0.214    23.485     7.949
     8   6 C        2.983    -0.010    28.261     8.720
     9   6 C        2.924    -0.029    28.722     8.789
    10   6 C        2.918    -0.029    28.718     8.788
    11   6 C        2.920    -0.026    28.651     8.778
    12   6 C        2.918    -0.029    28.723     8.789
    13   6 C        2.923    -0.029    28.720     8.788
    14   7 N        1.844    -0.332    29.477     8.046
    15   6 C        2.968     0.212    23.522     7.955
    16   6 C        2.977    -0.018    28.446     8.749
    17   6 C        2.928    -0.028    28.695     8.785
    18   6 C        2.977    -0.018    28.451     8.749
    19   6 C        2.967     0.211    23.541     7.959
    20   7 N        1.844    -0.332    29.464     8.045
    21   6 C        2.969     0.214    23.491     7.950
    22   6 C        2.983    -0.010    28.261     8.720
    23   6 C        2.923    -0.029    28.724     8.789
    24   6 C        2.918    -0.029    28.720     8.788
    25   6 C        2.920    -0.026    28.652     8.778
    26   6 C        2.918    -0.029    28.724     8.789
    27   6 C        2.923    -0.029    28.721     8.789
    28   7 N        1.844    -0.332    29.461     8.044
    29   6 C        2.958     0.217    23.439     7.941
    30   6 C        2.984    -0.009    28.240     8.717
    31   6 C        2.924    -0.026    28.650     8.778
    32   6 C        2.918    -0.027    28.687     8.783
    33   6 C        2.920    -0.024    28.602     8.770
    34   6 C        2.918    -0.028    28.694     8.784
    35   6 C        2.924    -0.026    28.660     8.779
    36   7 N        1.846    -0.299    28.606     7.927
    37   6 C        2.911     0.037    27.168     8.547
    38   7 N        2.802    -0.008    21.406     6.872
    39   6 C        3.080     0.056    26.668     8.466
    40   6 C        2.909    -0.043    29.075     8.842
    41   6 C        2.923    -0.034    28.857     8.809
    42   6 C        2.920    -0.037    28.924     8.819
    43   6 C        2.912    -0.031    28.768     8.795
    44   6 C        3.065    -0.013    28.281     8.720
    45   6 C        3.066    -0.009    28.179     8.705
    46   6 C        2.911    -0.029    28.719     8.788
    47   6 C        2.920    -0.033    28.811     8.802
    48   6 C        2.922    -0.031    28.773     8.797
    49   6 C        2.909    -0.043    29.063     8.840
    50   6 C        3.078     0.050    26.791     8.486
    51   6 C        2.919    -0.057    29.424     8.895
    52   6 C        2.911     0.037    27.169     8.547
    53   7 N        2.802    -0.008    21.414     6.873
    54   6 C        3.080     0.056    26.667     8.466
    55   6 C        2.909    -0.043    29.079     8.842
    56   6 C        2.923    -0.034    28.858     8.810
    57   6 C        2.920    -0.037    28.926     8.820
    58   6 C        2.912    -0.031    28.770     8.795
    59   6 C        3.065    -0.013    28.283     8.721
    60   6 C        3.066    -0.009    28.182     8.705
    61   6 C        2.911    -0.029    28.720     8.788
    62   6 C        2.920    -0.033    28.812     8.802
    63   6 C        2.922    -0.031    28.774     8.797
    64   6 C        2.909    -0.043    29.065     8.840
    65   6 C        3.078     0.050    26.791     8.486
    66   7 N        1.846    -0.300    28.625     7.929
    67   6 C        2.924    -0.026    28.650     8.778
    68   6 C        2.918    -0.027    28.687     8.783
    69   1 H        0.926     0.051     2.307     2.375
    70   1 H        0.926     0.048     2.350     2.397
    71   1 H        0.926     0.046     2.374     2.409
    72   1 H        0.926     0.048     2.348     2.396
    73   1 H        0.926     0.046     2.369     2.407
    74   1 H        0.926     0.048     2.342     2.393
    75   1 H        0.926     0.044     2.401     2.423
    76   1 H        0.926     0.042     2.419     2.432
    77   1 H        0.926     0.063     2.169     2.303
    78   1 H        0.926     0.048     2.347     2.396
    79   1 H        0.926     0.046     2.370     2.407
    80   1 H        0.926     0.048     2.343     2.394
    81   1 H        0.926     0.044     2.402     2.423
    82   1 H        0.926     0.042     2.420     2.432
    83   1 H        0.926     0.040     2.442     2.444
    84   1 H        0.926     0.048     2.345     2.395
    85   1 H        0.926     0.051     2.308     2.376
    86   1 H        0.926     0.048     2.351     2.398
    87   1 H        0.926     0.046     2.377     2.411
    88   1 H        0.926     0.017     2.783     2.609
    89   1 H        0.926     0.036     2.498     2.472
    90   1 H        0.926     0.045     2.387     2.416
    91   1 H        0.926     0.050     2.325     2.385
    92   1 H        0.926     0.049     2.331     2.388
    93   1 H        0.926     0.048     2.340     2.392
    94   1 H        0.926     0.047     2.359     2.402
    95   1 H        0.926     0.034     2.529     2.487
    96   1 H        0.925     0.051     2.310     2.377
    97   1 H        0.926     0.017     2.784     2.609
    98   1 H        0.926     0.036     2.500     2.473
    99   1 H        0.926     0.045     2.389     2.417
   100   1 H        0.926     0.049     2.327     2.385
   101   1 H        0.926     0.049     2.333     2.389
   102   1 H        0.926     0.048     2.341     2.393
   103   1 H        0.926     0.047     2.360     2.402
   104   1 H        0.926     0.034     2.528     2.486
   105   1 H        0.926     0.041     2.440     2.443
   106   1 H        0.926     0.048     2.346     2.395

molecular dipole:
                 x           y           z       tot (Debye)
 q only:        0.009      -2.375      -0.064
   full:        0.008      -2.048      -0.072       5.208

 projected vibrational frequencies (cm⁻¹)
eigval :       -0.00    -0.00    -0.00    -0.00     0.00     0.00
eigval :       -4.35    11.33    13.14    18.41    22.38    25.05
eigval :       27.71    29.59    30.54    31.25    35.60    49.55
eigval :       50.08    52.26    53.92    58.44    63.37    66.17
eigval :       80.43    81.30    94.39   102.20   105.07   107.28
eigval :      119.35   124.21   126.41   138.21   139.84   146.68
eigval :      160.84   163.33   187.57   192.46   195.77   200.70
eigval :      212.06   212.93   226.84   231.43   247.45   254.71
eigval :      256.73   262.33   271.82   272.26   292.07   326.38
eigval :      342.25   355.15   368.22   368.69   370.01   371.37
eigval :      371.64   378.04   382.56   394.36   396.12   403.04
eigval :      409.17   418.89   419.97   421.06   423.13   427.81
eigval :      429.00   434.28   447.78   481.88   483.00   501.14
eigval :      514.59   514.76   535.99   536.75   539.10   541.77
eigval :      544.55   570.12   583.83   585.67   585.77   587.08
eigval :      587.35   588.44   595.00   596.80   598.88   601.31
eigval :      607.34   607.70   621.61   622.14   633.86   638.72
eigval :      650.85   660.18   661.56   671.17   672.43   672.74
eigval :      673.75   674.95   677.59   689.16   707.83   708.26
eigval :      732.34   733.74   739.79   754.10   757.57   765.33
eigval :      767.57   769.82   769.95   774.07   774.61   775.07
eigval :      776.41   784.49   830.83   834.47   861.94   864.30
eigval :      872.71   873.88   874.53   875.58   876.56   878.82
eigval :      879.01   886.67   895.45   897.84   898.58   900.45
eigval :      902.88   903.12   904.05   904.73   906.26   907.69
eigval :      910.46   910.82   917.04   918.83   919.03   920.31
eigval :      926.27   929.62   929.97   930.19   931.38   931.48
eigval :      933.34   933.52   963.22   966.45   985.13   985.99
eigval :     1005.74  1009.87  1010.16  1011.42  1035.30  1060.55
eigval :     1063.25  1063.86  1068.21  1069.90  1072.87  1075.06
eigval :     1075.56  1076.99  1077.66  1096.72  1106.24  1107.01
eigval :     1109.43  1112.04  1113.69  1136.58  1137.01  1139.89
eigval :     1140.62  1157.79  1159.18  1163.12  1173.17  1173.92
eigval :     1175.00  1175.34  1176.21  1176.44  1177.37  1177.44
eigval :     1181.22  1181.62  1189.95  1193.49  1197.85  1201.82
eigval :     1204.47  1222.33  1223.50  1228.26  1229.49  1238.11
eigval :     1246.84  1248.80  1267.10  1268.95  1269.87  1270.26
eigval :     1276.41  1278.98  1285.94  1287.50  1309.63  1311.76
eigval :     1326.07  1327.53  1328.07  1328.39  1335.88  1336.54
eigval :     1342.73  1344.89  1345.37  1359.50  1360.45  1378.93
eigval :     1379.15  1392.43  1396.76  1407.65  1410.14  1422.29
eigval :     1423.00  1427.75  1432.54  1432.64  1436.11  1438.17
eigval :     1455.64  1458.03  1461.68  1463.57  1469.39  1469.59
eigval :     1471.75  1476.10  1478.87  1479.42  1487.20  1520.82
eigval :     1562.99  1563.28  1575.07  1575.79  1576.14  1576.35
eigval :     1579.39  1580.12  1580.93  1580.99  1586.25  1589.28
eigval :     1590.97  1592.22  1596.12  1599.46  3070.43  3070.74
eigval :     3077.60  3077.95  3078.43  3078.65  3078.79  3081.78
eigval :     3081.89  3081.92  3082.35  3082.80  3083.45  3083.95
eigval :     3084.06  3088.56  3089.09  3089.81  3090.04  3091.17
eigval :     3091.52  3091.54  3091.75  3095.71  3096.36  3097.24
eigval :     3097.46  3099.37  3099.75  3099.79  3099.93  3101.42
eigval :     3101.57  3101.69  3101.90  3101.96  3102.66  3104.99

   temp. (K)  partition function   enthalpy   heat capacity  entropy
                                   cal/mol     cal/K/mol   cal/K/mol   J/K/mol
 298.15  VIB  0.430E+27            32129.990    197.344    203.282
         ROT  0.179E+09              888.752      2.981     40.747
         INT  0.770E+35            33018.742    200.325    244.028
         TR   0.249E+29             1481.254      4.968     46.149
         TOT                       34499.9959   205.2927   290.1774  1214.1020

       T/K    H(0)-H(T)+PV         H(T)/Eh          T*S/Eh         G(T)/Eh
   ------------------------------------------------------------------------
    298.15    0.549792E-01    0.848209E+00    0.137873E+00    0.710337E+00
   ------------------------------------------------------------------------

         :::::::::::::::::::::::::::::::::::::::::::::::::::::
         ::                  THERMODYNAMIC                  ::
         :::::::::::::::::::::::::::::::::::::::::::::::::::::
         :: total free energy        -170.654268839171 Eh   ::
         ::.................................................::
         :: total energy             -171.364605655674 Eh   ::
         :: zero point energy           0.793230196964 Eh   ::
         :: G(RRHO) w/o ZPVE           -0.082893380461 Eh   ::
         :: G(RRHO) contrib.            0.710336816503 Eh   ::
         :::::::::::::::::::::::::::::::::::::::::::::::::::::

           -------------------------------------------------
          | TOTAL ENERGY             -171.364605655674 Eh   |
          | TOTAL ENTHALPY           -170.516396215626 Eh   |
          | TOTAL FREE ENERGY        -170.654268839171 Eh   |
          | GRADIENT NORM               0.000054218743 Eh/α |
          | HOMO-LUMO GAP               0.251165383028 eV   |
           -------------------------------------------------

 * finished run on 2025/08/25 at 02:23:53.022
