   * xtb version 6.7.1 (edcfbbe) compiled by 'albert@albert-system' on 2024-07-22

   ID    Z sym.   atoms
    1    6 C      1-18, 20-43
    2    7 N      19
    3    1 H      44-70

          program call               : xtb data2507/gas/pCzAnN/pCzAnN_gas_S0_finalOpt.xtbopt.xyz --gfn 2 --spinpol --tblite --uhf 2 --ohess vtight --parallel 40 --molden --ceasefiles --namespace data2507/gas/pCzAnN/pCzAnN_gas_T1_preOpt
 * total energy  :  -106.5957560 Eh     change        0.1180935E-07 Eh
 * total energy  :  -106.6019707 Eh     change       -0.6214632E-02 Eh
 * total energy  :  -106.6034407 Eh     change       -0.1470007E-02 Eh
 * total energy  :  -106.6035749 Eh     change       -0.1341883E-03 Eh
 * total energy  :  -106.6037160 Eh     change       -0.1411804E-03 Eh
 * total energy  :  -106.6037941 Eh     change       -0.7808601E-04 Eh
 * total energy  :  -106.6038895 Eh     change       -0.9534017E-04 Eh
 * total energy  :  -106.6039884 Eh     change       -0.9891174E-04 Eh
 * total energy  :  -106.6040605 Eh     change       -0.7213407E-04 Eh
 * total energy  :  -106.6041168 Eh     change       -0.5632387E-04 Eh
 * total energy  :  -106.6049281 Eh     change       -0.1068331E-05 Eh
 * total energy  :  -106.6049291 Eh     change       -0.9359765E-06 Eh
 * total energy  :  -106.6049295 Eh     change       -0.4820867E-06 Eh
 * total energy  :  -106.6049298 Eh     change       -0.2575640E-06 Eh
 * total energy  :  -106.6049300 Eh     change       -0.1753413E-06 Eh
 * total energy  :  -106.6049302 Eh     change       -0.2423181E-06 Eh
 * total energy  :  -106.6049304 Eh     change       -0.1482978E-06 Eh
 * total energy  :  -106.6049305 Eh     change       -0.1057227E-06 Eh
 * total energy  :  -106.6049306 Eh     change       -0.9349735E-07 Eh
   *** GEOMETRY OPTIMIZATION CONVERGED AFTER 65 ITERATIONS ***

 final structure:
================
70
 xtb: 6.7.1 (edcfbbe)
C            9.86300068043433       -0.30890058873581       -0.44038174523080
C            9.24436007622761       -0.98684102484473       -1.50185433521827
C            7.88131801357871       -1.03398820846639       -1.59156251298495
C            7.07276789876583       -0.40304923219110       -0.62119892321255
C            5.66867401593618       -0.43863140968389       -0.68500627003309
C            4.88563702389519        0.18965556189152        0.26313293666303
C            3.42824582688861        0.15055108868487        0.19490530910997
C            2.68778737476341        1.37447610723461        0.19042874807142
C            3.32565353410041        2.61644034799825        0.14809006551821
C            2.60622254552505        3.80669713843321        0.23263779189000
C            1.23612480242574        3.76997263059236        0.36891103358587
C            0.57059836522345        2.54592359491199        0.35128574357604
C            1.26225608290526        1.34137491534657        0.20469925711415
C            0.58167810636195        0.08715960209577        0.10083114569279
C           -0.87518976608479        0.05298668693583        0.06037822849567
C           -1.58828814216667        0.79263955155032       -0.89007865021825
C           -2.96455358897262        0.75300627658046       -0.93737735268090
C           -3.67834490910330       -0.01236985197347       -0.01603173397661
N           -5.07611319418111       -0.04472434245359       -0.05389125203412
C           -5.85935464350406       -1.18212522929786       -0.02745187827342
C           -5.48055515121249       -2.51701907931918       -0.01301820055039
C           -6.47967120787296       -3.47154849248224       -0.01706020875644
C           -7.82611962661347       -3.11561912400579       -0.04465718554973
C           -8.20892201453427       -1.78961322742108       -0.08620707582834
C           -7.22296586466480       -0.81231144283714       -0.08266045845603
C           -7.25470368804251        0.62257399713975       -0.14009445440168
C           -8.28367968990188        1.55313538555616       -0.19016569930461
C           -7.96105739492721        2.89549842233063       -0.21328800494567
C           -6.63297211744372        3.31345482236517       -0.17008448256403
C           -5.59189867538575        2.40625227943878       -0.11972632444547
C           -5.90867143380737        1.05522298356269       -0.12336535093910
C           -2.98089002668028       -0.74532965067128        0.94343040375540
C           -1.60376509750259       -0.72086080786936        0.97105666693208
C            1.32442204914290       -1.13450834652200        0.03520291008532
C            0.69607662384212       -2.36636839012588       -0.15992192027834
C            1.41326083809853       -3.56089659363109       -0.14284829560249
C            2.77309751144243       -3.53936400147270        0.07472309662200
C            3.43337620610094       -2.32024320778733        0.21176888730159
C            2.74662608698147       -1.10599740629969        0.14041808627302
C            5.52648681041357        0.87844660542812        1.32284219382635
C            6.88531036704099        0.91559290606253        1.41704907117781
C            7.70099890140553        0.28498594525265        0.45084612716836
C            9.10665468783914        0.31335888460867        0.51559184751109
H           10.94148760723483       -0.28212074945278       -0.38519264430713
H            9.85651421341399       -1.47152885715776       -2.24857752424156
H            7.40003113088581       -1.55630295442481       -2.40638009788014
H            5.19872328668826       -0.94375896467551       -1.51759699579145
H            4.39907735371078        2.65961988171454        0.04484038865302
H            3.13145254748830        4.74972290941171        0.20556258101132
H            0.66922041176921        4.68286625373061        0.47532334035394
H           -0.50303119869734        2.53306018088197        0.46029855683917
H           -1.04385042726952        1.36838240059283       -1.62423951658084
H           -3.49823122040294        1.29641477008950       -1.70291061106337
H           -4.44009635832107       -2.80471593602067       -0.01149438502230
H           -6.21008912428829       -4.51733511490206       -0.00253158662797
H           -8.57716068580799       -3.89149090837279       -0.04368931890822
H           -9.25185249239514       -1.51354566494287       -0.12554465875029
H           -9.31331750529374        1.22899190760106       -0.20572716244296
H           -8.74613016739266        3.63573662504252       -0.25515440457089
H           -6.41173518043270        4.37062501642001       -0.17195569384604
H           -4.56727222929248        2.74187153049195       -0.06659241535880
H           -3.52956201084729       -1.31431097777981        1.67919967320231
H           -1.07373938372425       -1.27263154641118        1.73364230180434
H           -0.36838220708070       -2.39833708095849       -0.33517011942404
H            0.89384821458719       -4.49635683481361       -0.28829929931544
H            3.33671284818262       -4.45892001114537        0.12665121772739
H            4.49910960250697       -2.31860185498444        0.38159981737509
H            4.91262816289423        1.34658041889051        2.07903570280578
H            7.36144292209850        1.42752447138178        2.24168266530223
H            9.57867846364610        0.83741296896557        1.33484403747169

 projected vibrational frequencies (cm⁻¹)
eigval :       -0.00    -0.00    -0.00     0.00     0.00     0.00
eigval :       10.01    15.23    18.26    33.21    36.97    46.41
eigval :       55.40    70.06    82.65    83.88   104.77   105.47
eigval :      129.27   141.13   147.52   164.04   173.07   185.33
eigval :      194.53   210.04   212.19   233.29   261.75   271.92
eigval :      295.15   310.10   336.90   351.02   368.40   369.26
eigval :      382.52   387.78   389.78   398.49   408.90   413.31
eigval :      422.01   425.73   430.59   443.55   451.30   471.58
eigval :      481.74   495.89   502.13   518.62   536.40   540.70
eigval :      542.64   563.26   569.73   576.19   580.76   586.80
eigval :      595.21   605.96   611.92   623.77   641.27   648.28
eigval :      673.33   674.23   690.23   692.36   708.76   715.97
eigval :      721.79   731.49   748.32   755.73   757.29   761.35
eigval :      769.58   780.58   792.89   813.90   821.72   835.13
eigval :      845.46   850.39   866.29   872.22   873.89   878.46
eigval :      884.71   885.52   890.67   894.94   897.69   898.38
eigval :      900.25   903.46   903.77   905.94   907.27   914.04
eigval :      921.37   921.89   926.48   931.46   932.03   939.21
eigval :      945.73   950.36   992.92  1011.98  1019.93  1070.56
eigval :     1074.06  1079.55  1101.57  1105.09  1114.72  1117.60
eigval :     1123.05  1135.65  1143.17  1152.17  1173.64  1175.24
eigval :     1176.75  1179.46  1181.06  1181.77  1182.52  1183.67
eigval :     1189.07  1205.46  1218.84  1229.33  1234.03  1236.11
eigval :     1244.76  1253.43  1260.09  1261.30  1268.72  1290.52
eigval :     1297.26  1300.18  1301.36  1311.42  1325.43  1332.93
eigval :     1358.05  1360.80  1363.11  1364.49  1372.64  1374.41
eigval :     1378.25  1394.42  1408.80  1409.41  1425.34  1426.51
eigval :     1426.86  1429.53  1445.18  1473.03  1474.31  1485.86
eigval :     1487.59  1488.15  1494.34  1519.95  1530.77  1535.13
eigval :     1545.73  1557.63  1574.18  1577.23  1586.40  1588.53
eigval :     1596.89  1604.37  1612.83  3065.42  3067.49  3069.74
eigval :     3072.00  3076.65  3076.84  3076.92  3077.25  3079.59
eigval :     3079.66  3081.07  3081.83  3082.12  3083.61  3085.22
eigval :     3085.52  3089.16  3089.63  3091.18  3092.40  3093.06
eigval :     3094.50  3095.15  3095.41  3097.22  3098.73  3098.80

   temp. (K)  partition function   enthalpy   heat capacity  entropy
                                   cal/mol     cal/K/mol   cal/K/mol   J/K/mol
 298.15  VIB  0.670E+14            18758.907    124.311    114.367
         ROT  0.642E+08              888.752      2.981     38.706
         INT  0.430E+22            19647.660    127.291    153.073
         TR   0.123E+29             1481.254      4.968     44.756
         TOT                       21128.9137   132.2596   197.8285   827.7143

       T/K    H(0)-H(T)+PV         H(T)/Eh          T*S/Eh         G(T)/Eh
   ------------------------------------------------------------------------
    298.15    0.336711E-01    0.572535E+00    0.939947E-01    0.478540E+00
   ------------------------------------------------------------------------

         :::::::::::::::::::::::::::::::::::::::::::::::::::::
         ::                  THERMODYNAMIC                  ::
         :::::::::::::::::::::::::::::::::::::::::::::::::::::
         :: total free energy        -106.126390512788 Eh   ::
         ::.................................................::
         :: total energy             -106.604930573771 Eh   ::
         :: zero point energy           0.538863680988 Eh   ::
         :: G(RRHO) w/o ZPVE           -0.060323620005 Eh   ::
         :: G(RRHO) contrib.            0.478540060984 Eh   ::
         :::::::::::::::::::::::::::::::::::::::::::::::::::::

           -------------------------------------------------
          | TOTAL ENERGY             -106.604930573771 Eh   |
          | TOTAL ENTHALPY           -106.032395825587 Eh   |
          | TOTAL FREE ENERGY        -106.126390512788 Eh   |
          | GRADIENT NORM               0.000030975344 Eh/α |
           -------------------------------------------------

 * finished run on 2025/07/20 at 18:34:18.435
