   * xtb version 6.7.1 (edcfbbe) compiled by 'albert@albert-system' on 2024-07-22

   ID    Z sym.   atoms
    1    6 C      1-18, 20-43
    2    7 N      19
    3    1 H      44-70

          program call               : xtb data2507/gas/pCzAnN/pCzAnN_gas_T1_crest.xyz --gfn 2 --spinpol --tblite --uhf 2 --ohess vtight --parallel 40 --molden --ceasefiles --namespace data2507/gas/pCzAnN/pCzAnN_gas_T1_finalOpt
 * total energy  :  -106.6047980 Eh     change       -0.1532838E-07 Eh
 * total energy  :  -106.6048425 Eh     change       -0.4448792E-04 Eh
 * total energy  :  -106.6048587 Eh     change       -0.1624497E-04 Eh
 * total energy  :  -106.6048664 Eh     change       -0.7678239E-05 Eh
 * total energy  :  -106.6048771 Eh     change       -0.1067484E-04 Eh
 * total energy  :  -106.6048870 Eh     change       -0.9879163E-05 Eh
 * total energy  :  -106.6048970 Eh     change       -0.1007974E-04 Eh
 * total energy  :  -106.6049034 Eh     change       -0.6400140E-05 Eh
 * total energy  :  -106.6049072 Eh     change       -0.3725449E-05 Eh
 * total energy  :  -106.6049100 Eh     change       -0.2790473E-05 Eh
 * total energy  :  -106.6049290 Eh     change       -0.6479543E-06 Eh
 * total energy  :  -106.6049296 Eh     change       -0.5579864E-06 Eh
 * total energy  :  -106.6049299 Eh     change       -0.3341615E-06 Eh
 * total energy  :  -106.6049302 Eh     change       -0.3030630E-06 Eh
 * total energy  :  -106.6049305 Eh     change       -0.3219469E-06 Eh
 * total energy  :  -106.6049309 Eh     change       -0.3484181E-06 Eh
 * total energy  :  -106.6049311 Eh     change       -0.2477419E-06 Eh
 * total energy  :  -106.6049312 Eh     change       -0.1187915E-06 Eh
 * total energy  :  -106.6049313 Eh     change       -0.7457233E-07 Eh
   *** GEOMETRY OPTIMIZATION CONVERGED AFTER 39 ITERATIONS ***

 final structure:
================
70
 xtb: 6.7.1 (edcfbbe)
C            9.86276883755878       -0.31677608902860       -0.42922209168675
C            9.24406615196881       -1.05532766713198       -1.44941740901917
C            7.88100450990298       -1.11083144261329       -1.53380621380069
C            7.07249918810820       -0.42755528878746       -0.59953792794387
C            5.66838011897400       -0.47004176449617       -0.65870448307036
C            4.88546445149410        0.21030050754026        0.25280863021507
C            3.42797240796696        0.16429054581915        0.18908696327300
C            2.68507867752139        1.38421908431621        0.11250892856697
C            3.32057044314797        2.62266055953087       -0.00431567589932
C            2.59896322250119        3.81447068336122        0.01000017522244
C            1.22913646280094        3.78328055838318        0.15035269917905
C            0.56599544891406        2.55908886277911        0.20672890108624
C            1.25964150323407        1.34920596835627        0.13042860089836
C            0.58137442116996        0.08960918291033        0.10137385396906
C           -0.87520255447523        0.05056773422473        0.06251426808015
C           -1.58906486753472        0.73597304258383       -0.92741276955708
C           -2.96521119152576        0.69238128685297       -0.97263446897137
C           -3.67829694058561       -0.02300824240751       -0.01144103362275
N           -5.07606317984505       -0.05890615180663       -0.04818250676963
C           -5.85812792176561       -1.19438383095508        0.03342619954092
C           -5.47771601138325       -2.52638237213420        0.11492336377791
C           -6.47571067561397       -3.48122164660458        0.15554132339443
C           -7.82249140154364       -3.12874670239498        0.10711363127259
C           -8.20680023637544       -1.80686245287952       -0.00022075100769
C           -7.22202749699152       -0.82927104332467       -0.04251924186351
C           -7.25510088695307        0.60102368969701       -0.17072179925203
C           -8.28470967610642        1.52716374047890       -0.26783828140897
C           -7.96305676423988        2.86702878681045       -0.35668482854159
C           -6.63535217648717        3.28779050766376       -0.33290315837985
C           -5.59364158378846        2.38505890437623       -0.23666485248559
C           -5.90949448396869        1.03530186128045       -0.17355740992906
C           -2.98034816920082       -0.70203327580586        0.98652895114407
C           -1.60329004845605       -0.67342684804140        1.01384149040429
C            1.32676058909846       -1.13233978225143        0.10819855420200
C            0.70135395995921       -2.37512124260426       -0.01309044470607
C            1.42122717743295       -3.56488061458215        0.07541133613099
C            2.78108240146539       -3.52739874481290        0.29072284727840
C            3.43862782694259       -2.30080291266758        0.35384320096190
C            2.74895997263524       -1.09456426225109        0.21062498471229
C            5.52624961678994        0.96057291247632        1.26989630243815
C            6.88513921730304        1.00567391391133        1.35985259919505
C            7.70076335495000        0.32215720849379        0.43029053747155
C            9.10646723420701        0.35717167180476        0.49105419175185
H           10.94127514307924       -0.28449172136658       -0.37746410017217
H            9.85619666342549       -1.58010213230032       -2.16854839277558
H            7.39966532437954       -1.67978295278249       -2.31673555451498
H            5.19824117724791       -1.02368626876778       -1.45974703268256
H            4.39381401574099        2.66150737625970       -0.11110601732731
H            3.12225721077842        4.75520495511378       -0.07412570807769
H            0.66054249730797        4.69979589256386        0.20303400529310
H           -0.50738283674146        2.55093277416051        0.31855026820934
H           -1.04516186797424        1.27097291865350       -1.69214849473441
H           -3.49951175665015        1.19311846348422       -1.76634053869651
H           -4.43685305837808       -2.81206800313855        0.13341178142136
H           -6.20500964230803       -4.52469082663514        0.22221477435660
H           -8.57263318763886       -3.90460831670647        0.14416450242484
H           -9.24997542531463       -1.53446114115513       -0.05544714612759
H           -9.31410127258265        1.20186612322803       -0.26856136344443
H           -8.74867052287270        3.60364972600878       -0.43571821059096
H           -6.41498317582793        4.34376467479249       -0.38683073809539
H           -4.56922277772257        2.72348432773934       -0.19938836393002
H           -3.52869411149787       -1.23159189822212        1.75142342796843
H           -1.07303441934568       -1.18124713908129        1.80621577130373
H           -0.36294826307813       -2.42013352109132       -0.18632805382942
H            0.90383049084672       -4.50851087666556       -0.01342666520944
H            3.34674559228321       -4.44094454290979        0.39747945835600
H            4.50451988813073       -2.28647587239898        0.52210425552595
H            4.91242071821093        1.47059535199795        1.99852371539917
H            7.36135727705777        1.56521327212773        2.15290309158086
H            9.57853623144127        0.92804091672581        1.27836516091849

 projected vibrational frequencies (cm⁻¹)
eigval :       -0.00    -0.00    -0.00     0.00     0.00     0.00
eigval :       10.09    15.30    18.32    33.32    36.92    46.33
eigval :       55.48    70.07    82.63    84.00   104.78   105.61
eigval :      129.74   141.07   147.42   164.13   173.01   185.26
eigval :      194.42   210.15   212.32   233.37   261.72   271.84
eigval :      295.13   310.25   336.85   351.13   368.45   369.21
eigval :      382.54   387.80   389.77   398.48   408.97   413.59
eigval :      422.14   425.80   430.66   443.53   451.26   471.59
eigval :      481.83   495.95   502.08   518.68   536.34   540.70
eigval :      542.74   563.32   569.70   576.26   580.83   586.82
eigval :      595.29   605.99   611.91   623.78   641.32   648.40
eigval :      673.35   674.20   690.74   692.35   708.75   715.98
eigval :      721.80   731.69   748.36   755.81   757.37   761.35
eigval :      769.51   780.54   792.84   813.90   821.80   835.19
eigval :      845.54   850.44   866.36   872.29   873.82   878.44
eigval :      884.73   885.53   890.73   895.00   897.66   898.36
eigval :      900.25   903.42   903.73   905.94   907.25   914.11
eigval :      921.42   921.88   926.56   931.44   932.16   939.44
eigval :      946.14   950.24   992.98  1012.00  1020.33  1070.37
eigval :     1073.99  1079.51  1101.91  1105.42  1114.72  1117.59
eigval :     1123.05  1135.70  1143.37  1152.17  1173.74  1175.21
eigval :     1176.81  1179.58  1181.21  1181.97  1182.65  1183.85
eigval :     1188.36  1205.48  1218.94  1229.33  1234.02  1236.19
eigval :     1244.96  1253.47  1260.29  1261.38  1268.94  1290.66
eigval :     1297.45  1300.17  1301.51  1311.51  1325.37  1332.91
eigval :     1358.06  1360.88  1363.22  1364.54  1372.71  1374.42
eigval :     1378.52  1394.49  1408.84  1409.62  1425.44  1426.67
eigval :     1427.00  1429.51  1445.46  1473.12  1474.48  1485.80
eigval :     1487.77  1488.16  1494.49  1520.15  1530.96  1534.95
eigval :     1545.89  1557.70  1574.20  1577.04  1586.48  1588.56
eigval :     1596.83  1604.44  1612.83  3065.56  3067.67  3069.71
eigval :     3072.02  3076.85  3076.99  3077.03  3077.29  3079.65
eigval :     3079.70  3081.12  3081.96  3082.17  3083.51  3085.44
eigval :     3085.64  3089.20  3089.62  3090.97  3092.37  3093.04
eigval :     3094.77  3095.29  3095.63  3097.24  3098.25  3098.77

   temp. (K)  partition function   enthalpy   heat capacity  entropy
                                   cal/mol     cal/K/mol   cal/K/mol   J/K/mol
 298.15  VIB  0.656E+14            18756.541    124.303    114.335
         ROT  0.642E+08              888.752      2.981     38.706
         INT  0.421E+22            19645.293    127.284    153.041
         TR   0.123E+29             1481.254      4.968     44.756
         TOT                       21126.5469   132.2524   197.7967   827.5816

       T/K    H(0)-H(T)+PV         H(T)/Eh          T*S/Eh         G(T)/Eh
   ------------------------------------------------------------------------
    298.15    0.336673E-01    0.572555E+00    0.939796E-01    0.478576E+00
   ------------------------------------------------------------------------

         :::::::::::::::::::::::::::::::::::::::::::::::::::::
         ::                  THERMODYNAMIC                  ::
         :::::::::::::::::::::::::::::::::::::::::::::::::::::
         :: total free energy        -106.126355421513 Eh   ::
         ::.................................................::
         :: total energy             -106.604931254058 Eh   ::
         :: zero point energy           0.538888150538 Eh   ::
         :: G(RRHO) w/o ZPVE           -0.060312317993 Eh   ::
         :: G(RRHO) contrib.            0.478575832545 Eh   ::
         :::::::::::::::::::::::::::::::::::::::::::::::::::::

           -------------------------------------------------
          | TOTAL ENERGY             -106.604931254058 Eh   |
          | TOTAL ENTHALPY           -106.032375808020 Eh   |
          | TOTAL FREE ENERGY        -106.126355421513 Eh   |
          | GRADIENT NORM               0.000031547164 Eh/α |
           -------------------------------------------------

 * finished run on 2025/07/20 at 18:37:15.152
