   * xtb version 6.7.1 (edcfbbe) compiled by 'albert@albert-system' on 2024-07-22

   ID    Z sym.   atoms
    1    6 C      1-18, 20-43
    2    7 N      19
    3    1 H      44-70

          program call               : xtb data2507/gas/pCzAnN/pCzAnN.xyz --gfn 2 --ohess vtight --parallel 40 --molden --ceasefiles --namespace data2507/gas/pCzAnN/pCzAnN_gas_S0_preOpt
          :  Hamiltonian                  GFN2-xTB          :
 * total energy  :  -106.6459464 Eh     change       -0.7250236E-09 Eh
 * total energy  :  -106.6621583 Eh     change       -0.1621194E-01 Eh
 * total energy  :  -106.6660323 Eh     change       -0.3873940E-02 Eh
 * total energy  :  -106.6664419 Eh     change       -0.4095832E-03 Eh
 * total energy  :  -106.6667028 Eh     change       -0.2609125E-03 Eh
 * total energy  :  -106.6668018 Eh     change       -0.9899266E-04 Eh
 * total energy  :  -106.6668856 Eh     change       -0.8383118E-04 Eh
 * total energy  :  -106.6669371 Eh     change       -0.5147409E-04 Eh
 * total energy  :  -106.6669689 Eh     change       -0.3178962E-04 Eh
 * total energy  :  -106.6670034 Eh     change       -0.3448930E-04 Eh
 * total energy  :  -106.6674646 Eh     change       -0.2369852E-05 Eh
 * total energy  :  -106.6674670 Eh     change       -0.2405572E-05 Eh
 * total energy  :  -106.6674694 Eh     change       -0.2437445E-05 Eh
 * total energy  :  -106.6674718 Eh     change       -0.2378791E-05 Eh
 * total energy  :  -106.6674740 Eh     change       -0.2148197E-05 Eh
 * total energy  :  -106.6674756 Eh     change       -0.1684637E-05 Eh
 * total energy  :  -106.6674768 Eh     change       -0.1131012E-05 Eh
 * total energy  :  -106.6674774 Eh     change       -0.6460319E-06 Eh
 * total energy  :  -106.6674774 Eh     change       -0.3775128E-08 Eh
   *** GEOMETRY OPTIMIZATION CONVERGED AFTER 68 ITERATIONS ***

 final structure:
================
70
 xtb: 6.7.1 (edcfbbe)
C            9.78363385706237       -0.10098632245053       -0.51422290529306
C            9.16444353507617       -0.38563869410913       -1.74165684569343
C            7.80165601431187       -0.40921063932882       -1.83898484885762
C            6.99435016744234       -0.14859109449067       -0.71174556484212
C            5.58710224377964       -0.16371926317748       -0.78079205293844
C            4.81808423305669        0.09123005406253        0.32714962835094
C            3.34200531203881        0.07388665360328        0.25306538650521
C            2.66332427719833        1.08117946203908       -0.44746025050744
C            3.35465558673170        2.14570865035322       -1.08373714142000
C            2.68445636442095        3.12475599225853       -1.74985041737365
C            1.27669783739187        3.10879100402129       -1.80959164391738
C            0.57524936407939        2.11468338229296       -1.20057397955290
C            1.23474366394398        1.06604575950975       -0.50662028671431
C            0.52100416058341        0.04600322228124        0.13770561621087
C           -0.95601472741163        0.03199441946591        0.08162500883382
C           -1.61756276580997       -0.26662568854433       -1.10581657362225
C           -2.99745920438750       -0.28247310528894       -1.15996205945225
C           -3.74420458993033       -0.00485213133374       -0.01842398106790
N           -5.14470999683620       -0.02732938710057       -0.06745026326866
C           -5.91848112554949       -1.05416608806220       -0.57048858788471
C           -5.53040634061130       -2.28140102652396       -1.08884328550620
C           -6.52238579974470       -3.14922536631264       -1.50322651779308
C           -7.87111836926355       -2.81563355341132       -1.40008749154588
C           -8.26398761960544       -1.60593971478106       -0.86361951642347
C           -7.28529429517754       -0.71650577971418       -0.44003284601242
C           -7.32808260414425        0.58345923493176        0.16843410726282
C           -8.36309195231044        1.43621953425423        0.52885258376991
C           -8.04886841555111        2.65835812543018        1.08844414576627
C           -6.72228388515299        3.04027243094760        1.27642820837388
C           -5.67538338162850        2.20955908742201        0.92605564320762
C           -5.98534870014379        0.96999783863265        0.38492541846902
C           -3.08887650780275        0.29352960702109        1.17294884027199
C           -1.70882488919397        0.31403012300172        1.21776356079869
C            1.19946060262699       -0.96209648055684        0.83692764679798
C            0.50742962248225       -2.02541633951396        1.47439106127258
C            1.17756024692772       -3.00662728865739        2.13738970557016
C            2.58551924377718       -2.99411207360965        2.19205414071865
C            3.28725422709869       -2.00002065266331        1.58309100296843
C            2.62766558296213       -0.94830930028401        0.89400178449934
C            5.44877779621956        0.37585299056911        1.55751259101046
C            6.80992766522900        0.40131685215307        1.65374555078136
C            7.62086404759482        0.13982909095021        0.52902680789552
C            9.02904168088309        0.15607582875011        0.59597121080593
H           10.86225762342523       -0.08718261269211       -0.45604479747578
H            9.77660058633865       -0.58622169992987       -2.60892810960196
H            7.32002378640215       -0.62759011954452       -2.78170667615075
H            5.11215482441085       -0.38803227407392       -1.72610815497423
H            4.43258493582293        2.16904063029884       -1.02353357102935
H            3.22548679841988        3.92735791355892       -2.22927762905442
H            0.76007773875963        3.89904289763543       -2.33440635033321
H           -0.50431634510939        2.11335213692752       -1.23113866881380
H           -1.04039891160260       -0.48614093686611       -1.99241219264737
H           -3.50455266682984       -0.49715886821887       -2.08882485823892
H           -4.48860916995655       -2.55673248186141       -1.15708728845984
H           -6.24577641902322       -4.10956412603446       -1.91308609935011
H           -8.61617148884259       -3.52074484751131       -1.73758449366401
H           -9.30942822945123       -1.35359077270170       -0.76888605255757
H           -9.39066185799673        1.14634014913863        0.36862714782083
H           -8.83876337793794        3.33540130367378        1.37804308271514
H           -6.50706131271006        4.00922134246971        1.70252510799503
H           -4.65057657995831        2.52206619255571        1.05994964941175
H           -3.66669120376423        0.49379425972684        2.06291237061458
H           -1.20264437395875        0.54742442894955        2.14332364844042
H           -0.57084768618288       -2.04647630699035        1.41741773896872
H            0.63626968885816       -3.80833770246311        2.61809764495177
H            3.10205404894662       -3.78692002895567        2.71296964150675
H            4.36689679715755       -2.00207845732541        1.60907440280092
H            4.83133075355599        0.58025580538680        2.42063644813391
H            7.28756725611125        0.62343262643237        2.59769954103670
H            9.50067062246678        0.37613919437338        1.54342292750407

          :  Hamiltonian                  GFN2-xTB          :
         :: gradient norm              0.000043363330 Eh/a0 ::
         :: HOMO-LUMO gap              2.078770093554 eV    ::
         :: SCC energy              -108.748826961682 Eh    ::
         :: -> dispersion             -0.099113427899 Eh    ::
         :: repulsion energy           2.081349537032 Eh    ::

    * Orbital Energies and Occupations

         #    Occupation            Energy/Eh            Energy/eV
      -------------------------------------------------------------
         1        2.0000           -0.6735185             -18.3274
       ...           ...                  ...                  ...
        88        2.0000           -0.4158407             -11.3156
        89        2.0000           -0.4152496             -11.2995
        90        2.0000           -0.4129497             -11.2369
        91        2.0000           -0.4064144             -11.0591
        92        2.0000           -0.4038910             -10.9904
        93        2.0000           -0.4034173             -10.9775
        94        2.0000           -0.4019835             -10.9385
        95        2.0000           -0.3999458             -10.8831
        96        2.0000           -0.3975977             -10.8192
        97        2.0000           -0.3792718             -10.3205
        98        2.0000           -0.3754935             -10.2177
        99        2.0000           -0.3611694              -9.8279
       100        2.0000           -0.3574867              -9.7277 (HOMO)
       101                         -0.2810933              -7.6489 (LUMO)
       102                         -0.2598660              -7.0713
       103                         -0.2432593              -6.6194
       104                         -0.2331327              -6.3439
       105                         -0.2328850              -6.3371
       106                         -0.2311533              -6.2900
       107                         -0.2293496              -6.2409
       108                         -0.2209166              -6.0114
       109                         -0.2187640              -5.9529
       110                         -0.1903278              -5.1791
       111                         -0.1882663              -5.1230
       ...                                ...                  ...
       199                          0.7492225              20.3874
      -------------------------------------------------------------
                  HL-Gap            0.0763934 Eh            2.0788 eV

     #   Z          covCN         q      C6AA      α(0)
     1   6 C        2.916    -0.030    28.758     8.794
     2   6 C        2.916    -0.030    28.744     8.792
     3   6 C        2.918    -0.035    28.878     8.812
     4   6 C        2.986     0.012    27.739     8.639
     5   6 C        2.923    -0.040    28.993     8.830
     6   6 C        2.973     0.014    27.689     8.631
     7   6 C        2.978    -0.006    28.159     8.704
     8   6 C        2.983     0.006    27.872     8.660
     9   6 C        2.917    -0.034    28.855     8.809
    10   6 C        2.914    -0.030    28.750     8.792
    11   6 C        2.914    -0.030    28.744     8.792
    12   6 C        2.917    -0.035    28.871     8.811
    13   6 C        2.984     0.006    27.876     8.661
    14   6 C        2.977    -0.007    28.192     8.710
    15   6 C        2.977     0.013    27.716     8.636
    16   6 C        2.924    -0.032    28.793     8.800
    17   6 C        2.921    -0.044    29.084     8.844
    18   6 C        2.913     0.062    26.610     8.459
    19   7 N        2.803    -0.045    22.105     6.983
    20   6 C        3.076     0.047    26.874     8.499
    21   6 C        2.910    -0.051    29.268     8.871
    22   6 C        2.924    -0.034    28.838     8.806
    23   6 C        2.920    -0.041    29.022     8.834
    24   6 C        2.913    -0.033    28.821     8.803
    25   6 C        3.068    -0.017    28.370     8.734
    26   6 C        3.068    -0.017    28.370     8.734
    27   6 C        2.913    -0.033    28.821     8.803
    28   6 C        2.920    -0.041    29.022     8.834
    29   6 C        2.924    -0.034    28.838     8.807
    30   6 C        2.910    -0.051    29.267     8.871
    31   6 C        3.076     0.047    26.874     8.499
    32   6 C        2.921    -0.044    29.084     8.844
    33   6 C        2.924    -0.032    28.792     8.800
    34   6 C        2.984     0.006    27.878     8.661
    35   6 C        2.917    -0.035    28.870     8.811
    36   6 C        2.914    -0.030    28.744     8.792
    37   6 C        2.914    -0.030    28.751     8.793
    38   6 C        2.917    -0.034    28.846     8.807
    39   6 C        2.984     0.006    27.871     8.660
    40   6 C        2.920    -0.033    28.815     8.803
    41   6 C        2.916    -0.036    28.903     8.816
    42   6 C        2.987     0.011    27.766     8.644
    43   6 C        2.918    -0.035    28.869     8.811
    44   1 H        0.926     0.029     2.597     2.520
    45   1 H        0.926     0.029     2.596     2.519
    46   1 H        0.926     0.030     2.582     2.513
    47   1 H        0.925     0.030     2.581     2.512
    48   1 H        0.926     0.032     2.556     2.500
    49   1 H        0.926     0.029     2.601     2.522
    50   1 H        0.926     0.029     2.602     2.522
    51   1 H        0.926     0.030     2.585     2.514
    52   1 H        0.926     0.036     2.503     2.474
    53   1 H        0.926     0.041     2.442     2.444
    54   1 H        0.926     0.026     2.638     2.540
    55   1 H        0.926     0.028     2.613     2.528
    56   1 H        0.926     0.027     2.627     2.535
    57   1 H        0.926     0.030     2.583     2.513
    58   1 H        0.926     0.030     2.584     2.514
    59   1 H        0.926     0.027     2.627     2.535
    60   1 H        0.926     0.028     2.613     2.528
    61   1 H        0.926     0.026     2.638     2.540
    62   1 H        0.926     0.041     2.442     2.444
    63   1 H        0.926     0.036     2.504     2.475
    64   1 H        0.926     0.030     2.586     2.515
    65   1 H        0.926     0.029     2.602     2.522
    66   1 H        0.926     0.029     2.601     2.522
    67   1 H        0.926     0.032     2.557     2.500
    68   1 H        0.926     0.030     2.586     2.515
    69   1 H        0.926     0.031     2.571     2.507
    70   1 H        0.926     0.030     2.585     2.514

molecular dipole:
                 x           y           z       tot (Debye)
 q only:        0.632       0.010       0.029
   full:        0.702       0.009       0.033       1.786

 projected vibrational frequencies (cm⁻¹)
eigval :       -0.00    -0.00    -0.00    -0.00     0.00     0.00
eigval :       11.18    12.01    15.05    25.77    37.81    39.85
eigval :       62.95    66.79    75.26    80.58   104.98   106.96
eigval :      108.47   133.94   144.93   163.46   166.18   182.52
eigval :      185.39   207.35   212.35   217.04   261.03   271.82
eigval :      293.34   310.08   341.19   353.99   365.54   379.25
eigval :      385.09   391.74   395.62   402.99   415.38   416.36
eigval :      428.73   440.78   445.78   446.79   450.85   458.84
eigval :      485.26   496.95   503.39   519.08   533.78   541.21
eigval :      544.97   568.19   579.92   582.25   588.10   588.62
eigval :      602.49   612.75   617.20   631.08   648.11   655.13
eigval :      673.94   687.69   693.76   697.47   708.56   724.54
eigval :      734.25   739.96   757.37   757.72   769.52   774.17
eigval :      776.13   780.80   795.33   818.33   819.81   835.19
eigval :      867.40   873.19   873.94   875.21   876.11   882.92
eigval :      885.69   887.17   897.06   899.81   902.11   902.95
eigval :      903.42   914.89   917.72   918.55   920.23   921.48
eigval :      924.41   926.45   928.52   928.86   929.38   932.66
eigval :      935.13   952.15   994.32  1012.08  1024.90  1070.28
eigval :     1073.85  1079.30  1081.99  1082.76  1117.57  1132.69
eigval :     1135.25  1136.33  1146.70  1152.86  1173.51  1176.60
eigval :     1179.20  1181.49  1181.72  1182.24  1185.16  1189.98
eigval :     1197.96  1217.83  1227.99  1228.68  1234.20  1237.07
eigval :     1246.46  1259.00  1259.50  1262.94  1267.78  1300.48
eigval :     1303.84  1309.91  1319.36  1330.72  1350.32  1351.65
eigval :     1358.42  1362.54  1369.88  1383.41  1385.03  1398.55
eigval :     1403.00  1418.55  1426.65  1428.56  1429.84  1432.47
eigval :     1443.06  1461.21  1476.85  1483.57  1488.66  1501.26
eigval :     1501.87  1527.30  1530.53  1542.64  1559.79  1561.60
eigval :     1575.17  1589.38  1597.83  1599.36  1606.56  1608.71
eigval :     1611.46  1615.65  1622.96  3066.71  3067.73  3069.96
eigval :     3071.90  3073.95  3073.99  3075.27  3075.61  3079.09
eigval :     3079.77  3079.97  3080.31  3080.58  3081.03  3081.82
eigval :     3082.47  3087.33  3089.02  3089.65  3089.78  3090.23
eigval :     3093.10  3093.89  3094.05  3094.57  3095.08  3096.26

   temp. (K)  partition function   enthalpy   heat capacity  entropy
                                   cal/mol     cal/K/mol   cal/K/mol   J/K/mol
 298.15  VIB  0.161E+15            18741.444    123.232    115.103
         ROT  0.639E+08              888.752      2.981     38.697
         INT  0.103E+23            19630.196    126.213    153.800
         TR   0.123E+29             1481.254      4.968     44.756
         TOT                       21111.4498   131.1814   198.5553   830.7553

       T/K    H(0)-H(T)+PV         H(T)/Eh          T*S/Eh         G(T)/Eh
   ------------------------------------------------------------------------
    298.15    0.336432E-01    0.574864E+00    0.943400E-01    0.480524E+00
   ------------------------------------------------------------------------

         :::::::::::::::::::::::::::::::::::::::::::::::::::::
         ::                  THERMODYNAMIC                  ::
         :::::::::::::::::::::::::::::::::::::::::::::::::::::
         :: total free energy        -106.186953791155 Eh   ::
         ::.................................................::
         :: total energy             -106.667477424650 Eh   ::
         :: zero point energy           0.541220413315 Eh   ::
         :: G(RRHO) w/o ZPVE           -0.060696779820 Eh   ::
         :: G(RRHO) contrib.            0.480523633495 Eh   ::
         :::::::::::::::::::::::::::::::::::::::::::::::::::::

           -------------------------------------------------
          | TOTAL ENERGY             -106.667477424650 Eh   |
          | TOTAL ENTHALPY           -106.092613774584 Eh   |
          | TOTAL FREE ENERGY        -106.186953791155 Eh   |
          | GRADIENT NORM               0.000043356982 Eh/α |
          | HOMO-LUMO GAP               2.078769872089 eV   |
           -------------------------------------------------

 * finished run on 2025/07/20 at 18:31:04.772
