   * xtb version 6.7.1 (edcfbbe) compiled by 'albert@albert-system' on 2024-07-22

   ID    Z sym.   atoms
    1    6 C      1-18, 20-43
    2    7 N      19
    3    1 H      44-70

          program call               : xtb data2507/gas/pCzAnN/pCzAnN_gas_S0_crest.xyz --gfn 2 --ohess vtight --parallel 40 --molden --ceasefiles --namespace data2507/gas/pCzAnN/pCzAnN_gas_S0_finalOpt
          :  Hamiltonian                  GFN2-xTB          :
 * total energy  :  -106.6675801 Eh     change       -0.4547758E-08 Eh
 * total energy  :  -106.6675807 Eh     change       -0.6154126E-06 Eh
 * total energy  :  -106.6675813 Eh     change       -0.6742713E-06 Eh
 * total energy  :  -106.6675829 Eh     change       -0.1519380E-05 Eh
 * total energy  :  -106.6675836 Eh     change       -0.7095751E-06 Eh
 * total energy  :  -106.6675837 Eh     change       -0.9712056E-07 Eh
   *** GEOMETRY OPTIMIZATION CONVERGED AFTER 6 ITERATIONS ***

 final structure:
================
70
 xtb: 6.7.1 (edcfbbe)
C            9.83890684896468       -0.18754653706414       -0.61540266265479
C            9.19259819900837       -0.54504902889899       -1.80940738206594
C            7.82802129491877       -0.56121571028870       -1.87811739048199
C            7.04622333907408       -0.22062719537189       -0.75419119994810
C            5.63804685320947       -0.23170493656100       -0.79283194563140
C            4.89312063780779        0.10184027038471        0.31105008818627
C            3.41642031985255        0.08469451190394        0.26387780934078
C            2.70327051944161        1.28857877368225        0.35481437729228
C            3.36371165315171        2.54147486432885        0.45550276678297
C            2.66245288981766        3.70195276413025        0.56969587445598
C            1.25382480039237        3.68108066727057        0.59687192037373
C            0.58239387033120        2.50364185573489        0.47735892660184
C            1.27418109208066        1.27279295074557        0.32804306400961
C            0.59380735569355        0.05652128696384        0.17278839313837
C           -0.88220854061419        0.04232239322429        0.11766686396909
C           -1.55430847321861        0.60795402295711       -0.96235658725651
C           -2.93341843293064        0.58553089794014       -1.02584769317111
C           -3.67008933242873        0.00633734622794        0.00356756555955
N           -5.06998308774874       -0.01868957210913       -0.05683185696585
C           -5.86360166384849       -1.13546158127249        0.11282346231917
C           -5.49608534255401       -2.45543553674694        0.33146749671796
C           -6.50256221595090       -3.39575626903446        0.43851834688425
C           -7.84494926292070       -3.04080603022432        0.32439727316243
C           -8.21563064658826       -1.73297573656255        0.08407234696632
C           -7.22197538392795       -0.76946319151334       -0.02837774168499
C           -7.23865984074125        0.64206034935414       -0.29182899243402
C           -8.25627975725115        1.56322774928461       -0.50204050752659
C           -7.91903245836134        2.88513174839376       -0.71267868813638
C           -6.58766583738491        3.29547825062805       -0.70120726366933
C           -5.55774081398715        2.39813736091654       -0.49438733842236
C           -5.88921498384171        1.06412445675581       -0.30502284757811
C           -3.00523176628556       -0.55143159588470        1.09204300303175
C           -1.62531141912961       -0.53849984299254        1.14151179817359
C            1.30714089849939       -1.14582052421717        0.06394313828824
C            0.65078084687125       -2.38960649731890       -0.13226767429586
C            1.35116490881402       -3.55338708138659       -0.21103556714589
C            2.75514953755585       -3.54708162400169       -0.09163374626305
C            3.42468427266901       -2.37376036227282        0.07046688629858
C            2.73534706856759       -1.13376366781550        0.12960687867383
C            5.55083142126892        0.46178160782477        1.50703478361633
C            6.91392311930280        0.47798343946472        1.57519400436475
C            7.69999443996597        0.14024485906093        0.45310345204320
C            9.10935330044772        0.14746996056373        0.49076391518596
H           10.91855518986269       -0.18009408544828       -0.57980780354235
H            9.78528515094529       -0.80733515556199       -2.67373125093899
H            7.32515701703103       -0.83621125215464       -2.79456068923573
H            5.14216187833771       -0.50301755113501       -1.71479722713357
H            4.44334545462815        2.55842999040768        0.43644609271428
H            3.17949838266370        4.64731575952673        0.64487687408615
H            0.71268632569106        4.60914533250397        0.70964777867431
H           -0.49721947619687        2.48922769250223        0.49845551373485
H           -0.98462784043250        1.05303408512499       -1.76527901972563
H           -3.44747060588284        1.00238971600050       -1.87906417566284
H           -4.45793775125381       -2.74294019494444        0.40469501714193
H           -6.24253120188492       -4.42982678785363        0.61113469984529
H           -8.60214633185150       -3.80515411828602        0.41672564618681
H           -9.25511618748109       -1.46072898967074       -0.02047268469036
H           -9.28875029564354        1.24771522344374       -0.49528452450015
H           -8.69507898148666        3.61713183737647       -0.88034634371884
H           -6.35558757867849        4.33920311738004       -0.85446770360594
H           -4.53010215211432        2.72858313606639       -0.47096527141444
H           -3.57639962858411       -0.98199981755231        1.90099985856860
H           -1.11205773788197       -0.96941058863952        1.98899475028651
H           -0.42523750943567       -2.39597644541399       -0.22328499625855
H            0.83684087942053       -4.49129414627180       -0.36147818262484
H            3.29449444618003       -4.48194266142124       -0.13471594568941
H            4.50083011990529       -2.37019264305560        0.15939161383232
H            4.95290810293475        0.71624187599004        2.37060934537705
H            7.41235019355887        0.75037325420477        2.49493165040735
H            9.60214843665617        0.42302936167860        1.41256802958156

          :  Hamiltonian                  GFN2-xTB          :
         :: gradient norm              0.000193510786 Eh/a0 ::
         :: HOMO-LUMO gap              2.056387083038 eV    ::
         :: SCC energy              -108.748966071202 Eh    ::
         :: -> dispersion             -0.099339634493 Eh    ::
         :: repulsion energy           2.081382403446 Eh    ::

    * Orbital Energies and Occupations

         #    Occupation            Energy/Eh            Energy/eV
      -------------------------------------------------------------
         1        2.0000           -0.6736268             -18.3303
       ...           ...                  ...                  ...
        88        2.0000           -0.4160512             -11.3213
        89        2.0000           -0.4155612             -11.3080
        90        2.0000           -0.4134280             -11.2499
        91        2.0000           -0.4074209             -11.0865
        92        2.0000           -0.4039153             -10.9911
        93        2.0000           -0.4028764             -10.9628
        94        2.0000           -0.4016429             -10.9293
        95        2.0000           -0.3998766             -10.8812
        96        2.0000           -0.3974056             -10.8140
        97        2.0000           -0.3792527             -10.3200
        98        2.0000           -0.3756219             -10.2212
        99        2.0000           -0.3617066              -9.8425
       100        2.0000           -0.3570117              -9.7148 (HOMO)
       101                         -0.2814409              -7.6584 (LUMO)
       102                         -0.2598562              -7.0710
       103                         -0.2433134              -6.6209
       104                         -0.2332341              -6.3466
       105                         -0.2329868              -6.3399
       106                         -0.2311353              -6.2895
       107                         -0.2293482              -6.2409
       108                         -0.2209194              -6.0115
       109                         -0.2188805              -5.9560
       110                         -0.1904707              -5.1830
       111                         -0.1885981              -5.1320
       ...                                ...                  ...
       199                          0.7492114              20.3871
      -------------------------------------------------------------
                  HL-Gap            0.0755709 Eh            2.0564 eV

     #   Z          covCN         q      C6AA      α(0)
     1   6 C        2.916    -0.030    28.757     8.794
     2   6 C        2.916    -0.030    28.744     8.792
     3   6 C        2.918    -0.035    28.877     8.812
     4   6 C        2.986     0.012    27.739     8.639
     5   6 C        2.924    -0.040    28.989     8.830
     6   6 C        2.973     0.014    27.692     8.632
     7   6 C        2.978    -0.006    28.162     8.705
     8   6 C        2.984     0.006    27.870     8.660
     9   6 C        2.917    -0.034    28.847     8.807
    10   6 C        2.914    -0.030    28.753     8.793
    11   6 C        2.914    -0.030    28.747     8.792
    12   6 C        2.917    -0.035    28.868     8.811
    13   6 C        2.984     0.006    27.879     8.661
    14   6 C        2.977    -0.007    28.195     8.710
    15   6 C        2.977     0.013    27.719     8.636
    16   6 C        2.924    -0.032    28.790     8.799
    17   6 C        2.921    -0.044    29.083     8.844
    18   6 C        2.913     0.062    26.608     8.458
    19   7 N        2.803    -0.045    22.103     6.982
    20   6 C        3.077     0.047    26.872     8.499
    21   6 C        2.910    -0.051    29.264     8.870
    22   6 C        2.924    -0.034    28.838     8.806
    23   6 C        2.920    -0.041    29.022     8.834
    24   6 C        2.913    -0.033    28.820     8.803
    25   6 C        3.068    -0.017    28.370     8.734
    26   6 C        3.068    -0.017    28.370     8.734
    27   6 C        2.913    -0.033    28.820     8.803
    28   6 C        2.920    -0.041    29.022     8.834
    29   6 C        2.924    -0.034    28.838     8.806
    30   6 C        2.910    -0.051    29.264     8.870
    31   6 C        3.076     0.047    26.872     8.499
    32   6 C        2.921    -0.044    29.084     8.844
    33   6 C        2.924    -0.032    28.790     8.799
    34   6 C        2.984     0.006    27.876     8.661
    35   6 C        2.917    -0.035    28.871     8.811
    36   6 C        2.914    -0.030    28.746     8.792
    37   6 C        2.914    -0.030    28.753     8.793
    38   6 C        2.917    -0.034    28.856     8.809
    39   6 C        2.984     0.006    27.872     8.660
    40   6 C        2.919    -0.033    28.815     8.803
    41   6 C        2.916    -0.036    28.905     8.816
    42   6 C        2.987     0.011    27.765     8.643
    43   6 C        2.918    -0.035    28.869     8.811
    44   1 H        0.926     0.029     2.597     2.520
    45   1 H        0.926     0.029     2.595     2.519
    46   1 H        0.926     0.030     2.581     2.512
    47   1 H        0.925     0.030     2.579     2.512
    48   1 H        0.926     0.032     2.556     2.500
    49   1 H        0.926     0.029     2.602     2.523
    50   1 H        0.926     0.029     2.604     2.523
    51   1 H        0.926     0.030     2.589     2.516
    52   1 H        0.926     0.036     2.499     2.472
    53   1 H        0.926     0.041     2.442     2.444
    54   1 H        0.926     0.026     2.644     2.543
    55   1 H        0.926     0.028     2.613     2.528
    56   1 H        0.926     0.027     2.626     2.534
    57   1 H        0.926     0.030     2.583     2.513
    58   1 H        0.926     0.030     2.583     2.513
    59   1 H        0.926     0.027     2.627     2.534
    60   1 H        0.926     0.028     2.613     2.528
    61   1 H        0.926     0.026     2.644     2.543
    62   1 H        0.926     0.041     2.441     2.443
    63   1 H        0.926     0.036     2.499     2.472
    64   1 H        0.926     0.030     2.589     2.516
    65   1 H        0.926     0.029     2.604     2.523
    66   1 H        0.926     0.029     2.602     2.522
    67   1 H        0.926     0.032     2.556     2.500
    68   1 H        0.926     0.030     2.582     2.513
    69   1 H        0.926     0.031     2.571     2.508
    70   1 H        0.926     0.030     2.584     2.514

molecular dipole:
                 x           y           z       tot (Debye)
 q only:        0.630       0.013       0.031
   full:        0.701       0.015       0.032       1.785

 projected vibrational frequencies (cm⁻¹)
eigval :       -0.00    -0.00     0.00     0.00     0.00     0.00
eigval :       11.69    13.07    14.83    27.23    37.27    40.52
eigval :       62.75    66.90    74.38    79.14   104.73   106.54
eigval :      114.58   134.98   144.86   164.92   167.46   180.27
eigval :      188.90   207.80   211.33   219.35   258.33   271.70
eigval :      294.47   310.28   349.65   351.43   367.55   381.29
eigval :      381.72   391.09   395.07   401.72   413.77   416.44
eigval :      428.71   441.86   446.71   449.08   451.38   459.03
eigval :      481.18   496.68   506.03   519.19   534.19   541.21
eigval :      544.97   568.95   579.17   582.17   587.59   589.97
eigval :      600.93   612.29   615.59   637.19   645.01   654.71
eigval :      673.95   688.49   693.30   697.81   708.50   724.52
eigval :      734.23   739.74   757.55   757.74   769.21   774.26
eigval :      776.13   780.54   795.33   818.36   820.12   835.66
eigval :      867.04   872.51   873.73   874.97   875.79   883.07
eigval :      886.19   887.19   898.01   899.12   901.99   902.72
eigval :      903.34   914.92   917.59   918.39   920.54   921.40
eigval :      924.67   926.58   928.43   928.94   929.44   933.03
eigval :      935.27   952.38   994.52  1012.15  1024.85  1070.11
eigval :     1073.72  1079.20  1082.25  1083.05  1117.62  1132.92
eigval :     1135.20  1136.45  1146.69  1152.64  1173.48  1176.50
eigval :     1179.19  1181.43  1181.79  1182.44  1185.12  1190.27
eigval :     1198.00  1218.08  1228.00  1228.58  1234.65  1237.07
eigval :     1246.53  1258.94  1259.65  1263.10  1268.03  1300.36
eigval :     1304.11  1310.23  1319.29  1330.89  1350.23  1351.68
eigval :     1358.47  1362.69  1369.81  1383.24  1385.05  1398.82
eigval :     1403.52  1418.44  1426.77  1428.62  1429.71  1432.54
eigval :     1442.77  1460.82  1476.93  1483.41  1488.68  1501.11
eigval :     1501.89  1527.24  1530.08  1542.28  1559.42  1561.39
eigval :     1575.18  1589.50  1596.76  1599.48  1605.98  1608.62
eigval :     1611.42  1615.73  1622.80  3066.73  3067.78  3070.01
eigval :     3071.93  3073.91  3074.02  3075.36  3075.72  3079.16
eigval :     3079.86  3080.04  3080.50  3080.64  3081.18  3081.89
eigval :     3082.45  3087.37  3089.03  3089.85  3089.95  3090.73
eigval :     3093.15  3093.88  3094.15  3094.74  3095.24  3096.35

   temp. (K)  partition function   enthalpy   heat capacity  entropy
                                   cal/mol     cal/K/mol   cal/K/mol   J/K/mol
 298.15  VIB  0.132E+15            18724.085    123.220    114.829
         ROT  0.639E+08              888.752      2.981     38.698
         INT  0.842E+22            19612.838    126.201    153.526
         TR   0.123E+29             1481.254      4.968     44.756
         TOT                       21094.0915   131.1688   198.2821   829.6124

       T/K    H(0)-H(T)+PV         H(T)/Eh          T*S/Eh         G(T)/Eh
   ------------------------------------------------------------------------
    298.15    0.336156E-01    0.574882E+00    0.942102E-01    0.480671E+00
   ------------------------------------------------------------------------

         :::::::::::::::::::::::::::::::::::::::::::::::::::::
         ::                  THERMODYNAMIC                  ::
         :::::::::::::::::::::::::::::::::::::::::::::::::::::
         :: total free energy        -106.186912273070 Eh   ::
         ::.................................................::
         :: total energy             -106.667583667759 Eh   ::
         :: zero point energy           0.541266051593 Eh   ::
         :: G(RRHO) w/o ZPVE           -0.060594656905 Eh   ::
         :: G(RRHO) contrib.            0.480671394688 Eh   ::
         :::::::::::::::::::::::::::::::::::::::::::::::::::::

           -------------------------------------------------
          | TOTAL ENERGY             -106.667583667759 Eh   |
          | TOTAL ENTHALPY           -106.092702041706 Eh   |
          | TOTAL FREE ENERGY        -106.186912273070 Eh   |
          | GRADIENT NORM               0.000193470410 Eh/α |
          | HOMO-LUMO GAP               2.056388312211 eV   |
           -------------------------------------------------

 * finished run on 2025/07/20 at 18:34:10.443
