   * xtb version 6.7.1 (edcfbbe) compiled by 'albert@albert-system' on 2024-07-22

   ID    Z sym.   atoms
    1    8 O      1, 62
    2    6 C      2-5, 7-19, 21-33, 35-47, 49-61, 64-69
    3    7 N      6, 20, 34, 48, 63
    4    1 H      70-106

          program call               : xtb data2507/toluene/AI-4Cz/AI-4Cz_toluene_S0_finalOpt.xtbopt.xyz --gfn 2 --uhf 2 --gbsa toluene --ohess vtight --parallel 40 --molden --ceasefiles --namespace data2507/toluene/AI-4Cz/AI-4Cz_toluene_T1_preOpt
      * Solvation model:               GBSA
        Solvent                        toluene
        Solvent mass                       9.2140E+01 g/mol
          :  Hamiltonian                  GFN2-xTB          :
 * total energy  :  -174.5884173 Eh     change       -0.3143299E-08 Eh
 * total energy  :  -174.5929819 Eh     change       -0.4564588E-02 Eh
 * total energy  :  -174.5940630 Eh     change       -0.1081091E-02 Eh
 * total energy  :  -174.5941801 Eh     change       -0.1171143E-03 Eh
 * total energy  :  -174.5942478 Eh     change       -0.6770817E-04 Eh
 * total energy  :  -174.5942803 Eh     change       -0.3246254E-04 Eh
 * total energy  :  -174.5943136 Eh     change       -0.3333704E-04 Eh
 * total energy  :  -174.5943431 Eh     change       -0.2949014E-04 Eh
 * total energy  :  -174.5943714 Eh     change       -0.2837104E-04 Eh
 * total energy  :  -174.5944018 Eh     change       -0.3039091E-04 Eh
 * total energy  :  -174.5945899 Eh     change       -0.4459460E-06 Eh
 * total energy  :  -174.5945904 Eh     change       -0.4940714E-06 Eh
 * total energy  :  -174.5945909 Eh     change       -0.5556108E-06 Eh
 * total energy  :  -174.5945915 Eh     change       -0.6208550E-06 Eh
 * total energy  :  -174.5945920 Eh     change       -0.4479581E-06 Eh
 * total energy  :  -174.5945921 Eh     change       -0.1018215E-06 Eh
 * total energy  :  -174.5945923 Eh     change       -0.2368838E-06 Eh
 * total energy  :  -174.5945925 Eh     change       -0.1815675E-06 Eh
 * total energy  :  -174.5945925 Eh     change       -0.2080515E-07 Eh
   *** GEOMETRY OPTIMIZATION CONVERGED AFTER 38 ITERATIONS ***

 final structure:
================
106
 xtb: 6.7.1 (edcfbbe)
O            2.30041369029272        3.71231359748175       -0.41318597362354
C            1.17585863282078        3.26221894241522       -0.18196736551664
C            0.72356717087526        1.90120032015261       -0.08291852929241
C           -0.69851058957825        1.91048911985946        0.07819923461814
C           -1.41155817487441        0.70924938746548        0.15399706804175
N           -2.80329762516217        0.71594039346193        0.29681456713507
C           -3.52055587559563        0.10389088017250        1.30283658779606
C           -3.06264442641454       -0.53319562100358        2.44727315428062
C           -4.00479993241435       -1.06728170152440        3.30798015809044
C           -5.36707814258631       -0.95345821091931        3.04882988627270
C           -5.82935315117589       -0.27636950303332        1.93116828192578
C           -4.90348232812879        0.26356156640193        1.05375703471646
C           -5.01134772076312        1.03326332652176       -0.15969367061954
C           -6.08270196551921        1.48812426053963       -0.91080150577184
C           -5.82296273893016        2.20065343131037       -2.07019212508047
C           -4.51734769103755        2.44927768040092       -2.48510073557568
C           -3.43327177589824        1.99938404128061       -1.75459317731690
C           -3.68892263757621        1.30377605476514       -0.58063853683446
C           -0.71336785810043       -0.49703567523339        0.07877839923181
N           -1.39811950208949       -1.72040569191164        0.16404718460636
C           -1.19583958250994       -2.70216485928907        1.11562967446260
C           -0.32608840230000       -2.71690213605060        2.19655147791960
C           -0.33037949823185       -3.83132875214382        3.01465199159656
C           -1.19182468389155       -4.89888542933528        2.77828061562392
C           -2.08855342849904       -4.87189756030334        1.72463533906914
C           -2.09802716386211       -3.76569930532188        0.88854398553864
C           -2.89056792705512       -3.39264389797978       -0.25237820213934
C           -3.92090421722749       -4.01008024623890       -0.94462839572021
C           -4.46357362023304       -3.36365498866861       -2.04125821210862
C           -3.97359687081162       -2.13030988909416       -2.46332752704845
C           -2.94421465632969       -1.49883980624515       -1.79178990401262
C           -2.42348267902184       -2.12415025656579       -0.66651666932239
C            0.70706302855078       -0.50632891532238       -0.08059331143705
N            1.37573046389357       -1.73863611200595       -0.16428589728520
C            1.16096589884988       -2.71854202208958       -1.11502004095314
C            0.29121366762816       -2.72300568204431       -2.19603722623560
C            0.28161230970573       -3.83791069526253       -3.01346457322191
C            1.12968510634915       -4.91598629536241       -2.77640700209699
C            2.02637766108974       -4.89972008283205       -1.72251544091795
C            2.04949069884537       -3.79331657663371       -0.88697593189574
C            2.84645821564913       -3.42955520453502        0.25386991964154
C            3.86868208386865       -4.05952312120534        0.94681310645636
C            4.41958113821399       -3.41903531388461        2.04284799528026
C            3.94554357732566       -2.17905179151405        2.46364359979930
C            2.92432658779703       -1.53511680093058        1.79148151174772
C            2.39568403000857       -2.15476455787914        0.66676174826892
C            1.42095115917792        0.69069101393279       -0.15714075291121
N            2.81272834889370        0.67898659483285       -0.29913195832096
C            3.52276603953722        0.05512442003623       -1.30302472006611
C            3.05765984014310       -0.57770242367999       -2.44695063254568
C            3.99351710691286       -1.12663550505359       -3.30520811758325
C            5.35685431403464       -1.03128925431852       -3.04430576340393
C            5.82695231123048       -0.35842922455746       -1.92733783527865
C            4.90744546370628        0.19597623350156       -1.05231231915625
C            5.02437383432765        0.96637829420526        0.15985020846495
C            6.10095426393059        1.40769567901948        0.91152412302851
C            5.84958670365269        2.12616003618082        2.06911727007805
C            4.54700518993659        2.39372112924804        2.48175630952183
C            3.45773928326424        1.95731827090572        1.75080348409490
C            3.70526628336058        1.25603832237950        0.57847333644782
C           -1.13315657922141        3.27727143043995        0.17641352523238
O           -2.25185559972377        3.74198333261053        0.40716740547825
N            0.02640044288682        4.05134256216899       -0.00313544185495
C            0.03535834017098        5.45809801700396       -0.00302669905022
C           -1.00108034791250        6.16339289976165       -0.60784680614194
C           -0.99097324417576        7.54572929292603       -0.59767728594456
C            0.05188830036711        8.23496659051178       -0.00132113272445
C            1.08671728397673        7.53268364812247        0.59370089318320
C            1.08014723033587        6.15031004632285        0.60259869677298
H           -2.00929435191913       -0.59651291635165        2.67073896054142
H           -3.67273478090624       -1.57685045243154        4.19966388672677
H           -6.07378186649050       -1.38502596551226        3.74114445630650
H           -6.88699548291689       -0.16445083766466        1.75010457645988
H           -7.09627821883704        1.28866213557574       -0.59949165256779
H           -6.64390680798649        2.56903829661727       -2.66664010208662
H           -4.34612678015930        3.00296401793460       -3.39627102304819
H           -2.42179010945591        2.19248019541352       -2.08160235054602
H            0.32653756912213       -1.88353136107345        2.40553409371835
H            0.34564159548613       -3.86771204801696        3.85555145795366
H           -1.16586223556440       -5.75348151408462        3.43727489591501
H           -2.77179589361673       -5.68999572676220        1.55756650079312
H           -4.28730718091488       -4.97623404474438       -0.63435857497551
H           -5.27111012834235       -3.82491447625688       -2.58920651822170
H           -4.40142239003911       -1.65598466398600       -3.33365068891306
H           -2.55804902387491       -0.55305140673403       -2.14102017294320
H           -0.35073885165909       -1.88154507236566       -2.40565050133063
H           -0.39463975385479       -3.86630191520916       -3.85447363641245
H            1.09315901056652       -5.77053370687210       -3.43497020733700
H            2.69929841364843       -5.72618465594400       -1.55475294128303
H            4.22268033091085       -5.03060243782569        0.63749868431722
H            5.22120050758934       -3.89002552162285        2.59122725241233
H            4.37947697735622       -1.70934623768033        3.33345594527263
H            2.55051465546218       -0.58399472130395        2.13968143073952
H            2.00385964998047       -0.62656041394224       -2.67194076734167
H            3.65567882097541       -1.63321283103350       -4.19643427138738
H            6.05845333785738       -1.47404032101016       -3.73476952668494
H            6.88579794435136       -0.26088848132736       -1.74496802069358
H            7.11205962643121        1.19335617442525        0.60206551439336
H            6.67472813963223        2.48420328675826        2.66607153552586
H            4.38228899165484        2.95161469033912        3.39156390243556
H            2.44863218519850        2.16498001013295        2.07622344148678
H           -1.81386544201043        5.62463581885883       -1.06961872052973
H           -1.80091763528288        8.08538429186639       -1.06610678382925
H            0.05861971357433        9.31465286747569       -0.00124631261700
H            1.90324766263298        8.06211615545879        1.06236987232205
H            1.88623833907216        5.60139037470076        1.06417216860738

          :  Hamiltonian                  GFN2-xTB          :
         :: gradient norm              0.000164119358 Eh/a0 ::
         :: HOMO-LUMO gap              0.880196186921 eV    ::
         :: SCC energy              -177.731819533562 Eh    ::
         :: -> dispersion             -0.192387547617 Eh    ::
         :: -> Gsolv                  -0.076589412591 Eh    ::
         :: repulsion energy           3.137227009667 Eh    ::

    * Orbital Energies and Occupations

         #    Occupation            Energy/Eh            Energy/eV
      -------------------------------------------------------------
         1        2.0000           -0.7020564             -19.1039
       ...           ...                  ...                  ...
       150        2.0000           -0.4083212             -11.1110
       151        2.0000           -0.3999113             -10.8821
       152        2.0000           -0.3957256             -10.7682
       153        2.0000           -0.3951669             -10.7530
       154        2.0000           -0.3932921             -10.7020
       155        2.0000           -0.3931969             -10.6994
       156        2.0000           -0.3911766             -10.6445
       157        1.9998           -0.3867144             -10.5230
       158        1.9860           -0.3827134             -10.4142
       159        1.9548           -0.3815671             -10.3830
       160        1.6228           -0.3791466             -10.3171
       161        1.4366           -0.3784279             -10.2975
       162        1.0000           -0.3046355              -8.2896 (HOMO)
       163                         -0.2722887              -7.4094 (LUMO)
       164                         -0.2601419              -7.0788
       165                         -0.2592036              -7.0533
       166                         -0.2587841              -7.0419
       167                         -0.2576382              -7.0107
       168                         -0.2415375              -6.5726
       169                         -0.2394226              -6.5150
       170                         -0.2360009              -6.4219
       171                         -0.2335380              -6.3549
       172                         -0.2262740              -6.1572
       173                         -0.2260208              -6.1503
       ...                                ...                  ...
       313                          0.7339960              19.9730
      -------------------------------------------------------------
                  HL-Gap            0.0323467 Eh            0.8802 eV

     #   Z          covCN         q      C6AA      α(0)
     1   8 O        0.856    -0.505    23.907     6.555
     2   6 C        2.828     0.254    22.739     7.814
     3   6 C        3.046    -0.067    29.612     8.925
     4   6 C        3.047    -0.067    29.612     8.925
     5   6 C        2.902     0.057    26.719     8.476
     6   7 N        2.804    -0.018    21.596     6.902
     7   6 C        3.075     0.053    26.744     8.479
     8   6 C        2.910    -0.043    29.076     8.842
     9   6 C        2.923    -0.030    28.760     8.795
    10   6 C        2.920    -0.032    28.789     8.799
    11   6 C        2.912    -0.028    28.699     8.785
    12   6 C        3.066    -0.011    28.211     8.710
    13   6 C        3.067    -0.010    28.190     8.706
    14   6 C        2.912    -0.028    28.696     8.784
    15   6 C        2.920    -0.031    28.768     8.796
    16   6 C        2.923    -0.029    28.735     8.791
    17   6 C        2.910    -0.031    28.777     8.796
    18   6 C        3.076     0.065    26.469     8.435
    19   6 C        2.910     0.024    27.463     8.593
    20   7 N        2.801    -0.033    21.870     6.946
    21   6 C        3.074     0.048    26.850     8.496
    22   6 C        2.910    -0.045    29.121     8.849
    23   6 C        2.923    -0.031    28.769     8.796
    24   6 C        2.920    -0.034    28.850     8.808
    25   6 C        2.913    -0.029    28.719     8.788
    26   6 C        3.067    -0.014    28.283     8.720
    27   6 C        3.067    -0.013    28.263     8.717
    28   6 C        2.912    -0.029    28.725     8.789
    29   6 C        2.920    -0.033    28.828     8.805
    30   6 C        2.923    -0.031    28.772     8.796
    31   6 C        2.910    -0.045    29.125     8.849
    32   6 C        3.075     0.048    26.845     8.495
    33   6 C        2.910     0.024    27.463     8.593
    34   7 N        2.801    -0.033    21.870     6.946
    35   6 C        3.074     0.048    26.850     8.496
    36   6 C        2.910    -0.045    29.121     8.849
    37   6 C        2.923    -0.031    28.769     8.796
    38   6 C        2.920    -0.034    28.850     8.808
    39   6 C        2.913    -0.029    28.719     8.788
    40   6 C        3.067    -0.014    28.283     8.720
    41   6 C        3.067    -0.013    28.263     8.717
    42   6 C        2.912    -0.029    28.725     8.789
    43   6 C        2.920    -0.033    28.828     8.805
    44   6 C        2.923    -0.031    28.772     8.796
    45   6 C        2.910    -0.045    29.125     8.849
    46   6 C        3.075     0.048    26.845     8.495
    47   6 C        2.902     0.057    26.719     8.476
    48   7 N        2.804    -0.018    21.596     6.902
    49   6 C        3.075     0.053    26.744     8.479
    50   6 C        2.910    -0.043    29.076     8.842
    51   6 C        2.923    -0.030    28.760     8.795
    52   6 C        2.920    -0.032    28.789     8.799
    53   6 C        2.912    -0.028    28.699     8.785
    54   6 C        3.066    -0.011    28.211     8.710
    55   6 C        3.067    -0.010    28.190     8.706
    56   6 C        2.912    -0.028    28.697     8.784
    57   6 C        2.920    -0.031    28.768     8.796
    58   6 C        2.923    -0.029    28.735     8.791
    59   6 C        2.910    -0.031    28.777     8.796
    60   6 C        3.076     0.065    26.469     8.435
    61   6 C        2.828     0.254    22.739     7.814
    62   8 O        0.856    -0.505    23.907     6.555
    63   7 N        2.815    -0.148    24.197     7.306
    64   6 C        2.913     0.085    26.097     8.377
    65   6 C        2.922    -0.039    28.964     8.826
    66   6 C        2.920    -0.031    28.772     8.796
    67   6 C        2.919    -0.035    28.860     8.810
    68   6 C        2.920    -0.031    28.772     8.796
    69   6 C        2.922    -0.039    28.964     8.826
    70   1 H        0.926     0.032     2.558     2.501
    71   1 H        0.926     0.046     2.365     2.405
    72   1 H        0.926     0.050     2.322     2.383
    73   1 H        0.926     0.051     2.305     2.374
    74   1 H        0.926     0.052     2.297     2.370
    75   1 H        0.926     0.049     2.330     2.387
    76   1 H        0.926     0.043     2.408     2.427
    77   1 H        0.926     0.022     2.698     2.569
    78   1 H        0.926     0.027     2.626     2.534
    79   1 H        0.926     0.042     2.428     2.437
    80   1 H        0.926     0.045     2.388     2.417
    81   1 H        0.926     0.047     2.356     2.400
    82   1 H        0.926     0.048     2.344     2.394
    83   1 H        0.926     0.046     2.374     2.409
    84   1 H        0.926     0.041     2.432     2.439
    85   1 H        0.926     0.023     2.688     2.564
    86   1 H        0.926     0.027     2.626     2.534
    87   1 H        0.926     0.042     2.428     2.437
    88   1 H        0.926     0.045     2.388     2.417
    89   1 H        0.926     0.047     2.356     2.400
    90   1 H        0.926     0.048     2.344     2.394
    91   1 H        0.926     0.046     2.374     2.409
    92   1 H        0.926     0.041     2.432     2.439
    93   1 H        0.926     0.023     2.688     2.564
    94   1 H        0.926     0.032     2.558     2.501
    95   1 H        0.926     0.046     2.365     2.405
    96   1 H        0.926     0.050     2.322     2.383
    97   1 H        0.926     0.051     2.305     2.374
    98   1 H        0.926     0.052     2.297     2.370
    99   1 H        0.926     0.049     2.330     2.387
   100   1 H        0.926     0.043     2.408     2.427
   101   1 H        0.926     0.022     2.699     2.569
   102   1 H        0.926     0.041     2.430     2.438
   103   1 H        0.926     0.041     2.430     2.438
   104   1 H        0.926     0.043     2.409     2.427
   105   1 H        0.926     0.041     2.430     2.438
   106   1 H        0.926     0.041     2.431     2.438

molecular dipole:
                 x           y           z       tot (Debye)
 q only:       -0.034      -5.145       0.004
   full:       -0.031      -4.757       0.003      12.091

 projected vibrational frequencies (cm⁻¹)
eigval :       -0.00    -0.00    -0.00     0.00     0.00     0.00
eigval :       14.49    15.94    20.55    22.83    24.67    25.56
eigval :       27.46    36.51    42.64    45.40    53.80    54.48
eigval :       61.37    66.80    76.43    95.49    97.52   106.47
eigval :      112.38   115.11   118.07   118.44   125.42   126.09
eigval :      139.85   141.62   151.51   155.38   162.82   169.94
eigval :      171.68   176.18   182.30   191.94   196.45   217.95
eigval :      241.53   260.70   261.82   262.02   268.70   270.53
eigval :      274.19   278.84   301.41   302.49   321.20   337.77
eigval :      352.38   363.63   374.39   375.79   384.41   390.43
eigval :      397.81   401.46   405.12   408.09   418.63   420.17
eigval :      423.09   423.50   431.78   432.67   434.93   435.37
eigval :      466.80   471.43   490.75   510.39   512.85   513.22
eigval :      514.96   514.99   517.12   533.50   535.25   536.43
eigval :      539.95   541.64   542.30   544.54   549.94   558.61
eigval :      582.63   582.68   585.20   586.56   586.69   593.05
eigval :      595.93   599.71   615.22   632.40   637.40   647.65
eigval :      655.51   655.86   658.73   671.78   673.01   673.21
eigval :      673.46   676.77   688.17   705.82   706.00   706.35
eigval :      707.87   718.69   727.80   751.79   752.10   754.85
eigval :      755.20   756.64   765.83   766.75   768.83   770.90
eigval :      771.90   774.91   775.42   780.33   781.40   782.81
eigval :      851.41   865.12   867.56   867.89   868.16   868.27
eigval :      869.30   874.66   875.46   876.03   876.91   891.25
eigval :      891.65   892.83   892.87   899.94   900.90   901.62
eigval :      902.02   902.90   904.79   905.50   908.14   908.90
eigval :      919.22   919.49   920.80   920.93   921.23   921.46
eigval :      925.55   926.29   926.67   928.27   966.49   996.60
eigval :     1000.16  1009.76  1010.98  1013.66  1015.88  1041.67
eigval :     1063.78  1065.42  1065.74  1066.94  1068.03  1068.25
eigval :     1069.36  1071.80  1073.10  1073.43  1084.59  1118.06
eigval :     1121.94  1127.45  1136.83  1138.02  1141.84  1144.34
eigval :     1144.41  1153.86  1164.72  1173.47  1175.07  1175.21
eigval :     1175.48  1176.25  1178.21  1179.11  1179.18  1180.94
eigval :     1190.38  1198.43  1211.91  1223.01  1224.11  1226.19
eigval :     1228.03  1229.94  1231.82  1240.20  1258.31  1272.77
eigval :     1274.07  1281.05  1281.59  1284.50  1286.37  1286.66
eigval :     1290.58  1293.34  1296.23  1299.46  1314.01  1319.58
eigval :     1329.30  1329.49  1339.31  1341.80  1346.46  1348.61
eigval :     1360.14  1360.58  1361.66  1363.55  1367.93  1395.32
eigval :     1397.07  1406.69  1407.64  1412.66  1412.91  1415.50
eigval :     1419.81  1421.24  1435.80  1437.24  1452.13  1457.85
eigval :     1458.12  1459.10  1462.33  1465.61  1478.41  1478.61
eigval :     1481.27  1481.53  1486.75  1562.20  1562.39  1563.10
eigval :     1564.11  1574.00  1574.50  1577.63  1578.89  1579.90
eigval :     1580.33  1580.46  1580.52  1582.92  1590.19  1595.87
eigval :     1596.68  1598.72  1605.11  1621.58  1659.65  3072.94
eigval :     3073.33  3076.35  3079.70  3081.99  3082.04  3083.45
eigval :     3083.52  3084.00  3084.10  3086.32  3086.50  3086.54
eigval :     3087.01  3089.83  3090.14  3090.45  3091.25  3091.44
eigval :     3092.68  3092.71  3094.27  3094.54  3097.70  3098.09
eigval :     3099.38  3099.43  3100.54  3100.88  3101.12  3101.61
eigval :     3101.66  3102.33  3103.26  3103.73  3104.56  3105.22

   temp. (K)  partition function   enthalpy   heat capacity  entropy
                                   cal/mol     cal/K/mol   cal/K/mol   J/K/mol
 298.15  VIB  0.151E+24            31150.586    199.731    191.348
         ROT  0.618E+08              888.752      2.981     38.632
         INT  0.933E+31            32039.339    202.712    229.980
         TR   0.254E+29             1481.254      4.968     46.193
         TOT                       33520.5926   207.6802   276.1729  1155.5073

       T/K    H(0)-H(T)+PV         H(T)/Eh          T*S/Eh         G(T)/Eh
   ------------------------------------------------------------------------
    298.15    0.534185E-01    0.846237E+00    0.131219E+00    0.715019E+00
   ------------------------------------------------------------------------

         :::::::::::::::::::::::::::::::::::::::::::::::::::::
         ::                  THERMODYNAMIC                  ::
         :::::::::::::::::::::::::::::::::::::::::::::::::::::
         :: total free energy        -173.879574010579 Eh   ::
         ::.................................................::
         :: total energy             -174.594592525054 Eh   ::
         :: zero point energy           0.792818696453 Eh   ::
         :: G(RRHO) w/o ZPVE           -0.077800181977 Eh   ::
         :: G(RRHO) contrib.            0.715018514475 Eh   ::
         :::::::::::::::::::::::::::::::::::::::::::::::::::::

           -------------------------------------------------
          | TOTAL ENERGY             -174.594592525054 Eh   |
          | TOTAL ENTHALPY           -173.748355364115 Eh   |
          | TOTAL FREE ENERGY        -173.879574010579 Eh   |
          | GRADIENT NORM               0.000165532355 Eh/α |
          | HOMO-LUMO GAP               0.880199585156 eV   |
           -------------------------------------------------

 * finished run on 2025/07/20 at 09:56:33.535
