   * xtb version 6.7.1 (edcfbbe) compiled by 'albert@albert-system' on 2024-07-22

   ID    Z sym.   atoms
    1    8 O      1, 62
    2    6 C      2-5, 7-19, 21-33, 35-47, 49-61, 64-69
    3    7 N      6, 20, 34, 48, 63
    4    1 H      70-106

          program call               : xtb data2507/toluene/AI-4Cz/AI-4Cz_toluene_S0_crest.xyz --gfn 2 --gbsa toluene --ohess vtight --parallel 40 --molden --ceasefiles --namespace data2507/toluene/AI-4Cz/AI-4Cz_toluene_S0_finalOpt
      * Solvation model:               GBSA
        Solvent                        toluene
        Solvent mass                       9.2140E+01 g/mol
          :  Hamiltonian                  GFN2-xTB          :
 * total energy  :  -174.6542797 Eh     change       -0.1626006E-08 Eh
 * total energy  :  -174.6544783 Eh     change       -0.1985294E-03 Eh
 * total energy  :  -174.6546157 Eh     change       -0.1374475E-03 Eh
 * total energy  :  -174.6546630 Eh     change       -0.4733426E-04 Eh
 * total energy  :  -174.6547273 Eh     change       -0.6424893E-04 Eh
 * total energy  :  -174.6547957 Eh     change       -0.6843409E-04 Eh
 * total energy  :  -174.6548676 Eh     change       -0.7182741E-04 Eh
 * total energy  :  -174.6548996 Eh     change       -0.3203590E-04 Eh
 * total energy  :  -174.6549572 Eh     change       -0.5764063E-04 Eh
 * total energy  :  -174.6549967 Eh     change       -0.3941839E-04 Eh
 * total energy  :  -174.6551231 Eh     change       -0.6079818E-06 Eh
 * total energy  :  -174.6551236 Eh     change       -0.4922273E-06 Eh
 * total energy  :  -174.6551238 Eh     change       -0.2855404E-06 Eh
 * total energy  :  -174.6551240 Eh     change       -0.1598010E-06 Eh
 * total energy  :  -174.6551242 Eh     change       -0.1627356E-06 Eh
 * total energy  :  -174.6551243 Eh     change       -0.1883955E-06 Eh
 * total energy  :  -174.6551245 Eh     change       -0.1939246E-06 Eh
 * total energy  :  -174.6551247 Eh     change       -0.1215215E-06 Eh
 * total energy  :  -174.6551247 Eh     change       -0.3075755E-07 Eh
   *** GEOMETRY OPTIMIZATION CONVERGED AFTER 43 ITERATIONS ***

 final structure:
================
106
 xtb: 6.7.1 (edcfbbe)
O            2.25304123923692        3.70235910459336       -0.51560006415707
C            1.15948675377349        3.27552223110689       -0.23003238894121
C            0.70601851849037        1.87764083218507       -0.09558599608233
C           -0.68038230966237        1.88673744114597        0.09451667892858
C           -1.41555559548404        0.71209636030608        0.16782250576794
N           -2.79533818522753        0.72739959986788        0.31960490497042
C           -3.52600142152464        0.04151189714497        1.27809898163578
C           -3.08162620718113       -0.64354472081121        2.39688432806860
C           -4.03195204553806       -1.22905248952830        3.21341345559699
C           -5.39151749864862       -1.11582058508477        2.93852317552136
C           -5.83973405837998       -0.38575231743760        1.85413023488221
C           -4.90292906869388        0.20787630906733        1.01952544053839
C           -5.00504502772483        1.04794999288765       -0.14388780017486
C           -6.07883174362189        1.53755770250298       -0.87465321321150
C           -5.82314983038626        2.31989892591733       -1.98421015474717
C           -4.51762218922533        2.60024315540384       -2.37730462866509
C           -3.43339298177777        2.11877578207597       -1.66655330123039
C           -3.68627910650804        1.35854651670310       -0.53655266165497
C           -0.70167419982636       -0.51130651140733        0.07577965990873
N           -1.40107125618046       -1.71534353390366        0.14760387848428
C           -1.18702633444375       -2.73701892429508        1.06153041575157
C           -0.29374267136549       -2.80148950122260        2.11848425209875
C           -0.30365501338420       -3.93865560971976        2.90523004707620
C           -1.19696944113537       -4.97802920970149        2.66402205331387
C           -2.12170160485786       -4.89636051586430        1.64063313552389
C           -2.12416899305864       -3.76665511549531        0.83447259645175
C           -2.94378257483011       -3.34404154387317       -0.26873551877926
C           -4.00359319564077       -3.92827732136958       -0.94820064993170
C           -4.56087250675525       -3.24987628714254       -2.01504695014878
C           -4.05419188847763       -2.02023682120561       -2.42478742483775
C           -2.99579486718013       -1.42301035930009       -1.76532305364486
C           -2.46797358026364       -2.07647349377649       -0.66316437026852
C            0.69582891429944       -0.52050318498852       -0.07514135493665
N            1.37925096918831       -1.73371176471042       -0.14631169176070
C            1.15137528998734       -2.75313675599998       -1.05942781477710
C            0.25714569944874       -2.80646262227366       -2.11619623887925
C            0.25162387209456       -3.94431130571990       -2.90201034178332
C            1.13104222475373       -4.99532560682261       -2.66019692226075
C            2.05694096695314       -4.92526417367083       -1.63701133543753
C            2.07463143529177       -3.79509086830642       -0.83169960381254
C            2.90000612352708       -3.38265705595423        0.27105314791734
C            3.95223129654851       -3.98040435120548        0.95055646786524
C            4.51898222462163       -3.30857501561432        2.01656920080026
C            4.02888987188784       -2.07196287886698        2.42550834154076
C            2.97816897008943       -1.46129753244125        1.76606550706993
C            2.44133457979879       -2.10850768036305        0.66457643238758
C            1.42572047936383        0.69338948296520       -0.16793849786987
N            2.80562146041753        0.69039572637994       -0.31971801060432
C            3.52712938289662       -0.00524819492182       -1.27810639027609
C            3.07368386330566       -0.68456177400824       -2.39675898678173
C            4.01616377146823       -1.28251030417419       -3.21337758022176
C            5.37710079513063       -1.18720649173116       -2.93853720463780
C            5.83497444337910       -0.46335309860560       -1.85400974620556
C            4.90614891376899        0.14276963369099       -1.01947202598119
C            5.01939355923476        0.98155590301459        0.14383745710892
C            6.09958730279937        1.45694031977767        0.87456809666199
C            5.85428051975152        2.24269207615684        1.98405192582257
C            4.55256829588801        2.54033183800321        2.37709853384276
C            3.46205034914919        2.07334729292722        1.66631678079878
C            3.70485296333403        1.30969694870580        0.53641443366363
C           -1.11569279030889        3.29044929848105        0.22748516277727
O           -2.20343158196971        3.73173781189721        0.51329321676883
N            0.02683520543446        4.05851916500444       -0.00207948793239
C            0.03541443983290        5.47770268278467       -0.00361243599328
C           -0.99159042720901        6.17338988684893       -0.62898553223491
C           -0.98136115038745        7.55679054521850       -0.62098616571420
C            0.05133198164830        8.24490356513627       -0.00618487210095
C            1.07618017710995        7.54609827446812        0.60968618665571
C            1.07045101331337        6.16267281642485        0.62030964713379
H           -2.03193897693511       -0.71203275384331        2.63783730211144
H           -3.70807801775141       -1.78028379918638        4.08345724476963
H           -6.10381453998399       -1.59037341165958        3.59641178364090
H           -6.89496839814686       -0.26915374240867        1.66111835003089
H           -7.09075682396474        1.30575220511787       -0.58032068777511
H           -6.64382788783688        2.71601852353461       -2.56314583016607
H           -4.34530152753632        3.20302356616218       -3.25690217373508
H           -2.42342480624183        2.33089429294587       -1.98997331101713
H            0.38377880602816       -1.99135967612285        2.33980796281602
H            0.39466431039453       -4.01371461250123        3.72536189816492
H           -1.17411092351674       -5.85142040475690        3.29820879249612
H           -2.83434148020873       -5.68877215237194        1.47200074373788
H           -4.37707989410517       -4.89541783219367       -0.64935384683360
H           -5.39018802521237       -3.68381967699645       -2.55287113842673
H           -4.48988950396543       -1.52024195063269       -3.27684279595177
H           -2.59637872046681       -0.48165650886013       -2.11273718696498
H           -0.40948691009552       -1.98750178962255       -2.33805053774398
H           -0.44779882504197       -4.01068773162612       -3.72194597482680
H            1.09637295568481       -5.86881800566401       -3.29370699348955
H            2.75896902712359       -5.72698451895616       -1.46787329623043
H            4.31277179028745       -4.95262252953112        0.65229086481564
H            5.34298468813709       -3.75285288924675        2.55412718413238
H            4.47167667466870       -1.57707683315503        3.27689652609356
H            2.59139639328980       -0.51448017704403        2.11293488143478
H            2.02314510808074       -0.73931654559000       -2.63753889897594
H            3.68501363716521       -1.82934706689416       -4.08345107186758
H            6.08304354261239       -1.67101482883589       -3.59653107895430
H            6.89165448459681       -0.36090319771796       -1.66092857500883
H            7.10833660431991        1.21154237216175        0.58035310873994
H            6.68005609537055        2.62786459751741        2.56310964522736
H            4.38825111844044        3.14559742177893        3.25651412318804
H            2.45499735730214        2.29916265111998        1.98956427306481
H           -1.79503514948797        5.63453061149999       -1.10668402625818
H           -1.78275061859016        8.09563263595527       -1.10323500450502
H            0.05750222968217        9.32417225695287       -0.00724564888793
H            1.88373832703330        8.07656872330813        1.09093274232060
H            1.86766725850835        5.61548316359366        1.09894730457225

          :  Hamiltonian                  GFN2-xTB          :
         :: gradient norm              0.000060008521 Eh/a0 ::
         :: HOMO-LUMO gap              1.298803540468 eV    ::
         :: SCC energy              -177.810768730037 Eh    ::
         :: -> dispersion             -0.194601778558 Eh    ::
         :: -> Gsolv                  -0.065222481925 Eh    ::
         :: repulsion energy           3.155644034937 Eh    ::

    * Orbital Energies and Occupations

         #    Occupation            Energy/Eh            Energy/eV
      -------------------------------------------------------------
         1        2.0000           -0.7446015             -20.2616
       ...           ...                  ...                  ...
       149        2.0000           -0.4162812             -11.3276
       150        2.0000           -0.4149198             -11.2905
       151        2.0000           -0.4141510             -11.2696
       152        2.0000           -0.4139081             -11.2630
       153        2.0000           -0.4093725             -11.1396
       154        2.0000           -0.3921378             -10.6706
       155        2.0000           -0.3907314             -10.6323
       156        2.0000           -0.3882717             -10.5654
       157        2.0000           -0.3873013             -10.5390
       158        2.0000           -0.3826548             -10.4126
       159        2.0000           -0.3817179             -10.3871
       160        2.0000           -0.3785391             -10.3006
       161        2.0000           -0.3762975             -10.2396 (HOMO)
       162                         -0.3285673              -8.9408 (LUMO)
       163                         -0.2895139              -7.8781
       164                         -0.2583303              -7.0295
       165                         -0.2557643              -6.9597
       166                         -0.2549913              -6.9387
       167                         -0.2542972              -6.9198
       168                         -0.2421761              -6.5899
       169                         -0.2418160              -6.5801
       170                         -0.2379293              -6.4744
       171                         -0.2372882              -6.4569
       172                         -0.2344614              -6.3800
       ...                                ...                  ...
       313                          0.7375317              20.0693
      -------------------------------------------------------------
                  HL-Gap            0.0477302 Eh            1.2988 eV

     #   Z          covCN         q      C6AA      α(0)
     1   8 O        0.857    -0.399    21.653     6.239
     2   6 C        2.833     0.285    22.186     7.719
     3   6 C        3.040    -0.052    29.241     8.869
     4   6 C        3.040    -0.052    29.242     8.869
     5   6 C        2.905     0.065    26.535     8.446
     6   7 N        2.800    -0.042    22.055     6.975
     7   6 C        3.069     0.050    26.806     8.489
     8   6 C        2.910    -0.050    29.239     8.867
     9   6 C        2.925    -0.032    28.806     8.802
    10   6 C        2.920    -0.038    28.947     8.823
    11   6 C        2.913    -0.032    28.800     8.800
    12   6 C        3.066    -0.014    28.291     8.722
    13   6 C        3.067    -0.012    28.255     8.716
    14   6 C        2.913    -0.031    28.784     8.798
    15   6 C        2.920    -0.038    28.946     8.823
    16   6 C        2.924    -0.032    28.802     8.801
    17   6 C        2.910    -0.043    29.060     8.839
    18   6 C        3.069     0.057    26.645     8.464
    19   6 C        2.912     0.047    26.936     8.510
    20   7 N        2.801    -0.044    22.092     6.981
    21   6 C        3.068     0.049    26.830     8.494
    22   6 C        2.911    -0.049    29.223     8.864
    23   6 C        2.924    -0.032    28.795     8.800
    24   6 C        2.920    -0.037    28.932     8.821
    25   6 C        2.913    -0.031    28.782     8.797
    26   6 C        3.068    -0.014    28.290     8.722
    27   6 C        3.066    -0.014    28.297     8.723
    28   6 C        2.913    -0.031    28.782     8.797
    29   6 C        2.920    -0.037    28.932     8.821
    30   6 C        2.924    -0.032    28.797     8.800
    31   6 C        2.910    -0.049    29.209     8.862
    32   6 C        3.069     0.049    26.826     8.493
    33   6 C        2.912     0.047    26.936     8.510
    34   7 N        2.801    -0.044    22.092     6.981
    35   6 C        3.068     0.049    26.830     8.494
    36   6 C        2.911    -0.049    29.223     8.864
    37   6 C        2.924    -0.032    28.795     8.800
    38   6 C        2.920    -0.037    28.932     8.821
    39   6 C        2.913    -0.031    28.782     8.797
    40   6 C        3.068    -0.014    28.290     8.722
    41   6 C        3.066    -0.014    28.297     8.723
    42   6 C        2.913    -0.031    28.782     8.797
    43   6 C        2.920    -0.037    28.932     8.821
    44   6 C        2.924    -0.032    28.797     8.800
    45   6 C        2.910    -0.049    29.209     8.862
    46   6 C        3.069     0.049    26.826     8.493
    47   6 C        2.905     0.065    26.535     8.446
    48   7 N        2.800    -0.042    22.056     6.975
    49   6 C        3.069     0.050    26.806     8.489
    50   6 C        2.910    -0.050    29.239     8.867
    51   6 C        2.925    -0.032    28.806     8.802
    52   6 C        2.920    -0.038    28.947     8.823
    53   6 C        2.913    -0.032    28.800     8.800
    54   6 C        3.066    -0.014    28.291     8.722
    55   6 C        3.067    -0.012    28.255     8.716
    56   6 C        2.913    -0.031    28.784     8.798
    57   6 C        2.920    -0.038    28.946     8.823
    58   6 C        2.924    -0.032    28.802     8.801
    59   6 C        2.910    -0.043    29.060     8.840
    60   6 C        3.069     0.057    26.645     8.464
    61   6 C        2.833     0.285    22.186     7.719
    62   8 O        0.857    -0.399    21.653     6.239
    63   7 N        2.795    -0.125    23.716     7.233
    64   6 C        2.915     0.074    26.340     8.416
    65   6 C        2.921    -0.036    28.890     8.814
    66   6 C        2.921    -0.026    28.649     8.777
    67   6 C        2.919    -0.029    28.713     8.787
    68   6 C        2.921    -0.026    28.649     8.777
    69   6 C        2.921    -0.036    28.890     8.814
    70   1 H        0.926     0.022     2.708     2.573
    71   1 H        0.926     0.039     2.466     2.455
    72   1 H        0.926     0.041     2.429     2.437
    73   1 H        0.926     0.044     2.399     2.422
    74   1 H        0.926     0.045     2.389     2.417
    75   1 H        0.926     0.041     2.429     2.437
    76   1 H        0.926     0.037     2.488     2.467
    77   1 H        0.925     0.008     2.915     2.670
    78   1 H        0.926     0.021     2.720     2.579
    79   1 H        0.926     0.038     2.473     2.459
    80   1 H        0.926     0.041     2.434     2.440
    81   1 H        0.926     0.044     2.399     2.422
    82   1 H        0.926     0.044     2.395     2.420
    83   1 H        0.926     0.041     2.431     2.438
    84   1 H        0.926     0.038     2.481     2.463
    85   1 H        0.926     0.017     2.780     2.607
    86   1 H        0.926     0.021     2.720     2.579
    87   1 H        0.926     0.038     2.473     2.459
    88   1 H        0.926     0.041     2.434     2.440
    89   1 H        0.926     0.044     2.399     2.422
    90   1 H        0.926     0.044     2.395     2.420
    91   1 H        0.926     0.041     2.431     2.438
    92   1 H        0.926     0.038     2.481     2.463
    93   1 H        0.926     0.017     2.779     2.607
    94   1 H        0.926     0.022     2.708     2.573
    95   1 H        0.926     0.039     2.466     2.455
    96   1 H        0.926     0.041     2.430     2.437
    97   1 H        0.926     0.044     2.399     2.422
    98   1 H        0.926     0.045     2.389     2.417
    99   1 H        0.926     0.041     2.429     2.437
   100   1 H        0.926     0.037     2.488     2.467
   101   1 H        0.925     0.008     2.915     2.670
   102   1 H        0.926     0.045     2.379     2.412
   103   1 H        0.926     0.052     2.294     2.369
   104   1 H        0.926     0.053     2.279     2.361
   105   1 H        0.926     0.052     2.294     2.369
   106   1 H        0.926     0.045     2.378     2.412

molecular dipole:
                 x           y           z       tot (Debye)
 q only:       -0.014      -1.832      -0.000
   full:       -0.012      -1.565      -0.000       3.978

 projected vibrational frequencies (cm⁻¹)
eigval :       -0.00    -0.00     0.00     0.00     0.00     0.00
eigval :       15.69    16.90    23.75    26.34    28.60    28.79
eigval :       32.32    36.50    44.79    47.30    55.36    56.21
eigval :       63.51    68.59    73.76    95.70    99.87   109.27
eigval :      117.13   117.66   120.23   121.64   127.78   130.62
eigval :      137.87   143.95   153.04   158.41   160.27   165.68
eigval :      171.54   178.53   187.64   189.85   203.03   217.43
eigval :      242.47   256.73   262.43   263.16   274.95   275.24
eigval :      277.45   279.87   302.02   302.48   326.28   339.53
eigval :      352.95   364.59   371.08   375.98   393.77   399.18
eigval :      403.39   406.38   407.51   410.00   421.99   422.39
eigval :      423.15   425.22   437.06   437.86   440.12   444.16
eigval :      476.46   490.46   498.32   514.06   514.86   516.92
eigval :      518.20   518.73   523.62   531.10   539.21   541.58
eigval :      542.78   543.19   544.02   544.73   552.95   559.86
eigval :      583.86   585.24   587.19   588.83   590.27   593.97
eigval :      597.48   603.03   620.91   639.43   655.43   655.91
eigval :      657.94   671.68   672.77   673.93   674.01   690.59
eigval :      692.32   703.11   705.87   706.22   708.04   708.45
eigval :      719.65   724.86   729.44   752.71   753.82   756.37
eigval :      756.41   758.11   769.74   770.89   771.44   773.88
eigval :      775.86   782.61   782.68   783.74   785.52   786.57
eigval :      851.21   863.76   873.11   873.66   874.12   876.04
eigval :      876.25   876.63   877.43   879.14   880.03   891.90
eigval :      893.61   894.52   900.26   902.19   902.49   903.04
eigval :      903.37   904.59   904.87   906.44   906.80   909.10
eigval :      923.65   923.74   924.02   924.11   924.27   926.35
eigval :      927.05   927.71   928.34   932.23   964.77   992.71
eigval :      997.64  1012.46  1013.08  1015.36  1015.99  1061.84
eigval :     1069.09  1070.24  1070.64  1071.67  1072.20  1073.62
eigval :     1075.36  1075.79  1076.61  1083.19  1110.44  1120.04
eigval :     1121.97  1133.05  1145.30  1150.54  1150.78  1151.78
eigval :     1152.01  1154.71  1164.58  1175.23  1177.84  1178.20
eigval :     1178.33  1179.13  1179.76  1180.47  1181.08  1182.61
eigval :     1191.93  1197.86  1208.16  1226.69  1230.05  1232.31
eigval :     1233.13  1234.02  1234.76  1245.37  1252.77  1282.47
eigval :     1284.13  1287.43  1292.56  1293.50  1293.78  1295.09
eigval :     1297.01  1297.27  1310.79  1314.13  1318.70  1318.88
eigval :     1332.67  1356.87  1357.25  1357.58  1358.85  1359.05
eigval :     1359.16  1359.87  1361.08  1368.64  1386.12  1409.26
eigval :     1411.08  1418.66  1422.41  1425.05  1426.70  1426.87
eigval :     1427.26  1428.62  1435.72  1462.06  1469.96  1470.71
eigval :     1471.38  1471.41  1472.15  1484.48  1484.59  1484.95
eigval :     1485.24  1521.71  1558.28  1577.34  1577.45  1577.80
eigval :     1578.21  1588.33  1591.66  1591.83  1591.93  1592.20
eigval :     1592.91  1598.91  1599.13  1599.37  1599.44  1611.19
eigval :     1611.59  1611.98  1613.58  1719.13  1733.92  3057.15
eigval :     3057.55  3077.17  3077.36  3079.87  3079.90  3080.93
eigval :     3081.14  3081.53  3081.54  3083.57  3083.70  3085.65
eigval :     3086.35  3086.47  3086.96  3087.33  3087.90  3087.99
eigval :     3089.62  3091.38  3091.81  3093.26  3093.42  3094.66
eigval :     3095.18  3097.84  3098.12  3098.32  3099.24  3099.72
eigval :     3101.21  3101.29  3101.84  3101.98  3105.11  3107.81

   temp. (K)  partition function   enthalpy   heat capacity  entropy
                                   cal/mol     cal/K/mol   cal/K/mol   J/K/mol
 298.15  VIB  0.399E+23            30880.677    198.706    189.295
         ROT  0.618E+08              888.752      2.981     38.632
         INT  0.247E+31            31769.430    201.687    227.927
         TR   0.254E+29             1481.254      4.968     46.193
         TOT                       33250.6834   206.6552   274.1202  1146.9189

       T/K    H(0)-H(T)+PV         H(T)/Eh          T*S/Eh         G(T)/Eh
   ------------------------------------------------------------------------
    298.15    0.529883E-01    0.849552E+00    0.130243E+00    0.719309E+00
   ------------------------------------------------------------------------

         :::::::::::::::::::::::::::::::::::::::::::::::::::::
         ::                  THERMODYNAMIC                  ::
         :::::::::::::::::::::::::::::::::::::::::::::::::::::
         :: total free energy        -173.935815658071 Eh   ::
         ::.................................................::
         :: total energy             -174.655124695991 Eh   ::
         :: zero point energy           0.796564052687 Eh   ::
         :: G(RRHO) w/o ZPVE           -0.077255014766 Eh   ::
         :: G(RRHO) contrib.            0.719309037920 Eh   ::
         :::::::::::::::::::::::::::::::::::::::::::::::::::::

           -------------------------------------------------
          | TOTAL ENERGY             -174.655124695991 Eh   |
          | TOTAL ENTHALPY           -173.805572306404 Eh   |
          | TOTAL FREE ENERGY        -173.935815658071 Eh   |
          | GRADIENT NORM               0.000060021722 Eh/α |
          | HOMO-LUMO GAP               1.298805861098 eV   |
           -------------------------------------------------

 * finished run on 2025/07/20 at 09:56:17.301
