   * xtb version 6.7.1 (edcfbbe) compiled by 'albert@albert-system' on 2024-07-22

   ID    Z sym.   atoms
    1    8 O      1, 62
    2    6 C      2-5, 7-19, 21-33, 35-47, 49-61, 64-69
    3    7 N      6, 20, 34, 48, 63
    4    1 H      70-106

          program call               : xtb data2507/toluene/AI-4Cz/AI-4Cz_toluene_T1_crest.xyz --gfn 2 --uhf 2 --gbsa toluene --ohess vtight --parallel 40 --molden --ceasefiles --namespace data2507/toluene/AI-4Cz/AI-4Cz_toluene_T1_finalOpt
      * Solvation model:               GBSA
        Solvent                        toluene
        Solvent mass                       9.2140E+01 g/mol
          :  Hamiltonian                  GFN2-xTB          :
 * total energy  :  -174.5929147 Eh     change       -0.1135419E-07 Eh
 * total energy  :  -174.5932214 Eh     change       -0.3067078E-03 Eh
 * total energy  :  -174.5934076 Eh     change       -0.1861918E-03 Eh
 * total energy  :  -174.5935017 Eh     change       -0.9413434E-04 Eh
 * total energy  :  -174.5936325 Eh     change       -0.1307495E-03 Eh
 * total energy  :  -174.5937903 Eh     change       -0.1578230E-03 Eh
 * total energy  :  -174.5939332 Eh     change       -0.1428968E-03 Eh
 * total energy  :  -174.5940718 Eh     change       -0.1386395E-03 Eh
 * total energy  :  -174.5942003 Eh     change       -0.1285153E-03 Eh
 * total energy  :  -174.5943214 Eh     change       -0.1210921E-03 Eh
 * total energy  :  -174.5945876 Eh     change       -0.1131143E-05 Eh
 * total energy  :  -174.5945887 Eh     change       -0.1119257E-05 Eh
 * total energy  :  -174.5945897 Eh     change       -0.9611898E-06 Eh
 * total energy  :  -174.5945905 Eh     change       -0.8818223E-06 Eh
 * total energy  :  -174.5945914 Eh     change       -0.9097376E-06 Eh
 * total energy  :  -174.5945921 Eh     change       -0.6274504E-06 Eh
 * total energy  :  -174.5945924 Eh     change       -0.3154585E-06 Eh
 * total energy  :  -174.5945926 Eh     change       -0.2023492E-06 Eh
 * total energy  :  -174.5945926 Eh     change       -0.2669657E-07 Eh
   *** GEOMETRY OPTIMIZATION CONVERGED AFTER 38 ITERATIONS ***

 final structure:
================
106
 xtb: 6.7.1 (edcfbbe)
O            2.35046962469860        3.68048090989136       -0.40644880604292
C            1.21978047959062        3.24517414390669       -0.17683891160571
C            0.74904288755534        1.89032575619468       -0.07950049972336
C           -0.67295282243485        1.91870061849222        0.08030789831795
C           -1.40239118837908        0.72720208850643        0.15456651267324
N           -2.79398006421181        0.75295773684204        0.29634724259849
C           -3.52049118488066        0.14967003978768        1.30100848923270
C           -3.07237761118855       -0.49471235467067        2.44523237461990
C           -4.02250813994208       -1.01649201859064        3.30470086673330
C           -5.38286131234617       -0.88345918390983        3.04461851870257
C           -5.83482273186608       -0.19926846693923        1.92707365375110
C           -4.90086917111084        0.32865019472127        1.05092570099060
C           -4.99703621048951        1.10134880735749       -0.16160232824455
C           -6.06137186258499        1.57242686410857       -0.91268194106857
C           -5.79087541111041        2.28330697282657       -2.07065193185497
C           -4.48161969857285        2.51421709041166       -2.48428535430575
C           -3.40446879757117        2.04792711878140       -1.75378931351449
C           -3.67067010580901        1.35410154833785       -0.58113250203251
C           -0.72056395326225       -0.48831435082590        0.07888958134412
N           -1.42084481435348       -1.70273596754603        0.16511185614473
C           -1.22846069642026       -2.68642179862540        1.11685150455508
C           -0.35819242393255       -2.71000236248088        2.19720065072019
C           -0.37403289713496       -3.82389930552906        3.01591493316103
C           -1.24716991852512       -4.88215110727715        2.78063274095045
C           -2.14444821804645       -4.84584132880812        1.72772011173031
C           -2.14254263186289       -3.73997826772092        0.89113573028089
C           -2.93228802493890       -3.35838674251466       -0.24891130892500
C           -3.96991782905282       -3.96492758297520       -0.93983775471602
C           -4.50722423392032       -3.31276141549145       -2.03571956263935
C           -4.00495410312949       -2.08451309996302       -2.45818333778464
C           -2.96797072329518       -1.46402720501466       -1.78809660049711
C           -2.45194832524361       -2.09502292516442       -0.66377978170299
C            0.69975501505252       -0.51671173355864       -0.08031586170705
N            1.35062894197360       -1.75823373983826       -0.16753998180326
C            1.12031778607668       -2.73203210234149       -1.12105004224375
C            0.24982126566714       -2.71995690753937       -2.20138710263149
C            0.22349035223154       -3.83161198838130       -3.02287638353249
C            1.05594325303802       -4.92273807528060       -2.79030541933557
C            1.95345463510952       -4.92335051769316       -1.73698962276468
C            1.99324476868263       -3.82038132932057       -0.89754007958190
C            2.79701565250725       -3.47174909381049        0.24324736818310
C            3.81115220599990       -4.11869833491450        0.93236178529264
C            4.37395475403508       -3.48928951275020        2.02876535280191
C            3.91947152499336       -2.24335614996638        2.45355698893849
C            2.90628981821461       -1.58268478616519        1.78547641858020
C            2.36586971581095       -2.19153970448987        0.66044275167032
C            1.43003482741636        0.67051986890692       -0.15481396134828
N            2.82164398000513        0.64022362730667       -0.29580608518714
C            3.52404112340320        0.00665057956526       -1.29904060747436
C            3.05141699392828       -0.61913277106694       -2.44373959077265
C            3.98038367632569       -1.18190945025120       -3.30051749286991
C            5.34457459277030       -1.10642906984759       -3.03766858126867
C            5.82284879198453       -0.44000889526302       -1.92034792767067
C            4.91026151915988        0.12770564093037       -1.04659351592340
C            5.03668618263009        0.89654533723636        0.16559802415804
C            6.11868712910431        1.32367467359469        0.91771495215342
C            5.87632093128700        2.04634718742855        2.07459401363896
C            4.57718495125368        2.33123747970272        2.48646573727299
C            3.48253948532911        1.90898958800680        1.75518287273412
C            3.72133436726518        1.20438860916055        0.58305165775413
C           -1.08923304632015        3.29106715679945        0.17943342052354
O           -2.20164615774568        3.77074911270634        0.40992892304327
N            0.08086370473834        4.04964425014788        0.00168080185944
C            0.10857592334683        5.45610263116191        0.00236243545369
C           -0.91782943698887        6.17533468584826       -0.60324844824976
C           -0.88933711890884        7.55739536939023       -0.59274884660077
C            0.16221836008452        8.23256755643909        0.00440198604031
C            1.18715540492408        7.51641233864899        0.60011566109201
C            1.16214666229998        6.13424151989714        0.60870653652255
H           -2.02019129431736       -0.57283872373688        2.66949115679959
H           -3.69819337354135       -1.53113828069215        4.19632010535144
H           -6.09605028489869       -1.30560967052245        3.73609496807108
H           -6.89067090248468       -0.07282437971471        1.74510815570279
H           -7.07785775436938        1.38662684935726       -0.60239027959169
H           -6.60616685345672        2.66444224601358       -2.66685329320290
H           -4.30200115525036        3.06717352611693       -3.39429493428762
H           -2.39016007549790        2.22723977357285       -2.07989951040995
H            0.30343194417183       -1.88351909743858        2.40529581907592
H            0.30200476649125       -3.86712291441870        3.85647974028939
H           -1.23004827451663       -5.73666585517055        3.44003641350910
H           -2.83657480250186       -5.65665763655201        1.56164220103908
H           -4.34606086495571       -4.92717200686479       -0.62906415518253
H           -5.32012927772558       -3.76560107163108       -2.58275782778743
H           -4.42907025889064       -1.60544945133624       -3.32773198902577
H           -2.57271666530133       -0.52218314685757       -2.13779047831013
H           -0.37972293614016       -1.86833224246474       -2.40759352538223
H           -0.45354597042650       -3.84710039710464       -3.86357519170271
H            1.00688260087523       -5.77402721532534       -3.45224734950493
H            2.61439219160856       -5.76014158759911       -1.57276881918042
H            4.15003206491700       -5.09405863428127        0.61961203558045
H            5.16983275053207       -3.97341813021522        2.57406760848678
H            4.36242531420947       -1.78222753582420        3.32341859806727
H            2.54784268390748       -0.62684575095197        2.13690121550894
H            1.99736875994161       -0.65232202379139       -2.67039596882131
H            3.63643796819555       -1.68356015454097       -4.19218428244310
H            6.04058739467730       -1.55956701115388       -3.72704029036050
H            6.88272667858490       -0.35773671233024       -1.73654190309794
H            7.12697657933376        1.09531230249199        0.60909930916817
H            6.70578521011176        2.39384160942276        2.67179501163267
H            4.41943335426842        2.89194883484328        3.39577677969499
H            2.47617167029908        2.13027547213577        2.08007474123378
H           -1.73712100694495        5.64755949180728       -1.06618216423487
H           -1.69191041594485        8.10784612022532       -1.06122891654184
H            0.18273085123413        9.31207650161850        0.00546315871564
H            2.01014065606651        8.03477485279669        1.06985863616637
H            1.96078877352266        5.57460334731654        1.07032065858280

          :  Hamiltonian                  GFN2-xTB          :
         :: gradient norm              0.000141899313 Eh/a0 ::
         :: HOMO-LUMO gap              0.880350518628 eV    ::
         :: SCC energy              -177.731770038945 Eh    ::
         :: -> dispersion             -0.192412410885 Eh    ::
         :: -> Gsolv                  -0.076575928094 Eh    ::
         :: repulsion energy           3.137177417472 Eh    ::

    * Orbital Energies and Occupations

         #    Occupation            Energy/Eh            Energy/eV
      -------------------------------------------------------------
         1        2.0000           -0.7020590             -19.1040
       ...           ...                  ...                  ...
       150        2.0000           -0.4083258             -11.1111
       151        2.0000           -0.3999176             -10.8823
       152        2.0000           -0.3957284             -10.7683
       153        2.0000           -0.3951604             -10.7529
       154        2.0000           -0.3932871             -10.7019
       155        2.0000           -0.3931907             -10.6993
       156        2.0000           -0.3911684             -10.6442
       157        1.9998           -0.3867139             -10.5230
       158        1.9863           -0.3827258             -10.4145
       159        1.9564           -0.3815934             -10.3837
       160        1.6203           -0.3791264             -10.3166
       161        1.4372           -0.3784201             -10.2973
       162        1.0000           -0.3046471              -8.2899 (HOMO)
       163                         -0.2722949              -7.4095 (LUMO)
       164                         -0.2601401              -7.0788
       165                         -0.2592133              -7.0536
       166                         -0.2587865              -7.0419
       167                         -0.2576150              -7.0101
       168                         -0.2415440              -6.5727
       169                         -0.2394140              -6.5148
       170                         -0.2360002              -6.4219
       171                         -0.2335323              -6.3547
       172                         -0.2262929              -6.1577
       173                         -0.2260283              -6.1505
       ...                                ...                  ...
       313                          0.7339947              19.9730
      -------------------------------------------------------------
                  HL-Gap            0.0323522 Eh            0.8803 eV

     #   Z          covCN         q      C6AA      α(0)
     1   8 O        0.856    -0.505    23.906     6.555
     2   6 C        2.828     0.254    22.739     7.814
     3   6 C        3.046    -0.067    29.612     8.925
     4   6 C        3.047    -0.067    29.612     8.925
     5   6 C        2.902     0.057    26.720     8.476
     6   7 N        2.804    -0.018    21.596     6.902
     7   6 C        3.075     0.053    26.743     8.479
     8   6 C        2.910    -0.043    29.076     8.842
     9   6 C        2.923    -0.030    28.760     8.795
    10   6 C        2.920    -0.032    28.789     8.799
    11   6 C        2.912    -0.028    28.699     8.785
    12   6 C        3.066    -0.011    28.211     8.710
    13   6 C        3.067    -0.010    28.190     8.706
    14   6 C        2.912    -0.028    28.696     8.784
    15   6 C        2.920    -0.031    28.768     8.796
    16   6 C        2.923    -0.029    28.735     8.791
    17   6 C        2.910    -0.031    28.777     8.796
    18   6 C        3.076     0.065    26.469     8.435
    19   6 C        2.910     0.024    27.462     8.593
    20   7 N        2.801    -0.032    21.869     6.946
    21   6 C        3.074     0.048    26.850     8.496
    22   6 C        2.910    -0.045    29.121     8.849
    23   6 C        2.923    -0.031    28.770     8.796
    24   6 C        2.920    -0.034    28.850     8.808
    25   6 C        2.913    -0.029    28.719     8.788
    26   6 C        3.067    -0.014    28.283     8.720
    27   6 C        3.067    -0.013    28.263     8.717
    28   6 C        2.912    -0.029    28.725     8.789
    29   6 C        2.920    -0.033    28.828     8.805
    30   6 C        2.923    -0.031    28.772     8.796
    31   6 C        2.910    -0.045    29.125     8.849
    32   6 C        3.075     0.048    26.845     8.495
    33   6 C        2.910     0.024    27.462     8.593
    34   7 N        2.801    -0.033    21.870     6.946
    35   6 C        3.074     0.048    26.850     8.496
    36   6 C        2.910    -0.045    29.121     8.849
    37   6 C        2.923    -0.031    28.770     8.796
    38   6 C        2.920    -0.034    28.850     8.808
    39   6 C        2.913    -0.029    28.719     8.788
    40   6 C        3.067    -0.014    28.283     8.720
    41   6 C        3.067    -0.013    28.263     8.717
    42   6 C        2.912    -0.029    28.725     8.789
    43   6 C        2.920    -0.033    28.828     8.805
    44   6 C        2.923    -0.031    28.772     8.796
    45   6 C        2.910    -0.045    29.125     8.849
    46   6 C        3.075     0.048    26.845     8.495
    47   6 C        2.902     0.057    26.720     8.476
    48   7 N        2.804    -0.018    21.597     6.902
    49   6 C        3.075     0.053    26.744     8.479
    50   6 C        2.910    -0.043    29.076     8.842
    51   6 C        2.923    -0.030    28.760     8.795
    52   6 C        2.920    -0.032    28.789     8.799
    53   6 C        2.912    -0.028    28.699     8.785
    54   6 C        3.066    -0.011    28.212     8.710
    55   6 C        3.067    -0.010    28.190     8.706
    56   6 C        2.912    -0.028    28.697     8.784
    57   6 C        2.920    -0.031    28.768     8.796
    58   6 C        2.923    -0.029    28.735     8.791
    59   6 C        2.910    -0.031    28.777     8.796
    60   6 C        3.075     0.065    26.470     8.435
    61   6 C        2.828     0.254    22.739     7.814
    62   8 O        0.856    -0.505    23.906     6.555
    63   7 N        2.815    -0.148    24.197     7.306
    64   6 C        2.913     0.085    26.096     8.377
    65   6 C        2.922    -0.039    28.963     8.825
    66   6 C        2.920    -0.031    28.772     8.796
    67   6 C        2.919    -0.035    28.860     8.810
    68   6 C        2.920    -0.031    28.772     8.796
    69   6 C        2.922    -0.039    28.964     8.826
    70   1 H        0.926     0.032     2.558     2.501
    71   1 H        0.926     0.046     2.365     2.405
    72   1 H        0.926     0.050     2.322     2.383
    73   1 H        0.926     0.051     2.306     2.374
    74   1 H        0.926     0.052     2.297     2.370
    75   1 H        0.926     0.049     2.330     2.387
    76   1 H        0.926     0.043     2.408     2.427
    77   1 H        0.926     0.022     2.699     2.569
    78   1 H        0.926     0.027     2.626     2.534
    79   1 H        0.926     0.042     2.429     2.437
    80   1 H        0.926     0.045     2.388     2.417
    81   1 H        0.926     0.047     2.356     2.400
    82   1 H        0.926     0.048     2.343     2.394
    83   1 H        0.926     0.046     2.374     2.409
    84   1 H        0.926     0.041     2.432     2.439
    85   1 H        0.926     0.023     2.688     2.564
    86   1 H        0.926     0.027     2.626     2.534
    87   1 H        0.926     0.042     2.428     2.437
    88   1 H        0.926     0.045     2.388     2.417
    89   1 H        0.926     0.047     2.355     2.400
    90   1 H        0.926     0.048     2.343     2.394
    91   1 H        0.926     0.046     2.373     2.409
    92   1 H        0.926     0.041     2.432     2.439
    93   1 H        0.926     0.023     2.688     2.564
    94   1 H        0.926     0.032     2.558     2.501
    95   1 H        0.926     0.046     2.365     2.405
    96   1 H        0.926     0.050     2.322     2.383
    97   1 H        0.926     0.051     2.305     2.374
    98   1 H        0.926     0.052     2.297     2.370
    99   1 H        0.926     0.049     2.330     2.387
   100   1 H        0.926     0.043     2.408     2.427
   101   1 H        0.926     0.022     2.699     2.569
   102   1 H        0.926     0.041     2.430     2.438
   103   1 H        0.926     0.041     2.430     2.438
   104   1 H        0.926     0.043     2.409     2.427
   105   1 H        0.926     0.041     2.430     2.438
   106   1 H        0.926     0.041     2.430     2.438

molecular dipole:
                 x           y           z       tot (Debye)
 q only:       -0.103      -5.145      -0.002
   full:       -0.095      -4.757      -0.002      12.092

 projected vibrational frequencies (cm⁻¹)
eigval :       -0.00    -0.00    -0.00     0.00     0.00     0.00
eigval :       14.40    15.70    21.43    22.04    23.59    24.94
eigval :       27.46    36.58    42.74    45.23    53.51    54.04
eigval :       61.13    66.60    75.96    95.23    97.02   105.76
eigval :      111.96   115.05   117.26   117.86   125.67   126.08
eigval :      139.40   141.51   150.83   155.35   162.97   169.25
eigval :      171.43   176.39   182.37   191.87   196.26   218.20
eigval :      241.40   260.49   261.81   261.93   268.59   270.26
eigval :      274.35   278.75   301.51   302.58   321.09   337.63
eigval :      352.07   363.74   374.25   375.49   384.30   390.25
eigval :      397.71   401.39   404.71   407.92   418.23   420.01
eigval :      422.78   423.15   431.56   432.54   434.75   435.17
eigval :      466.59   470.85   490.62   510.36   512.77   513.05
eigval :      514.90   514.92   517.12   533.45   535.46   535.61
eigval :      539.82   541.62   542.27   544.30   549.78   558.49
eigval :      582.58   582.79   584.99   586.43   586.61   593.01
eigval :      595.87   599.65   615.17   632.28   637.43   647.46
eigval :      655.45   655.81   658.54   671.80   673.05   673.24
eigval :      673.29   676.62   688.12   705.83   706.06   706.31
eigval :      707.84   718.60   727.45   751.73   751.87   754.53
eigval :      755.07   756.53   765.54   766.73   768.09   770.02
eigval :      771.75   774.72   775.67   779.66   780.77   782.81
eigval :      851.38   864.97   866.93   867.48   868.25   869.16
eigval :      869.37   871.59   874.68   875.84   876.31   890.74
eigval :      891.29   892.79   892.84   900.13   900.77   901.44
eigval :      901.99   902.82   903.46   904.63   907.79   908.36
eigval :      919.23   919.48   920.26   920.65   921.07   921.24
eigval :      925.14   925.46   926.26   928.03   966.46   996.58
eigval :     1000.31  1009.62  1010.98  1013.53  1015.83  1041.60
eigval :     1064.17  1065.37  1065.52  1066.45  1067.58  1068.04
eigval :     1068.90  1071.51  1072.43  1073.21  1084.42  1117.87
eigval :     1121.45  1126.86  1136.46  1137.49  1141.42  1143.70
eigval :     1144.23  1153.44  1164.14  1173.33  1173.74  1174.50
eigval :     1174.76  1175.40  1177.89  1178.25  1178.73  1178.97
eigval :     1190.05  1198.42  1211.34  1222.73  1223.62  1225.73
eigval :     1226.98  1229.45  1231.07  1240.69  1257.73  1272.68
eigval :     1273.76  1280.72  1281.38  1284.37  1285.58  1286.14
eigval :     1290.29  1293.07  1295.88  1299.23  1314.49  1319.51
eigval :     1329.11  1329.33  1339.30  1341.76  1346.37  1348.49
eigval :     1360.08  1360.13  1361.56  1363.16  1367.70  1395.24
eigval :     1396.97  1406.61  1407.50  1412.20  1412.53  1415.30
eigval :     1419.73  1420.96  1435.63  1437.07  1452.10  1457.43
eigval :     1457.70  1458.90  1462.32  1465.64  1477.92  1478.23
eigval :     1481.17  1481.53  1486.69  1562.08  1562.27  1563.03
eigval :     1564.06  1573.83  1574.45  1577.51  1579.07  1579.51
eigval :     1580.09  1580.27  1580.50  1582.85  1590.20  1595.57
eigval :     1596.86  1598.93  1605.04  1621.57  1659.62  3072.92
eigval :     3073.12  3076.05  3079.81  3081.26  3081.99  3083.39
eigval :     3083.65  3083.75  3083.87  3086.45  3086.55  3086.64
eigval :     3086.74  3089.62  3089.94  3090.65  3091.11  3091.27
eigval :     3092.58  3092.61  3093.80  3094.41  3097.25  3097.76
eigval :     3099.08  3099.38  3100.39  3100.71  3101.08  3101.45
eigval :     3102.05  3102.31  3103.16  3104.57  3104.59  3105.14

   temp. (K)  partition function   enthalpy   heat capacity  entropy
                                   cal/mol     cal/K/mol   cal/K/mol   J/K/mol
 298.15  VIB  0.173E+24            31169.166    199.755    191.540
         ROT  0.618E+08              888.752      2.981     38.632
         INT  0.107E+32            32057.919    202.736    230.173
         TR   0.254E+29             1481.254      4.968     46.193
         TOT                       33539.1727   207.7041   276.3655  1156.3134

       T/K    H(0)-H(T)+PV         H(T)/Eh          T*S/Eh         G(T)/Eh
   ------------------------------------------------------------------------
    298.15    0.534481E-01    0.846113E+00    0.131310E+00    0.714803E+00
   ------------------------------------------------------------------------

         :::::::::::::::::::::::::::::::::::::::::::::::::::::
         ::                  THERMODYNAMIC                  ::
         :::::::::::::::::::::::::::::::::::::::::::::::::::::
         :: total free energy        -173.879789450634 Eh   ::
         ::.................................................::
         :: total energy             -174.594592622935 Eh   ::
         :: zero point energy           0.792665284453 Eh   ::
         :: G(RRHO) w/o ZPVE           -0.077862112152 Eh   ::
         :: G(RRHO) contrib.            0.714803172301 Eh   ::
         :::::::::::::::::::::::::::::::::::::::::::::::::::::

           -------------------------------------------------
          | TOTAL ENERGY             -174.594592622935 Eh   |
          | TOTAL ENTHALPY           -173.748479264733 Eh   |
          | TOTAL FREE ENERGY        -173.879789450634 Eh   |
          | GRADIENT NORM               0.000141173025 Eh/α |
          | HOMO-LUMO GAP               0.880348257327 eV   |
           -------------------------------------------------

 * finished run on 2025/07/20 at 10:06:46.135
