   * xtb version 6.7.1 (edcfbbe) compiled by 'albert@albert-system' on 2024-07-22

   ID    Z sym.   atoms
    1    8 O      1, 62
    2    6 C      2-5, 7-19, 21-33, 35-47, 49-61, 64-69
    3    7 N      6, 20, 34, 48, 63
    4    1 H      70-106

          program call               : xtb data2507/toluene/AI-4Cz/AI-4Cz.xyz --gfn 2 --gbsa toluene --ohess vtight --parallel 40 --molden --ceasefiles --namespace data2507/toluene/AI-4Cz/AI-4Cz_toluene_S0_preOpt
      * Solvation model:               GBSA
        Solvent                        toluene
        Solvent mass                       9.2140E+01 g/mol
          :  Hamiltonian                  GFN2-xTB          :
 * total energy  :  -174.6096736 Eh     change       -0.1978037E-08 Eh
 * total energy  :  -174.6335141 Eh     change       -0.2384049E-01 Eh
 * total energy  :  -174.6408163 Eh     change       -0.7302186E-02 Eh
 * total energy  :  -174.6429938 Eh     change       -0.2177500E-02 Eh
 * total energy  :  -174.6446367 Eh     change       -0.1642947E-02 Eh
 * total energy  :  -174.6455352 Eh     change       -0.8984841E-03 Eh
 * total energy  :  -174.6461727 Eh     change       -0.6375132E-03 Eh
 * total energy  :  -174.6467402 Eh     change       -0.5674800E-03 Eh
 * total energy  :  -174.6473430 Eh     change       -0.6028264E-03 Eh
 * total energy  :  -174.6480270 Eh     change       -0.6839752E-03 Eh
 * total energy  :  -174.6551209 Eh     change       -0.7543871E-06 Eh
 * total energy  :  -174.6551213 Eh     change       -0.4853090E-06 Eh
 * total energy  :  -174.6551217 Eh     change       -0.3208546E-06 Eh
 * total energy  :  -174.6551219 Eh     change       -0.2481993E-06 Eh
 * total energy  :  -174.6551221 Eh     change       -0.1723053E-06 Eh
 * total energy  :  -174.6551222 Eh     change       -0.1507877E-06 Eh
 * total energy  :  -174.6551224 Eh     change       -0.1679065E-06 Eh
 * total energy  :  -174.6551226 Eh     change       -0.1539476E-06 Eh
 * total energy  :  -174.6551226 Eh     change       -0.5949715E-08 Eh
   *** GEOMETRY OPTIMIZATION CONVERGED AFTER 44 ITERATIONS ***

 final structure:
================
106
 xtb: 6.7.1 (edcfbbe)
O            2.23255446538372        3.83225019608455       -0.50474354055338
C            1.14028260696633        3.39872341781007       -0.22440904506797
C            0.69454087472430        1.99808739056438       -0.09292029947240
C           -0.69257176918266        1.99879467885685        0.09194402156998
C           -1.42080466901141        0.81969288458937        0.16332012634775
N           -2.80120867955920        0.82668038634827        0.31034726489614
C           -3.53116613501215        0.13838589097145        1.26758434730854
C           -3.08666169998113       -0.54203805001832        2.38914507387663
C           -4.03640003195015       -1.13128047781368        3.20366821231365
C           -5.39564196114059       -1.02633819937626        2.92392587083407
C           -5.84434564891494       -0.30134029638295        1.83633068872679
C           -4.90814082614450        0.29606090308139        1.00374176194502
C           -5.01107335387843        1.13294263949003       -0.16190858812553
C           -6.08500191924478        1.61433661292846       -0.89792660862708
C           -5.82979733119778        2.39542132964895       -2.00848253495685
C           -4.52450812769589        2.68271482279787       -2.39734420726253
C           -3.44009681097955        2.20961301678393       -1.68127707842730
C           -3.69275977145516        1.45061610616154       -0.55039729112425
C           -0.69913264125096       -0.39925816679024        0.07406360941738
N           -1.39031200069327       -1.60795652527190        0.14699584389801
C           -1.16932617481044       -2.62564576203170        1.06376235691933
C           -0.27762598711522       -2.67978457832365        2.12262306919965
C           -0.27957886238936       -3.81484719765223        2.91245965890984
C           -1.16360269022255       -4.86235332891914        2.67219646965932
C           -2.08692039417914       -4.79120126814307        1.64674793479995
C           -2.09743212874135       -3.66360041209649        0.83768745792395
C           -2.91885766753847       -3.25028582549461       -0.26768247413180
C           -3.97314320306174       -3.84472426695012       -0.94687341659754
C           -4.53518267318086       -3.17310968095840       -2.01550104677811
C           -4.03856302221048       -1.93999767258899       -2.42710229331231
C           -2.98568266212909       -1.33267743543796       -1.76801992586144
C           -2.45316657785051       -1.97961262274249       -0.66427939120199
C            0.69875800964546       -0.39997139131052       -0.07404270552697
N            1.38876526988083       -1.60937469574227       -0.14639537247272
C            1.16682414411166       -2.62732068649022       -1.06265000097729
C            0.27505830647448       -2.68118572371379       -2.12146879600706
C            0.27596515187473       -3.81664660478663       -2.91073656988337
C            1.15904580524043       -4.86483212823748       -2.66997203784419
C            2.08242491062945       -4.79401653144234       -1.64455669908846
C            2.09396171783763       -3.66602822837760       -0.83605133209496
C            2.91575763889416       -3.25293885293845        0.26912547683305
C            3.96947617878471       -3.84802645365656        0.94862825958666
C            4.53212693131239       -3.17640568773496        2.01693022358628
C            4.03664200689916       -1.94263565033625        2.42792615747280
C            2.98433290952434       -1.33466609452540        1.76853110144983
C            2.45125020366855       -1.98163663331306        0.66508631813768
C            1.42161975796814        0.81824272266972       -0.16383075460217
N            2.80202893516230        0.82380795109799       -0.31089290738835
C            3.53124825098515        0.13437314023036       -1.26787374964801
C            3.08599797286108       -0.54607869175824       -2.38912189914283
C            4.03509838603005       -1.13664339113951       -3.20343129251090
C            5.39445688352383       -1.03298001167131       -2.92378322170344
C            5.84395003925455       -0.30796605224140       -1.83652542452256
C            4.90839373921926        0.29076611401671       -1.00416443359774
C            5.01222737605083        1.12803733773032        0.16112527141139
C            6.08668483776517        1.60866873845883        0.89687053597655
C            5.83233435502480        2.39047610695550        2.00711358900935
C            4.52735675084372        2.67922864603186        2.39593973032095
C            3.44242741408274        2.20692117407216        1.68013110123573
C            3.69425387905073        1.44720094627411        0.54955006863229
C           -1.13695916357313        3.39990019397058        0.22294789485727
O           -2.22881534425063        3.83457952311808        0.50310819533803
N            0.00203302679543        4.17483772612176       -0.00088510332203
C            0.00268849317715        5.59406056188908       -0.00104103206033
C           -1.02482060330270        6.28479430979051       -0.63104214881004
C           -1.02204728760078        7.66823690394213       -0.62174383268410
C            0.00382519272571        8.36128274325272       -0.00108064381004
C            1.02914260713742        7.66741625321738        0.61958044798359
C            1.03077611713837        6.28397343109891        0.62891455279367
H           -2.03739648482205       -0.60423272565930        2.63365573526881
H           -3.71233617742008       -1.67884040755813        4.07595749483158
H           -6.10747370110023       -1.50348315726523        3.58044272137398
H           -6.89956593773293       -0.19143934546428        1.63936635956805
H           -7.09663617807432        1.37713205297662       -0.60692052196429
H           -6.65063540946311        2.78502130340195       -2.59160269553820
H           -4.35250914899878        3.28428159276247       -3.27783666563411
H           -2.43016080502287        2.42693609540466       -2.00136405187909
H            0.39254478155990       -1.86332800096996        2.34307925280320
H            0.41760925092272       -3.88180237484478        3.73424588804605
H           -1.13461118633729       -5.73386451371477        3.30871868766425
H           -2.79253599069734       -5.59002413481250        1.47885041134759
H           -4.33885356084564       -4.81430516337377       -0.64632001853781
H           -5.36058965298600       -3.61489202871311       -2.55296197371193
H           -4.47795960354481       -1.44515880892196       -3.28027398527636
H           -2.59416011766096       -0.38854389218002       -2.11683152895241
H           -0.39438402387211       -1.86424100711693       -2.34232160529161
H           -0.42129858138534       -3.88338297531419       -3.73247626888328
H            1.12926493044974       -5.73662528413968       -3.30607124429687
H            2.78732147028877       -5.59339135903100       -1.47626705324822
H            4.33428274666065       -4.81810042412274        0.64856713703189
H            5.35711901846930       -3.61868726434487        2.55461834191289
H            4.47648284245345       -1.44779099536748        3.28086526600488
H            2.59365236319742       -0.39001557752710        2.11688538999843
H            2.03665686531951       -0.60730138844835       -2.63355454070073
H            3.71043982764754       -1.68424031740593       -4.07547576070291
H            6.10576933036806       -1.51115065518501       -3.58011607820492
H            6.89928923597959       -0.19908510900194       -1.63963677090575
H            7.09806250141571        1.37034440373077        0.60588580982651
H            6.65359588477385        2.77951680037833        2.59001002804672
H            4.35601549285106        3.28133621052501        3.27619103734985
H            2.43273160414785        2.42539697139179        2.00019020918479
H           -1.82284216010820        5.74206880621674       -1.11342977036787
H           -1.82379844236202        8.20323294078393       -1.10766552986416
H            0.00425532621414        9.44057111506898       -0.00109245926508
H            1.83134479455176        8.20176920185640        1.10546723120558
H            1.82834356797398        5.74060089231487        1.11132552778082

          :  Hamiltonian                  GFN2-xTB          :
         :: gradient norm              0.000036332281 Eh/a0 ::
         :: HOMO-LUMO gap              1.297821673263 eV    ::
         :: SCC energy              -177.810774676877 Eh    ::
         :: -> dispersion             -0.194562947991 Eh    ::
         :: -> Gsolv                  -0.065228444794 Eh    ::
         :: repulsion energy           3.155652113829 Eh    ::

    * Orbital Energies and Occupations

         #    Occupation            Energy/Eh            Energy/eV
      -------------------------------------------------------------
         1        2.0000           -0.7446191             -20.2621
       ...           ...                  ...                  ...
       149        2.0000           -0.4162977             -11.3280
       150        2.0000           -0.4148783             -11.2894
       151        2.0000           -0.4141529             -11.2697
       152        2.0000           -0.4139257             -11.2635
       153        2.0000           -0.4093880             -11.1400
       154        2.0000           -0.3921316             -10.6704
       155        2.0000           -0.3907161             -10.6319
       156        2.0000           -0.3882769             -10.5656
       157        2.0000           -0.3873041             -10.5391
       158        2.0000           -0.3826370             -10.4121
       159        2.0000           -0.3817283             -10.3874
       160        2.0000           -0.3785321             -10.3004
       161        2.0000           -0.3762924             -10.2394 (HOMO)
       162                         -0.3285983              -8.9416 (LUMO)
       163                         -0.2895362              -7.8787
       164                         -0.2583282              -7.0295
       165                         -0.2557506              -6.9593
       166                         -0.2549941              -6.9387
       167                         -0.2542975              -6.9198
       168                         -0.2421805              -6.5901
       169                         -0.2418239              -6.5804
       170                         -0.2379382              -6.4746
       171                         -0.2372839              -6.4568
       172                         -0.2344298              -6.3792
       ...                                ...                  ...
       313                          0.7375254              20.0691
      -------------------------------------------------------------
                  HL-Gap            0.0476940 Eh            1.2978 eV

     #   Z          covCN         q      C6AA      α(0)
     1   8 O        0.857    -0.399    21.652     6.239
     2   6 C        2.833     0.285    22.186     7.719
     3   6 C        3.040    -0.052    29.241     8.869
     4   6 C        3.040    -0.052    29.241     8.869
     5   6 C        2.905     0.065    26.535     8.446
     6   7 N        2.801    -0.042    22.056     6.975
     7   6 C        3.069     0.050    26.805     8.489
     8   6 C        2.910    -0.050    29.239     8.867
     9   6 C        2.925    -0.032    28.806     8.802
    10   6 C        2.920    -0.038    28.948     8.823
    11   6 C        2.913    -0.032    28.800     8.800
    12   6 C        3.066    -0.014    28.291     8.722
    13   6 C        3.067    -0.012    28.255     8.716
    14   6 C        2.913    -0.031    28.784     8.798
    15   6 C        2.920    -0.038    28.946     8.823
    16   6 C        2.924    -0.032    28.802     8.801
    17   6 C        2.910    -0.043    29.061     8.840
    18   6 C        3.069     0.057    26.644     8.464
    19   6 C        2.912     0.047    26.935     8.510
    20   7 N        2.801    -0.044    22.092     6.981
    21   6 C        3.068     0.049    26.831     8.494
    22   6 C        2.911    -0.049    29.224     8.864
    23   6 C        2.924    -0.032    28.795     8.800
    24   6 C        2.920    -0.037    28.932     8.821
    25   6 C        2.913    -0.031    28.782     8.797
    26   6 C        3.067    -0.014    28.290     8.722
    27   6 C        3.066    -0.014    28.297     8.723
    28   6 C        2.913    -0.031    28.782     8.797
    29   6 C        2.920    -0.037    28.932     8.821
    30   6 C        2.924    -0.032    28.797     8.800
    31   6 C        2.910    -0.049    29.208     8.862
    32   6 C        3.069     0.049    26.826     8.493
    33   6 C        2.912     0.047    26.935     8.510
    34   7 N        2.801    -0.044    22.092     6.981
    35   6 C        3.068     0.049    26.831     8.494
    36   6 C        2.911    -0.049    29.224     8.864
    37   6 C        2.924    -0.032    28.795     8.800
    38   6 C        2.920    -0.037    28.932     8.821
    39   6 C        2.913    -0.031    28.782     8.797
    40   6 C        3.067    -0.014    28.290     8.722
    41   6 C        3.066    -0.014    28.297     8.723
    42   6 C        2.913    -0.031    28.782     8.797
    43   6 C        2.920    -0.037    28.932     8.821
    44   6 C        2.924    -0.032    28.797     8.800
    45   6 C        2.910    -0.049    29.208     8.862
    46   6 C        3.069     0.049    26.826     8.493
    47   6 C        2.905     0.065    26.535     8.446
    48   7 N        2.801    -0.042    22.056     6.975
    49   6 C        3.069     0.050    26.805     8.489
    50   6 C        2.910    -0.050    29.239     8.867
    51   6 C        2.925    -0.032    28.806     8.802
    52   6 C        2.920    -0.038    28.948     8.823
    53   6 C        2.913    -0.032    28.800     8.800
    54   6 C        3.066    -0.014    28.291     8.722
    55   6 C        3.067    -0.012    28.255     8.716
    56   6 C        2.913    -0.031    28.784     8.798
    57   6 C        2.920    -0.038    28.946     8.823
    58   6 C        2.924    -0.032    28.802     8.801
    59   6 C        2.910    -0.043    29.061     8.840
    60   6 C        3.069     0.057    26.644     8.464
    61   6 C        2.833     0.285    22.186     7.719
    62   8 O        0.857    -0.399    21.652     6.239
    63   7 N        2.795    -0.125    23.715     7.233
    64   6 C        2.915     0.074    26.341     8.416
    65   6 C        2.921    -0.036    28.890     8.814
    66   6 C        2.921    -0.026    28.649     8.777
    67   6 C        2.919    -0.029    28.713     8.787
    68   6 C        2.921    -0.026    28.649     8.777
    69   6 C        2.921    -0.036    28.890     8.814
    70   1 H        0.926     0.022     2.708     2.573
    71   1 H        0.926     0.039     2.466     2.456
    72   1 H        0.926     0.041     2.430     2.438
    73   1 H        0.926     0.044     2.399     2.422
    74   1 H        0.926     0.045     2.390     2.417
    75   1 H        0.926     0.041     2.429     2.437
    76   1 H        0.926     0.037     2.488     2.467
    77   1 H        0.925     0.008     2.915     2.670
    78   1 H        0.926     0.021     2.721     2.579
    79   1 H        0.926     0.038     2.473     2.459
    80   1 H        0.926     0.041     2.434     2.440
    81   1 H        0.926     0.044     2.399     2.422
    82   1 H        0.926     0.044     2.395     2.420
    83   1 H        0.926     0.041     2.431     2.438
    84   1 H        0.926     0.038     2.481     2.463
    85   1 H        0.926     0.017     2.779     2.607
    86   1 H        0.926     0.021     2.721     2.579
    87   1 H        0.926     0.038     2.473     2.459
    88   1 H        0.926     0.041     2.434     2.440
    89   1 H        0.926     0.044     2.399     2.422
    90   1 H        0.926     0.044     2.395     2.420
    91   1 H        0.926     0.041     2.431     2.438
    92   1 H        0.926     0.038     2.481     2.463
    93   1 H        0.926     0.017     2.779     2.607
    94   1 H        0.926     0.022     2.708     2.573
    95   1 H        0.926     0.039     2.466     2.456
    96   1 H        0.926     0.041     2.430     2.438
    97   1 H        0.926     0.044     2.399     2.422
    98   1 H        0.926     0.045     2.390     2.417
    99   1 H        0.926     0.041     2.429     2.437
   100   1 H        0.926     0.037     2.488     2.467
   101   1 H        0.925     0.008     2.915     2.670
   102   1 H        0.926     0.045     2.378     2.412
   103   1 H        0.926     0.052     2.294     2.368
   104   1 H        0.926     0.053     2.279     2.361
   105   1 H        0.926     0.052     2.294     2.368
   106   1 H        0.926     0.045     2.378     2.412

molecular dipole:
                 x           y           z       tot (Debye)
 q only:       -0.001      -1.830       0.000
   full:       -0.001      -1.564       0.000       3.974

 projected vibrational frequencies (cm⁻¹)
eigval :       -0.00    -0.00    -0.00     0.00     0.00     0.00
eigval :       15.52    15.66    24.23    26.14    28.70    28.87
eigval :       31.79    36.67    45.23    45.62    52.84    56.13
eigval :       63.59    67.67    74.33    95.48    99.58   109.06
eigval :      117.01   117.52   120.14   121.46   127.39   130.34
eigval :      138.09   143.82   152.54   158.28   160.31   165.56
eigval :      171.37   178.46   187.50   189.90   202.99   217.41
eigval :      242.41   256.87   262.38   263.18   275.10   275.27
eigval :      277.46   279.99   301.94   302.49   326.14   339.56
eigval :      352.76   364.67   370.96   375.21   393.47   399.09
eigval :      403.17   406.35   407.51   409.89   421.87   422.29
eigval :      423.15   425.09   436.96   437.77   439.98   444.07
eigval :      476.48   488.82   498.29   514.03   514.86   516.94
eigval :      518.20   518.73   523.68   531.12   539.15   541.56
eigval :      542.93   543.23   544.15   544.84   552.96   559.86
eigval :      583.88   585.22   587.17   588.83   590.21   593.97
eigval :      597.53   603.01   620.94   639.38   655.39   655.98
eigval :      657.72   671.74   672.77   673.97   674.00   690.63
eigval :      692.19   703.05   706.10   706.35   708.04   708.46
eigval :      719.67   724.80   729.44   752.41   753.82   755.76
eigval :      756.40   758.11   770.30   771.08   772.89   774.53
eigval :      775.58   782.66   782.73   785.02   785.58   786.62
eigval :      851.23   863.75   871.55   873.53   873.84   875.94
eigval :      876.06   876.72   877.43   879.55   880.41   891.94
eigval :      893.64   894.53   899.28   902.27   902.42   903.18
eigval :      904.87   904.92   906.22   906.84   908.59   909.34
eigval :      923.96   924.04   924.19   924.21   925.99   926.19
eigval :      926.32   927.37   927.57   931.01   964.79   992.71
eigval :      997.65  1012.45  1013.08  1015.38  1015.98  1061.82
eigval :     1069.09  1070.35  1070.74  1071.72  1072.24  1073.66
eigval :     1075.41  1075.69  1076.60  1083.14  1110.48  1120.04
eigval :     1121.97  1133.11  1145.34  1150.61  1150.65  1151.90
eigval :     1152.15  1154.71  1164.53  1175.45  1178.04  1178.20
eigval :     1178.36  1179.55  1179.85  1180.44  1181.07  1182.89
eigval :     1192.11  1197.78  1208.23  1226.72  1230.16  1232.36
eigval :     1233.14  1234.05  1234.76  1245.44  1252.89  1282.32
eigval :     1284.09  1287.52  1292.65  1293.69  1293.75  1295.03
eigval :     1296.99  1297.24  1310.84  1314.07  1318.65  1318.81
eigval :     1332.67  1356.87  1357.20  1357.53  1358.84  1359.05
eigval :     1359.12  1359.89  1361.07  1368.66  1386.16  1409.39
eigval :     1411.07  1418.68  1422.44  1425.09  1426.75  1426.86
eigval :     1427.25  1428.69  1435.62  1462.00  1469.90  1470.70
eigval :     1471.38  1471.40  1472.13  1484.50  1484.54  1484.94
eigval :     1485.22  1521.62  1558.25  1577.31  1577.41  1577.81
eigval :     1578.21  1588.01  1591.65  1591.84  1591.90  1592.15
eigval :     1592.88  1598.91  1599.12  1599.39  1599.47  1611.18
eigval :     1611.58  1612.01  1613.60  1719.13  1733.93  3057.38
eigval :     3057.51  3077.20  3077.23  3079.85  3079.90  3081.01
eigval :     3081.04  3081.56  3081.60  3083.78  3083.87  3085.58
eigval :     3086.27  3086.37  3086.96  3087.11  3087.88  3087.91
eigval :     3089.52  3091.38  3091.70  3093.16  3093.21  3094.58
eigval :     3094.89  3097.77  3098.13  3098.14  3099.30  3099.66
eigval :     3101.21  3101.22  3101.80  3101.99  3104.99  3107.70

   temp. (K)  partition function   enthalpy   heat capacity  entropy
                                   cal/mol     cal/K/mol   cal/K/mol   J/K/mol
 298.15  VIB  0.471E+23            30892.128    198.624    189.440
         ROT  0.618E+08              888.752      2.981     38.632
         INT  0.291E+31            31780.880    201.605    228.072
         TR   0.254E+29             1481.254      4.968     46.193
         TOT                       33262.1340   206.5733   274.2649  1147.5245

       T/K    H(0)-H(T)+PV         H(T)/Eh          T*S/Eh         G(T)/Eh
   ------------------------------------------------------------------------
    298.15    0.530066E-01    0.849558E+00    0.130312E+00    0.719245E+00
   ------------------------------------------------------------------------

         :::::::::::::::::::::::::::::::::::::::::::::::::::::
         ::                  THERMODYNAMIC                  ::
         :::::::::::::::::::::::::::::::::::::::::::::::::::::
         :: total free energy        -173.935877146088 Eh   ::
         ::.................................................::
         :: total energy             -174.655122564460 Eh   ::
         :: zero point energy           0.796550955856 Eh   ::
         :: G(RRHO) w/o ZPVE           -0.077305537484 Eh   ::
         :: G(RRHO) contrib.            0.719245418372 Eh   ::
         :::::::::::::::::::::::::::::::::::::::::::::::::::::

           -------------------------------------------------
          | TOTAL ENERGY             -174.655122564460 Eh   |
          | TOTAL ENTHALPY           -173.805565023995 Eh   |
          | TOTAL FREE ENERGY        -173.935877146088 Eh   |
          | GRADIENT NORM               0.000036362527 Eh/α |
          | HOMO-LUMO GAP               1.297820842468 eV   |
           -------------------------------------------------

 * finished run on 2025/07/20 at 09:49:10.465
