   * xtb version 6.7.1 (edcfbbe) compiled by 'albert@albert-system' on 2024-07-22

   ID    Z sym.   atoms
    1    6 C      1-20, 22-41, 43-69
    2    7 N      21, 42
    3    1 H      70-137

          program call               : xtb data2507/gas/F-2CzB/F-2CzB_gas_S0_finalOpt.xtbopt.xyz --gfn 2 --spinpol --tblite --uhf 2 --ohess vtight --parallel 40 --molden --ceasefiles --namespace data2507/gas/F-2CzB/F-2CzB_gas_T1_preOpt
 * total energy  :  -184.0822151 Eh     change        0.2005232E-06 Eh
 * total energy  :  -184.0885075 Eh     change       -0.6292351E-02 Eh
 * total energy  :  -184.0909965 Eh     change       -0.2489044E-02 Eh
 * total energy  :  -184.0913260 Eh     change       -0.3294757E-03 Eh
 * total energy  :  -184.0918721 Eh     change       -0.5461195E-03 Eh
 * total energy  :  -184.0921613 Eh     change       -0.2892220E-03 Eh
 * total energy  :  -184.0923520 Eh     change       -0.1906990E-03 Eh
 * total energy  :  -184.0924393 Eh     change       -0.8731660E-04 Eh
 * total energy  :  -184.0925078 Eh     change       -0.6850448E-04 Eh
 * total energy  :  -184.0925605 Eh     change       -0.5264067E-04 Eh
 * total energy  :  -184.0935304 Eh     change       -0.4526594E-06 Eh
 * total energy  :  -184.0935307 Eh     change       -0.3282532E-06 Eh
 * total energy  :  -184.0935312 Eh     change       -0.4711154E-06 Eh
 * total energy  :  -184.0935318 Eh     change       -0.6681470E-06 Eh
 * total energy  :  -184.0935323 Eh     change       -0.4978748E-06 Eh
 * total energy  :  -184.0935327 Eh     change       -0.3758681E-06 Eh
 * total energy  :  -184.0935334 Eh     change       -0.6951811E-06 Eh
 * total energy  :  -184.0935335 Eh     change       -0.1019232E-06 Eh
 * total energy  :  -184.0935335 Eh     change       -0.3002634E-07 Eh
   *** GEOMETRY OPTIMIZATION CONVERGED AFTER 69 ITERATIONS ***

 final structure:
================
137
 xtb: 6.7.1 (edcfbbe)
C           12.60619260656633       -4.90923614335702        1.84592551984019
C           12.97558079187266       -4.03143078661532        0.64162587222644
C           14.36060322296425       -3.43113194883413        0.89848691324878
C           13.05954759252336       -4.89483851678219       -0.62518115582577
C           11.90359064359874       -2.96883608036805        0.45078374991516
C           10.58597594127872       -3.37505217901609        0.19906995318277
C            9.55002095783771       -2.48439707104479        0.00577339663617
C            9.83853210401821       -1.12857406866967        0.05507654312727
C           11.15121154569217       -0.69337280470315        0.33780392214593
C           12.17407389240068       -1.61133403210909        0.52875268056937
C           11.10269523280457        0.74298246480158        0.37981340671910
C           12.06905488952301        1.71608490014856        0.59052633154624
C           11.71757953310393        3.05634407020735        0.54318266900767
C           12.72170800517070        4.17620613398745        0.77190914289852
C           12.80250677715599        5.04635921908906       -0.49046641728351
C           14.12757589265701        3.65271429553542        1.07876325861912
C           12.26173670841461        5.02884249762905        1.96303275110689
C           10.38575302025002        3.38908175270256        0.26033940640098
C            9.40485320972913        2.44245075239647        0.04658730971722
C            9.76177112643794        1.10450822819573        0.12701092948535
N            9.00528038547364       -0.03409258388547       -0.06941690421211
C            7.63856748194391       -0.07413287034611       -0.34586675025584
C            6.73478159558828        0.68230559465611        0.40825008029997
C            5.39017614891140        0.62906070911106        0.14343355601594
C            4.86833232964140       -0.16672070222009       -0.90036288415982
C            3.46127553097304       -0.21953273434074       -1.17580311626672
C            2.97492806194448       -0.57206673041365       -2.46663664054485
C            1.64531993510735       -0.62807303541049       -2.75742766966522
C            0.69988231302880       -0.34753248703512       -1.74342555426526
C            1.17368684599864        0.00495119141125       -0.43807005955246
C            2.50057407342243        0.07727296996226       -0.16635354548473
C            0.00077124256429        0.24536348350795        0.48856073452485
C            0.00160454914576        1.68199869478894        1.02090560258203
C            0.00074565203819       -0.75421434664944        1.64998558258228
C           -1.17294359842023        0.00603916534941       -0.43736798785999
C           -2.49939867841778        0.07890495607563       -0.16459450848376
C           -3.46172424896800       -0.21582306626617       -1.17373367772577
C           -4.86796657895738       -0.16313901322689       -0.89727263764471
C           -5.38866088065234        0.62248102785413        0.15536047178617
C           -6.73277954332912        0.67470043621269        0.42174736781253
C           -7.63864901003563       -0.07193079035693       -0.33993451587080
N           -9.00487420578461       -0.03292393258099       -0.06208433448045
C           -9.84064594986124       -1.12727979288192        0.04628722722289
C           -9.55549545772154       -2.48292617983927       -0.02368507300959
C          -10.59360873289523       -3.37393899781346        0.15586801773147
C          -11.91021587284640       -2.96848167517977        0.41394805839046
C          -12.98484853924990       -4.03131427820072        0.58773702449459
C          -13.07087411421070       -4.87399069679941       -0.69283347400265
C          -12.61770111542596       -4.92933956583847        1.77772193223587
C          -14.36838150787730       -3.43178406250665        0.85420470577750
C          -12.17722697317679       -1.61168326639005        0.51348133571998
C          -11.15214418769289       -0.69340341509217        0.33654647018122
C          -11.10016037718840        0.74200830861155        0.40099055748617
C          -12.06401680069120        1.71387223000022        0.62816550125005
C          -11.70950844635298        3.05392358512222        0.60152954538049
C          -12.71053386452480        4.17237316285793        0.84983845559038
C          -14.11717423058851        3.64741553071283        1.15056056984064
C          -12.79123080743410        5.06299013488990       -0.39818294033492
C          -12.24648818974464        5.00455043548547        2.05379723109705
C          -10.37738250812789        3.38798632653737        0.32171291416849
C           -9.39896954568690        2.44256957499142        0.09181733918677
C           -9.75862687689304        1.10429521635962        0.15242007784613
C           -7.14637460789740       -0.86126284601885       -1.38548162873922
C           -5.80349354012221       -0.89774419328622       -1.65980875049037
C           -2.97575668554502       -0.56655284277755       -2.46573980733174
C           -1.64655013580182       -0.62427113813227       -2.75705179269970
C           -0.70003196848176       -0.34638621715933       -1.74318768951616
C            5.80140416035519       -0.91103081878427       -1.65563466699241
C            7.14469040582329       -0.87417821758550       -1.38224214234611
H           13.37383677635814       -5.66271386548937        2.00998351825337
H           11.65867357470981       -5.41767004565023        1.69139425452036
H           12.52293598849603       -4.29955362771834        2.74331809235721
H           14.67881915427814       -2.81053254585165        0.06395091511092
H           15.08670648187797       -4.23307428267515        1.01659628692033
H           14.36707901014631       -2.83682795627319        1.80927193840582
H           13.30395239375297       -4.27560608641279       -1.48587412939938
H           13.83378899814341       -5.65102371473970       -0.51271374549217
H           12.11870157195578       -5.39963692917207       -0.82546910086155
H           10.35637752970220       -4.42880995979625        0.15706767022720
H            8.54496118475631       -2.83968960339515       -0.16375797623490
H           13.16411855084039       -1.24391090551688        0.74134434394920
H           13.08212420455803        1.40413755572440        0.78220244965883
H           13.10354776901135        4.44241216218536       -1.34402595596126
H           13.53465122048802        5.83940451125635       -0.35278185169418
H           11.84442460008301        5.50451800461393       -0.71930973830320
H           14.79919969176753        4.49309406489978        1.24304292665454
H           14.12949847421219        3.04086609248982        1.97792752687554
H           14.51821347461127        3.06943190290344        0.24813990044764
H           11.29355145062690        5.48446857056433        1.77550094344912
H           12.97989391172756        5.82344753183735        2.15474874128064
H           12.18125415367314        4.41303071403616        2.85650995891725
H           10.10212986441988        4.42864004053751        0.19888210806742
H            8.39516711177122        2.74178309819952       -0.19021828877223
H            7.10494596584092        1.29112817235371        1.22019645106618
H            4.72174463097674        1.23598880973976        0.73432334971362
H            3.68929978055170       -0.75759750521972       -3.25473274328594
H            1.30686394212710       -0.87592457162173       -3.75278356526164
H            2.83800276844712        0.31397568213665        0.83154758231571
H            0.88534691680151        1.85974279121414        1.62956636644292
H            0.00178669278419        2.38858724772278        0.19345364760995
H           -0.88169704091539        1.86064537342318        1.62993134288972
H            0.00021847908329       -1.77287863566105        1.26776933891019
H           -0.88289434435737       -0.61567065391884        2.26891424914958
H            0.88487403358948       -0.61636609852308        2.26837060107184
H           -2.83536012003845        0.31486666032311        0.83388970148367
H           -4.71940643052124        1.22211003202942        0.75261780378127
H           -7.10113901939653        1.27470356706064        1.24103275962866
H           -8.55135026803123       -2.83822620223304       -0.19844364811582
H          -10.36656592206357       -4.42746412261739        0.09747262628483
H          -12.13132695149518       -5.37797933727178       -0.90110788509106
H          -13.84711833359955       -5.62984589228194       -0.59264205143880
H          -13.31351565533665       -4.24035428885701       -1.54348408187406
H          -12.53315409701613       -4.33445620100131        2.68487290583225
H          -13.38713022417793       -5.68357323097026        1.92946888943502
H          -11.67135930912362       -5.43743331387514        1.61509709618520
H          -14.68502694306157       -2.79709531551716        0.02973331700524
H          -15.09647316211329       -4.23371869415312        0.95943549558577
H          -14.37341972677411       -2.85216007104222        1.77441062870100
H          -13.16628309365773       -1.24519750302912        0.73221577909093
H          -13.07756576976741        1.40128373332588        0.81623512366488
H          -14.78649995002731        4.48666927062857        1.32934474194112
H          -14.51054086666651        3.07843286794119        0.31135188120587
H          -14.11914901559491        3.02128123780051        2.03983110875702
H          -11.83241255881192        5.52249111238198       -0.62116309654578
H          -13.52121317527352        5.85547001918431       -0.24649158769374
H          -13.09511087105718        4.47364903088600       -1.26089566833163
H          -12.96247187078763        5.79757472181687        2.25965314659429
H          -11.27758735306880        5.46095151010482        1.87191665067391
H          -12.16584135817349        4.37417241123007        2.93704434008098
H          -10.09147571055050        4.42771974926415        0.27587541075601
H           -8.38912096680603        2.74346970967045       -0.14223161047044
H           -7.83987873639801       -1.42510547952019       -1.99208589164395
H           -5.45666697261125       -1.52932877556890       -2.46284390749936
H           -3.69028681430462       -0.74967674520862       -3.25414611191886
H           -1.30893505615965       -0.87124617172007       -3.75290799713564
H            5.45243227031169       -1.55052077682200       -2.45154098054485
H            7.83698325472367       -1.44635539345367       -1.98241264168339

 projected vibrational frequencies (cm⁻¹)
eigval :       -0.00    -0.00    -0.00     0.00     0.00     0.00
eigval :        4.02     4.95     9.26    11.56    18.57    20.63
eigval :       27.36    30.70    30.84    33.43    33.54    36.99
eigval :       50.39    54.47    55.06    57.50    62.01    72.68
eigval :       80.02    87.26    95.15    95.43    98.02   104.36
eigval :      115.61   119.68   120.90   127.43   137.36   157.78
eigval :      159.73   160.38   160.88   174.82   176.43   181.49
eigval :      184.39   190.12   202.30   202.33   204.46   208.86
eigval :      216.49   217.92   218.58   223.07   224.79   228.46
eigval :      229.30   234.05   249.49   256.35   258.44   258.48
eigval :      267.93   273.70   275.88   297.03   302.83   306.69
eigval :      307.91   317.68   317.72   320.43   322.06   322.22
eigval :      322.37   332.59   338.13   339.65   343.28   359.42
eigval :      359.44   360.32   368.19   368.24   372.97   376.52
eigval :      380.84   387.78   394.31   396.22   404.80   409.60
eigval :      409.90   411.65   423.68   434.13   436.77   442.11
eigval :      442.21   442.38   442.47   461.24   465.98   466.12
eigval :      466.57   469.94   474.77   489.25   492.58   518.84
eigval :      519.26   530.03   540.73   562.24   564.21   568.16
eigval :      570.96   575.95   580.47   584.13   585.79   592.35
eigval :      594.95   605.15   606.05   615.46   629.45   629.51
eigval :      640.22   640.23   669.69   671.78   672.33   678.25
eigval :      689.02   689.04   691.82   700.00   707.48   707.66
eigval :      719.24   719.42   723.79   731.89   735.64   792.67
eigval :      797.93   809.09   810.71   821.82   823.07   823.65
eigval :      824.16   824.86   831.40   833.38   845.29   846.18
eigval :      856.45   857.67   860.51   870.71   870.73   871.93
eigval :      871.95   873.49   873.49   899.24   902.29   908.00
eigval :      908.15   910.58   911.39   913.43   919.57   921.48
eigval :      921.56   926.36   926.39   928.24   929.03   936.88
eigval :      939.35   949.06   953.65   960.23   960.23   960.30
eigval :      960.30   962.83   962.83   963.03   963.04   963.07
eigval :      963.08   963.24   963.25   963.98  1000.55  1001.66
eigval :     1010.81  1030.82  1030.82  1034.16  1035.42  1035.43
eigval :     1035.51  1035.51  1035.69  1035.89  1037.36  1041.32
eigval :     1041.33  1059.58  1087.70  1108.49  1114.91  1129.68
eigval :     1129.76  1136.90  1137.32  1142.52  1142.97  1157.25
eigval :     1161.81  1168.92  1173.12  1173.34  1173.38  1193.20
eigval :     1207.71  1213.02  1216.77  1227.52  1227.53  1227.62
eigval :     1227.63  1230.02  1231.07  1231.40  1231.75  1231.96
eigval :     1236.03  1236.11  1240.57  1243.92  1244.90  1246.20
eigval :     1259.07  1259.91  1261.07  1271.08  1275.00  1284.03
eigval :     1284.39  1290.15  1301.74  1301.82  1302.53  1302.73
eigval :     1312.48  1320.68  1333.00  1333.70  1348.76  1349.52
eigval :     1352.51  1352.61  1359.98  1367.34  1370.64  1377.22
eigval :     1394.76  1401.70  1402.20  1402.21  1404.59  1404.68
eigval :     1405.75  1405.79  1405.83  1405.85  1411.19  1411.64
eigval :     1411.82  1419.49  1426.36  1428.73  1428.74  1428.82
eigval :     1428.86  1430.09  1435.21  1441.62  1462.48  1473.62
eigval :     1473.80  1479.88  1483.31  1483.43  1484.60  1485.94
eigval :     1487.72  1490.12  1491.31  1492.01  1492.01  1492.07
eigval :     1492.08  1494.63  1494.64  1494.68  1494.69  1497.20
eigval :     1497.55  1501.16  1501.18  1501.22  1501.23  1504.16
eigval :     1505.38  1505.39  1505.39  1505.40  1513.10  1514.66
eigval :     1514.68  1515.04  1515.05  1520.03  1520.04  1520.84
eigval :     1520.88  1538.28  1565.51  1565.59  1576.55  1577.53
eigval :     1581.76  1593.03  1593.18  1598.95  1603.98  1607.21
eigval :     1614.32  3021.19  3021.20  3021.33  3021.34  3022.70
eigval :     3022.73  3022.76  3022.79  3025.95  3026.20  3026.90
eigval :     3026.92  3026.92  3026.94  3028.73  3029.47  3029.50
eigval :     3029.64  3029.90  3030.89  3030.90  3030.94  3030.97
eigval :     3031.99  3035.41  3035.43  3035.65  3035.67  3036.36
eigval :     3036.79  3037.95  3037.97  3038.13  3038.26  3047.46
eigval :     3047.47  3047.59  3047.60  3050.76  3050.77  3050.92
eigval :     3050.94  3071.53  3074.63  3078.03  3078.46  3080.31
eigval :     3080.59  3081.82  3082.26  3083.62  3083.79  3083.90
eigval :     3084.06  3087.46  3088.64  3094.87  3095.00  3095.29
eigval :     3095.49  3097.12  3097.79  3098.46  3099.36  3115.25
eigval :     3115.26  3118.74  3118.86

   temp. (K)  partition function   enthalpy   heat capacity  entropy
                                   cal/mol     cal/K/mol   cal/K/mol   J/K/mol
 298.15  VIB  0.190E+32            39535.096    243.433    246.783
         ROT  0.580E+09              888.752      2.981     43.081
         INT  0.110E+41            40423.848    246.413    289.865
         TR   0.262E+29             1481.254      4.968     46.251
         TOT                       41905.1024   251.3815   336.1153  1406.3066

       T/K    H(0)-H(T)+PV         H(T)/Eh          T*S/Eh         G(T)/Eh
   ------------------------------------------------------------------------
    298.15    0.667800E-01    0.120625E+01    0.159699E+00    0.104655E+01
   ------------------------------------------------------------------------

         :::::::::::::::::::::::::::::::::::::::::::::::::::::
         ::                  THERMODYNAMIC                  ::
         :::::::::::::::::::::::::::::::::::::::::::::::::::::
         :: total free energy        -183.046978901813 Eh   ::
         ::.................................................::
         :: total energy             -184.093533528223 Eh   ::
         :: zero point energy           1.139473839051 Eh   ::
         :: G(RRHO) w/o ZPVE           -0.092919212641 Eh   ::
         :: G(RRHO) contrib.            1.046554626409 Eh   ::
         :::::::::::::::::::::::::::::::::::::::::::::::::::::

           -------------------------------------------------
          | TOTAL ENERGY             -184.093533528223 Eh   |
          | TOTAL ENTHALPY           -182.887279657832 Eh   |
          | TOTAL FREE ENERGY        -183.046978901813 Eh   |
          | GRADIENT NORM               0.000135723633 Eh/α |
           -------------------------------------------------

 * finished run on 2025/08/26 at 09:43:04.225
