   * xtb version 6.7.1 (edcfbbe) compiled by 'albert@albert-system' on 2024-07-22

   ID    Z sym.   atoms
    1    6 C      1-20, 22-41, 43-69
    2    7 N      21, 42
    3    1 H      70-137

          program call               : xtb data2507/gas/F-2CzB/F-2CzB_gas_S0_crest.xyz --gfn 2 --ohess vtight --parallel 40 --molden --ceasefiles --namespace data2507/gas/F-2CzB/F-2CzB_gas_S0_finalOpt
          :  Hamiltonian                  GFN2-xTB          :
 * total energy  :  -184.1777188 Eh     change       -0.2350731E-08 Eh
 * total energy  :  -184.1777200 Eh     change       -0.1189255E-05 Eh
 * total energy  :  -184.1777210 Eh     change       -0.9936430E-06 Eh
 * total energy  :  -184.1777229 Eh     change       -0.1930554E-05 Eh
 * total energy  :  -184.1777239 Eh     change       -0.9368844E-06 Eh
 * total energy  :  -184.1777250 Eh     change       -0.1158178E-05 Eh
 * total energy  :  -184.1777265 Eh     change       -0.1532923E-05 Eh
 * total energy  :  -184.1777277 Eh     change       -0.1126573E-05 Eh
 * total energy  :  -184.1777286 Eh     change       -0.9010758E-06 Eh
 * total energy  :  -184.1777296 Eh     change       -0.9933014E-06 Eh
 * total energy  :  -184.1777314 Eh     change       -0.2365110E-06 Eh
 * total energy  :  -184.1777316 Eh     change       -0.2047356E-06 Eh
 * total energy  :  -184.1777318 Eh     change       -0.2209363E-06 Eh
 * total energy  :  -184.1777321 Eh     change       -0.2555797E-06 Eh
 * total energy  :  -184.1777323 Eh     change       -0.2244127E-06 Eh
 * total energy  :  -184.1777325 Eh     change       -0.1915837E-06 Eh
 * total energy  :  -184.1777327 Eh     change       -0.1969049E-06 Eh
 * total energy  :  -184.1777329 Eh     change       -0.2251546E-06 Eh
 * total energy  :  -184.1777329 Eh     change       -0.5559741E-08 Eh
   *** GEOMETRY OPTIMIZATION CONVERGED AFTER 22 ITERATIONS ***

 final structure:
================
137
 xtb: 6.7.1 (edcfbbe)
C           12.50801554399164       -4.89274704483613        2.01719289769634
C           12.88331557210005       -4.06779900374608        0.77802931405445
C           14.28450149603780       -3.49105366465200        0.99873071099458
C           12.93403636917669       -4.97826084668908       -0.45713152866566
C           11.83402469040674       -2.98731694347756        0.55889710069644
C           10.50465721274231       -3.37153167118206        0.33616820877327
C            9.48762301549724       -2.46468408001197        0.11925584965206
C            9.80787850830115       -1.11583513324328        0.11526693577746
C           11.13290897395420       -0.70095518861564        0.36457997853824
C           12.13683769047334       -1.63617930158986        0.57996320052167
C           11.12031699689824        0.73550880538280        0.34463911895706
C           12.11335098776241        1.69338454749303        0.50360734400702
C           11.79459874263703        3.03737380961130        0.40459389819752
C           12.82863923213501        4.14144584618204        0.57245718593514
C           12.90960245510653        4.95836710273540       -0.72488974826085
C           14.22659764811517        3.59649064866821        0.87799315499248
C           12.40957760938978        5.05222683656486        1.73516518800985
C           10.46719117322432        3.39133636170556        0.12694935829939
C            9.46079233129114        2.46154101635908       -0.03546175432203
C            9.78684744695323        1.12013430016980        0.09202005660231
N            9.00022423867628       -0.00697033439033       -0.04622913987097
C            7.62711828508235       -0.02129101679805       -0.31418788089404
C            6.75533386237698        0.76533027109819        0.43437152010424
C            5.40270581087126        0.75392585259418        0.16197762363900
C            4.88256997198673       -0.04086728634796       -0.85802949840714
C            3.44248465721909       -0.04556285056336       -1.14669782251328
C            2.98884077356562       -0.04590372011147       -2.46596537102810
C            1.63837710343191       -0.04165909555573       -2.76294464710952
C            0.72579515302646       -0.04405952962088       -1.72051651420701
C            1.17069630303218       -0.04884355028576       -0.38983103959753
C            2.51509765466979       -0.04569433136994       -0.10115095125776
C           -0.00137735061236       -0.05856044414134        0.56630166047609
C           -0.00100408772693        1.18831897975743        1.45569992737763
C           -0.00296237913430       -1.32828800869581        1.42313661423502
C           -1.17214179045916       -0.04679345655139       -0.39141513664331
C           -2.51687032220215       -0.04192040940808       -0.10444557970267
C           -3.44317987435200       -0.03803744171734       -1.15105224750757
C           -4.88349679053423       -0.03203178846707       -0.86399437881055
C           -5.40274197901538        0.75271696386120        0.16430918460076
C           -6.75530815688419        0.76327410355643        0.43685624790827
C           -7.62856944318991       -0.01309896028015       -0.32067770542948
N           -9.00133990292972       -0.00094191965709       -0.05145771566104
C           -9.80953783047027       -1.11148842897670        0.09591804182137
C           -9.49080992971897       -2.46059342336701        0.07784331043519
C          -10.50795879976421       -3.36963250607284        0.28480807305348
C          -11.83594490986747       -2.98757231902402        0.51901408395902
C          -12.88521997374026       -4.07026337122117        0.72684690889538
C          -12.94286625849507       -4.96215519545038       -0.52147141072606
C          -12.50448648418022       -4.91386185058388        1.95173022452101
C          -14.28468601833074       -3.49553222920598        0.96307567183106
C          -12.13719673533461       -1.63660762896163        0.56204195206164
C          -11.13312970591085       -0.69924928037146        0.35691428192097
C          -11.11907758029843        0.73733306495160        0.35985220915764
C          -12.11035321008696        1.69344879483367        0.53906928631328
C          -11.79045962396711        3.03855744381060        0.46129464007772
C          -12.82212785954983        4.14085440033289        0.65358601060807
C          -14.21912307426369        3.59255461132016        0.95753352228489
C          -12.90917982001379        4.98002455679566       -0.62905327625879
C          -12.39533129213752        5.03085691360173        1.82952727404484
C          -10.46399797223876        3.39564453329778        0.18318593117752
C           -9.45940460822552        2.46761673915897        0.00071235074381
C           -9.78623349561742        1.12461811353025        0.10797542232775
C           -7.11967083195784       -0.80056095820820       -1.35036545627883
C           -5.76530924435655       -0.80888969017107       -1.61352488074396
C           -2.98757878334211       -0.03649366471188       -2.46972072267741
C           -1.63675251531842       -0.03567405598265       -2.76499380612541
C           -0.72544084848143       -0.04206562072016       -1.72147913481996
C            5.76273433751488       -0.82821584795098       -1.59835692752118
C            7.11697359087837       -0.82015186296847       -1.33440982529615
H           13.25860335977336       -5.65928977909841        2.19937027579111
H           11.54610342432129       -5.38202470482090        1.89220134602144
H           12.45125915425060       -4.24943627854752        2.89293382322153
H           14.60808023705247       -2.91007463045200        0.13815868414061
H           14.99331991257613       -4.30464433135706        1.14066678254097
H           14.31371381407216       -2.86255239614786        1.88580026571373
H           13.17970145977747       -4.39558179349190       -1.34266366062160
H           13.69417012685388       -5.74596440971335       -0.32686828066387
H           11.98047805376894       -5.47015331845510       -0.62749575209769
H           10.25033711708330       -4.42064772686543        0.33535838405658
H            8.47289383192496       -2.80240298253333       -0.03022313375823
H           13.13783739423848       -1.28362839372224        0.76484851600534
H           13.12043825658838        1.36353684478068        0.69712568211622
H           13.18253782850634        4.31353139327044       -1.55776268981521
H           13.66204045303770        5.73883680937183       -0.63087572031628
H           11.95868740123780        5.42948848815151       -0.95748620566915
H           14.92120659728883        4.42587157769299        0.99690296132075
H           14.22887963343255        3.02157074645945        1.80119084517068
H           14.58836851975071        2.97011830207938        0.06588254729423
H           11.44808491697072        5.52118918017126        1.54577410046609
H           13.14808672927200        5.83788932442701        1.88169260725156
H           12.33192229926581        4.47524103790589        2.65445391397102
H           10.20734987472136        4.43448723890676        0.02886210894101
H            8.45432439590007        2.77634925369449       -0.26770379523409
H            7.14484186545825        1.37437057686100        1.23653480179220
H            4.73919187130432        1.38186571752370        0.73848088874037
H            3.71090753729787       -0.02543522941443       -3.26935241503376
H            1.30419275092823       -0.03364198945443       -3.78988922886350
H            2.86270037678886       -0.06591954759808        0.92170024751036
H            0.88167927138057        1.19902633250444        2.09089543640322
H            0.00050047814457        2.08725768607336        0.84257596736933
H           -0.88491771474338        1.20082174218616        2.08914866642672
H           -0.00371809477063       -2.21078479593020        0.78673472007557
H           -0.88693338298977       -1.35598463809778        2.05604004795518
H            0.88056760390639       -1.35786298355376        2.05656805196025
H           -2.86537212917008       -0.06358293486374        0.91804868250278
H           -4.73855963208731        1.37332903333087        0.74789698211901
H           -7.14357398926342        1.36341648843687        1.24628143920051
H           -8.47708766476208       -2.79721922375453       -0.08051395619023
H          -10.25479975665394       -4.41886592645657        0.26674441956638
H          -11.99080141200285       -5.45277679053279       -0.70347417973489
H          -13.70349688025174       -5.73067153567235       -0.39915738070464
H          -13.19170681162205       -4.36604121332119       -1.39711682118826
H          -12.44008087315533       -4.28320916144516        2.83610848773328
H          -13.25618341909097       -5.68070291395143        2.12791680556720
H          -11.54490150774346       -5.40416121361464        1.81353228673367
H          -14.61184353534698       -2.90136649998042        0.11292585315979
H          -14.99368835721647       -4.31043708038730        1.09627835678832
H          -14.30881940325412       -2.88039321716480        1.85961148637876
H          -13.13698553760388       -1.28581089464761        0.75656896978855
H          -13.11695006218022        1.36152319335829        0.73159877205666
H          -14.91194226746712        4.42069427242855        1.09421636147020
H          -14.58621458842633        2.98043503380270        0.13698690730625
H          -14.21711122734679        3.00214197468016        1.87089981015861
H          -11.95831117175047        5.45197398896813       -0.86014674517922
H          -13.65838665058242        5.76117065886750       -0.51664226168843
H          -13.18989364911780        4.35030908599966       -1.47086134579904
H          -13.13266398474581        5.81390245282524        1.99479318141353
H          -11.43495964760134        5.50297689404989        1.64230809726120
H          -12.31190097184889        4.43758933149968        2.73788564654754
H          -10.20344237741100        4.44000877588047        0.10122803422418
H           -8.45376233154299        2.78527729709495       -0.23118454392287
H           -7.79486790293773       -1.39308325931299       -1.94956514766478
H           -5.38152769542816       -1.43592266085945       -2.40484344456602
H           -3.70827239663176       -0.01208778531239       -3.27420230231939
H           -1.30131889288209       -0.02699305771569       -3.79152755219242
H            5.37760174992315       -1.46282955975398       -2.38297286947335
H            7.79118786391160       -1.42143649867747       -1.92596143576868

          :  Hamiltonian                  GFN2-xTB          :
         :: gradient norm              0.000044568400 Eh/a0 ::
         :: HOMO-LUMO gap              2.373572464743 eV    ::
         :: SCC energy              -187.476338204170 Eh    ::
         :: -> dispersion             -0.173400806698 Eh    ::
         :: repulsion energy           3.298605276150 Eh    ::

    * Orbital Energies and Occupations

         #    Occupation            Energy/Eh            Energy/eV
      -------------------------------------------------------------
         1        2.0000           -0.6675278             -18.1644
       ...           ...                  ...                  ...
       161        2.0000           -0.4039445             -10.9919
       162        2.0000           -0.4020679             -10.9408
       163        2.0000           -0.4014895             -10.9251
       164        2.0000           -0.4014245             -10.9233
       165        2.0000           -0.3972587             -10.8100
       166        2.0000           -0.3946766             -10.7397
       167        2.0000           -0.3908792             -10.6364
       168        2.0000           -0.3908504             -10.6356
       169        2.0000           -0.3714560             -10.1078
       170        2.0000           -0.3673377              -9.9958
       171        2.0000           -0.3673056              -9.9949
       172        2.0000           -0.3510438              -9.5524
       173        2.0000           -0.3498738              -9.5206 (HOMO)
       174                         -0.2626467              -7.1470 (LUMO)
       175                         -0.2404313              -6.5425
       176                         -0.2351471              -6.3987
       177                         -0.2323359              -6.3222
       178                         -0.2269951              -6.1769
       179                         -0.2269441              -6.1755
       180                         -0.2224824              -6.0541
       181                         -0.2178867              -5.9290
       182                         -0.2159755              -5.8770
       183                         -0.2116002              -5.7579
       184                         -0.2115667              -5.7570
       ...                                ...                  ...
       344                          0.7491793              20.3862
      -------------------------------------------------------------
                  HL-Gap            0.0872272 Eh            2.3736 eV

     #   Z          covCN         q      C6AA      α(0)
     1   6 C        3.761    -0.105    22.547     6.769
     2   6 C        3.903     0.026    20.088     6.371
     3   6 C        3.761    -0.106    22.580     6.774
     4   6 C        3.762    -0.105    22.547     6.769
     5   6 C        2.973    -0.003    28.092     8.694
     6   6 C        2.931    -0.040    28.989     8.830
     7   6 C        2.908    -0.054    29.336     8.881
     8   6 C        3.080     0.043    26.960     8.512
     9   6 C        3.068    -0.021    28.450     8.746
    10   6 C        2.918    -0.044    29.093     8.845
    11   6 C        3.068    -0.021    28.450     8.746
    12   6 C        2.918    -0.044    29.094     8.845
    13   6 C        2.973    -0.003    28.092     8.694
    14   6 C        3.903     0.026    20.088     6.371
    15   6 C        3.761    -0.105    22.547     6.769
    16   6 C        3.761    -0.106    22.580     6.774
    17   6 C        3.762    -0.105    22.547     6.769
    18   6 C        2.931    -0.040    28.989     8.830
    19   6 C        2.908    -0.054    29.336     8.881
    20   6 C        3.080     0.043    26.960     8.512
    21   7 N        2.802    -0.045    22.116     6.985
    22   6 C        2.913     0.063    26.595     8.456
    23   6 C        2.920    -0.045    29.106     8.847
    24   6 C        2.925    -0.034    28.849     8.808
    25   6 C        2.976     0.006    27.873     8.660
    26   6 C        2.978     0.006    27.880     8.661
    27   6 C        2.926    -0.038    28.951     8.824
    28   6 C        2.913    -0.035    28.873     8.811
    29   6 C        3.037    -0.002    28.034     8.684
    30   6 C        3.053    -0.002    28.028     8.682
    31   6 C        2.920    -0.039    28.970     8.826
    32   6 C        3.936     0.019    20.195     6.386
    33   6 C        3.758    -0.098    22.413     6.749
    34   6 C        3.759    -0.098    22.420     6.751
    35   6 C        3.053    -0.002    28.029     8.683
    36   6 C        2.920    -0.039    28.970     8.826
    37   6 C        2.978     0.006    27.880     8.661
    38   6 C        2.976     0.006    27.874     8.660
    39   6 C        2.925    -0.034    28.850     8.808
    40   6 C        2.920    -0.045    29.108     8.847
    41   6 C        2.913     0.063    26.595     8.456
    42   7 N        2.802    -0.045    22.114     6.984
    43   6 C        3.080     0.043    26.960     8.512
    44   6 C        2.908    -0.054    29.336     8.881
    45   6 C        2.931    -0.040    28.989     8.830
    46   6 C        2.973    -0.003    28.092     8.694
    47   6 C        3.903     0.026    20.088     6.371
    48   6 C        3.762    -0.105    22.547     6.769
    49   6 C        3.761    -0.105    22.547     6.769
    50   6 C        3.761    -0.106    22.580     6.774
    51   6 C        2.918    -0.044    29.093     8.845
    52   6 C        3.068    -0.021    28.450     8.746
    53   6 C        3.068    -0.021    28.450     8.746
    54   6 C        2.918    -0.044    29.094     8.845
    55   6 C        2.973    -0.003    28.092     8.694
    56   6 C        3.903     0.026    20.088     6.371
    57   6 C        3.761    -0.106    22.580     6.774
    58   6 C        3.761    -0.105    22.547     6.769
    59   6 C        3.762    -0.105    22.547     6.769
    60   6 C        2.931    -0.040    28.989     8.830
    61   6 C        2.908    -0.054    29.336     8.881
    62   6 C        3.080     0.043    26.960     8.512
    63   6 C        2.920    -0.044    29.102     8.846
    64   6 C        2.925    -0.034    28.851     8.809
    65   6 C        2.926    -0.038    28.951     8.824
    66   6 C        2.913    -0.035    28.873     8.811
    67   6 C        3.037    -0.002    28.034     8.684
    68   6 C        2.925    -0.034    28.850     8.808
    69   6 C        2.920    -0.044    29.100     8.846
    70   1 H        0.925     0.035     2.517     2.481
    71   1 H        0.925     0.035     2.515     2.480
    72   1 H        0.925     0.033     2.547     2.496
    73   1 H        0.925     0.035     2.514     2.480
    74   1 H        0.925     0.034     2.530     2.487
    75   1 H        0.925     0.035     2.516     2.480
    76   1 H        0.925     0.033     2.547     2.496
    77   1 H        0.925     0.035     2.519     2.482
    78   1 H        0.925     0.035     2.514     2.480
    79   1 H        0.926     0.027     2.625     2.534
    80   1 H        0.926     0.024     2.671     2.556
    81   1 H        0.926     0.036     2.504     2.475
    82   1 H        0.926     0.036     2.504     2.475
    83   1 H        0.925     0.033     2.547     2.496
    84   1 H        0.925     0.035     2.517     2.481
    85   1 H        0.925     0.035     2.515     2.480
    86   1 H        0.925     0.034     2.530     2.487
    87   1 H        0.925     0.035     2.514     2.480
    88   1 H        0.925     0.035     2.515     2.480
    89   1 H        0.925     0.035     2.515     2.480
    90   1 H        0.925     0.035     2.519     2.482
    91   1 H        0.925     0.033     2.548     2.496
    92   1 H        0.926     0.027     2.625     2.534
    93   1 H        0.926     0.024     2.670     2.555
    94   1 H        0.926     0.039     2.461     2.453
    95   1 H        0.926     0.035     2.516     2.481
    96   1 H        0.926     0.031     2.578     2.511
    97   1 H        0.926     0.030     2.584     2.514
    98   1 H        0.926     0.029     2.599     2.521
    99   1 H        0.925     0.040     2.451     2.448
   100   1 H        0.925     0.036     2.508     2.476
   101   1 H        0.925     0.040     2.451     2.448
   102   1 H        0.925     0.036     2.506     2.475
   103   1 H        0.925     0.040     2.443     2.444
   104   1 H        0.925     0.040     2.443     2.444
   105   1 H        0.926     0.029     2.599     2.521
   106   1 H        0.926     0.035     2.516     2.481
   107   1 H        0.926     0.039     2.461     2.453
   108   1 H        0.926     0.024     2.670     2.555
   109   1 H        0.926     0.027     2.625     2.534
   110   1 H        0.925     0.035     2.515     2.480
   111   1 H        0.925     0.035     2.518     2.482
   112   1 H        0.925     0.033     2.547     2.496
   113   1 H        0.925     0.033     2.547     2.496
   114   1 H        0.925     0.035     2.517     2.481
   115   1 H        0.925     0.035     2.515     2.480
   116   1 H        0.925     0.035     2.514     2.479
   117   1 H        0.925     0.034     2.530     2.487
   118   1 H        0.925     0.035     2.516     2.480
   119   1 H        0.926     0.036     2.504     2.475
   120   1 H        0.926     0.036     2.504     2.475
   121   1 H        0.925     0.034     2.530     2.487
   122   1 H        0.925     0.035     2.515     2.480
   123   1 H        0.925     0.035     2.514     2.480
   124   1 H        0.925     0.035     2.515     2.480
   125   1 H        0.925     0.035     2.517     2.481
   126   1 H        0.925     0.033     2.546     2.495
   127   1 H        0.925     0.035     2.519     2.482
   128   1 H        0.925     0.035     2.515     2.480
   129   1 H        0.925     0.033     2.548     2.496
   130   1 H        0.926     0.027     2.625     2.534
   131   1 H        0.926     0.024     2.669     2.555
   132   1 H        0.926     0.039     2.457     2.451
   133   1 H        0.926     0.036     2.506     2.476
   134   1 H        0.926     0.031     2.577     2.510
   135   1 H        0.926     0.030     2.584     2.514
   136   1 H        0.926     0.036     2.506     2.476
   137   1 H        0.926     0.039     2.457     2.451

molecular dipole:
                 x           y           z       tot (Debye)
 q only:       -0.004      -0.012       0.210
   full:       -0.004      -0.013       0.145       0.370

 projected vibrational frequencies (cm⁻¹)
eigval :       -0.00    -0.00     0.00     0.00     0.00     0.00
eigval :        4.30     5.61     8.05    12.04    17.64    21.25
eigval :       28.58    31.07    31.15    33.77    33.87    34.63
eigval :       53.86    54.97    56.30    56.74    56.87    72.28
eigval :       82.07    87.78    91.84    94.41    95.74   103.93
eigval :      112.24   120.22   122.21   124.87   144.85   156.04
eigval :      159.16   160.73   160.93   174.85   177.81   184.74
eigval :      185.81   192.40   202.92   202.99   203.77   216.54
eigval :      218.69   218.88   219.26   223.98   227.29   229.75
eigval :      230.53   239.41   248.26   254.12   258.89   258.98
eigval :      267.69   276.38   279.80   296.20   304.03   305.83
eigval :      316.86   317.56   318.38   320.79   321.92   322.03
eigval :      329.29   333.97   338.24   339.43   356.11   360.10
eigval :      360.11   362.63   372.14   377.87   382.50   382.89
eigval :      387.65   393.34   397.59   406.50   411.38   411.76
eigval :      418.04   421.00   422.17   442.27   442.56   443.12
eigval :      443.22   452.51   461.76   465.94   465.97   467.27
eigval :      469.27   471.51   475.47   501.80   509.66   520.30
eigval :      523.99   526.89   545.71   568.31   571.07   575.63
eigval :      577.06   580.26   583.30   583.35   593.53   598.02
eigval :      601.07   622.58   626.51   629.69   631.38   631.47
eigval :      639.67   639.68   676.40   687.75   687.77   689.27
eigval :      689.74   697.53   703.00   707.48   708.16   720.19
eigval :      720.78   728.74   733.48   737.79   748.18   810.21
eigval :      813.48   821.93   822.94   822.99   823.65   829.51
eigval :      831.61   835.19   840.10   841.80   867.68   868.96
eigval :      869.09   873.65   873.69   874.32   874.34   878.07
eigval :      878.18   888.76   888.89   911.07   911.20   913.27
eigval :      913.63   915.51   916.81   923.78   923.94   924.17
eigval :      924.86   928.04   928.13   935.19   935.48   943.23
eigval :      944.77   960.20   960.21   960.28   960.28   962.82
eigval :      962.83   962.85   962.85   962.91   962.92   963.15
eigval :      963.36   963.83   966.49   986.33  1012.96  1014.77
eigval :     1015.09  1031.12  1031.14  1035.78  1035.79  1035.88
eigval :     1035.89  1035.97  1035.98  1041.86  1041.87  1070.58
eigval :     1077.94  1085.79  1114.74  1116.82  1116.88  1130.17
eigval :     1130.22  1137.59  1138.19  1143.98  1144.11  1160.17
eigval :     1165.35  1175.79  1177.67  1177.73  1190.81  1191.49
eigval :     1213.18  1214.19  1222.88  1224.13  1228.19  1228.21
eigval :     1228.31  1228.33  1231.61  1231.62  1232.52  1232.54
eigval :     1238.52  1238.55  1242.63  1244.49  1246.99  1248.88
eigval :     1261.17  1261.24  1268.49  1269.06  1277.42  1285.92
eigval :     1285.96  1294.47  1302.97  1307.12  1312.16  1312.27
eigval :     1315.38  1316.50  1317.04  1328.40  1348.18  1348.24
eigval :     1359.41  1359.96  1364.07  1380.90  1384.99  1395.84
eigval :     1401.06  1401.77  1404.76  1404.77  1405.27  1406.01
eigval :     1406.04  1406.07  1406.09  1406.53  1411.46  1415.53
eigval :     1416.27  1426.21  1429.47  1429.47  1429.57  1429.58
eigval :     1439.06  1442.57  1443.78  1451.14  1471.03  1483.62
eigval :     1483.65  1486.17  1486.18  1487.61  1489.41  1492.75
eigval :     1492.75  1492.78  1492.78  1495.51  1495.52  1495.55
eigval :     1495.56  1497.96  1501.08  1501.96  1502.05  1502.39
eigval :     1502.39  1503.13  1504.73  1506.12  1506.13  1506.17
eigval :     1506.18  1515.09  1515.10  1515.29  1515.30  1520.67
eigval :     1520.68  1521.53  1521.54  1558.05  1558.45  1570.60
eigval :     1571.13  1574.41  1582.55  1582.63  1586.99  1592.00
eigval :     1596.14  1605.02  1605.02  1605.06  1611.51  1618.37
eigval :     1618.46  3019.98  3019.99  3020.15  3020.16  3021.19
eigval :     3021.24  3021.27  3021.27  3026.56  3026.57  3026.59
eigval :     3026.60  3028.49  3028.51  3028.54  3029.01  3029.06
eigval :     3029.31  3030.65  3030.65  3030.73  3030.74  3032.40
eigval :     3033.39  3035.36  3035.38  3035.61  3035.63  3037.79
eigval :     3037.80  3038.09  3038.12  3038.21  3039.97  3046.77
eigval :     3046.77  3046.78  3046.81  3050.23  3050.24  3050.44
eigval :     3050.46  3073.94  3074.60  3075.06  3076.48  3077.47
eigval :     3077.63  3077.91  3078.03  3079.94  3080.16  3081.34
eigval :     3081.57  3086.42  3088.50  3090.88  3090.97  3091.52
eigval :     3091.60  3092.91  3093.05  3094.08  3094.27  3114.28
eigval :     3114.30  3117.78  3117.80

   temp. (K)  partition function   enthalpy   heat capacity  entropy
                                   cal/mol     cal/K/mol   cal/K/mol   J/K/mol
 298.15  VIB  0.127E+32            39238.310    241.519    245.099
         ROT  0.579E+09              888.752      2.981     43.076
         INT  0.737E+40            40127.063    244.500    288.175
         TR   0.262E+29             1481.254      4.968     46.251
         TOT                       41608.3166   249.4680   334.4258  1399.2377

       T/K    H(0)-H(T)+PV         H(T)/Eh          T*S/Eh         G(T)/Eh
   ------------------------------------------------------------------------
    298.15    0.663071E-01    0.120967E+01    0.158897E+00    0.105077E+01
   ------------------------------------------------------------------------

         :::::::::::::::::::::::::::::::::::::::::::::::::::::
         ::                  THERMODYNAMIC                  ::
         :::::::::::::::::::::::::::::::::::::::::::::::::::::
         :: total free energy        -183.126960492602 Eh   ::
         ::.................................................::
         :: total energy             -184.177732928020 Eh   ::
         :: zero point energy           1.143361870873 Eh   ::
         :: G(RRHO) w/o ZPVE           -0.092589435455 Eh   ::
         :: G(RRHO) contrib.            1.050772435418 Eh   ::
         :::::::::::::::::::::::::::::::::::::::::::::::::::::

           -------------------------------------------------
          | TOTAL ENERGY             -184.177732928020 Eh   |
          | TOTAL ENTHALPY           -182.968063984068 Eh   |
          | TOTAL FREE ENERGY        -183.126960492602 Eh   |
          | GRADIENT NORM               0.000044566237 Eh/α |
          | HOMO-LUMO GAP               2.373572469748 eV   |
           -------------------------------------------------

 * finished run on 2025/08/26 at 09:42:32.614
