   * xtb version 6.7.1 (edcfbbe) compiled by 'albert@albert-system' on 2024-07-22

   ID    Z sym.   atoms
    1    6 C      1-20, 22-41, 43-69
    2    7 N      21, 42
    3    1 H      70-137

          program call               : xtb data2507/gas/F-2CzB/F-2CzB.xyz --gfn 2 --ohess vtight --parallel 40 --molden --ceasefiles --namespace data2507/gas/F-2CzB/F-2CzB_gas_S0_preOpt
          :  Hamiltonian                  GFN2-xTB          :
 * total energy  :  -184.1475073 Eh     change       -0.5366331E-08 Eh
 * total energy  :  -184.1660603 Eh     change       -0.1855301E-01 Eh
 * total energy  :  -184.1712364 Eh     change       -0.5176075E-02 Eh
 * total energy  :  -184.1727751 Eh     change       -0.1538723E-02 Eh
 * total energy  :  -184.1739285 Eh     change       -0.1153432E-02 Eh
 * total energy  :  -184.1746262 Eh     change       -0.6976473E-03 Eh
 * total energy  :  -184.1752363 Eh     change       -0.6101210E-03 Eh
 * total energy  :  -184.1757439 Eh     change       -0.5076190E-03 Eh
 * total energy  :  -184.1760120 Eh     change       -0.2680361E-03 Eh
 * total energy  :  -184.1761444 Eh     change       -0.1324783E-03 Eh
 * total energy  :  -184.1768176 Eh     change       -0.1383166E-06 Eh
 * total energy  :  -184.1768178 Eh     change       -0.1702635E-06 Eh
 * total energy  :  -184.1768180 Eh     change       -0.2207389E-06 Eh
 * total energy  :  -184.1768183 Eh     change       -0.2959562E-06 Eh
 * total energy  :  -184.1768187 Eh     change       -0.4171031E-06 Eh
 * total energy  :  -184.1768192 Eh     change       -0.4988629E-06 Eh
 * total energy  :  -184.1768198 Eh     change       -0.5851693E-06 Eh
 * total energy  :  -184.1768205 Eh     change       -0.6833532E-06 Eh
 * total energy  :  -184.1768205 Eh     change       -0.3261675E-08 Eh
   *** GEOMETRY OPTIMIZATION CONVERGED AFTER 122 ITERATIONS ***

 final structure:
================
137
 xtb: 6.7.1 (edcfbbe)
C           13.36369524971034       -3.95646711546790        1.99094510076150
C           12.77430442299527       -4.14205287786139        0.58544441568518
C           13.87791938663677       -3.96760607755885       -0.46767102803369
C           12.24234597066115       -5.57393904306034        0.47998440888981
C           11.69774309567584       -3.09036790733552        0.35497410707475
C           10.36554752020455       -3.42452699384742        0.09701330348379
C            9.38592007865618       -2.47262394315449       -0.11962097438585
C            9.74968598510694       -1.13723244277871       -0.08633808181303
C           11.08339411191931       -0.77176807902495        0.19902538703023
C           12.04426434675336       -1.74675921817375        0.41253202212509
C           11.11769935235912        0.66529302190467        0.21219287400049
C           12.13054645805580        1.58920936257183        0.41192131442040
C           11.85723350669771        2.94883881120534        0.33866901818719
C           12.98690554359846        3.94325880544189        0.56914883550315
C           12.53041824022116        5.40080051804381        0.46166133165629
C           14.08233429044114        3.70995791391578       -0.48104413873950
C           13.56261506816932        3.72912654850293        1.97633510626387
C           10.55168454751879        3.35122425828357        0.04437455415394
C            9.52141325973361        2.45130799842040       -0.15933193997500
C            9.80139418095762        1.09927709652357       -0.05781539358692
N            8.98220080582968        0.00153671407212       -0.23835154722545
C            7.61290476020361        0.03537203629011       -0.52351683295333
C            6.75440725657474        0.82607353027343        0.23597497676381
C            5.40408441759993        0.85295040947518       -0.04649916654990
C            4.87352771017240        0.09431129352309       -1.08838496562415
C            3.43404089303603        0.11928496215306       -1.37902457322793
C            2.97991319035748        0.16042843017321       -2.69736120956682
C            1.62922736848740        0.18364384659023       -2.99302653120461
C            0.71704842063475        0.15662316010060       -1.95052544592075
C            1.16285402014032        0.11181258022284       -0.62086504122734
C            2.50729427423478        0.09815273785303       -0.33319695271159
C           -0.00813468072763        0.07763116390061        0.33579094843360
C           -0.00699140913567        1.30117459205258        1.25709449079888
C           -0.00872901119914       -1.21378966998288        1.15948529437967
C           -1.17958290884797        0.11468728451758       -0.62022277737071
C           -2.52386090531004        0.10431007970332       -0.33173437264477
C           -3.45156348754518        0.13273450909543       -1.37668944705046
C           -4.89093062024284        0.11163141607486       -1.08563299752088
C           -5.41732630754471        0.85565040079039       -0.03104206824586
C           -6.76754074834523        0.83088457701738        0.25224100551703
C           -7.63109011597370        0.05864289213324       -0.52044130024941
N           -9.00033087472029        0.02654884156603       -0.23533321334941
C           -9.77470477375689       -1.11102046683865       -0.11156733369097
C           -9.41960130852891       -2.44771266960302       -0.17588824904432
C          -10.40578825658740       -3.39795265898891        0.01621070827039
C          -11.73640227519533       -3.06122976063180        0.27984542190868
C          -12.82030530203362       -4.11100988328080        0.48296862794628
C          -12.29728945256315       -5.54349742370148        0.34577788112247
C          -13.41243086560535       -3.95415741441766        1.89080875237743
C          -13.91984241720822       -3.90491003580921       -0.56868636845119
C          -12.07424757912162       -1.71738829503385        0.36934896978733
C          -11.10644977809728       -0.74373664795383        0.18093777813634
C          -11.13156746641220        0.69230729485582        0.22907952548683
C          -12.14569916639998        1.61411459849007        0.45252257022941
C          -11.86412289960279        2.96962485055500        0.41320459456216
C          -12.92284549017091        4.03598805275682        0.65482362894163
C          -14.29909201384003        3.43949839843706        0.96273766110561
C          -13.05351091974286        4.91084273672836       -0.59996425952745
C          -12.50253112115016        4.90172895658412        1.85103833041192
C          -10.55230899560533        3.37184730645188        0.12819468718675
C           -9.52539910904196        2.47819645795507       -0.09759862809129
C           -9.81368973025997        1.12395429105374       -0.02895495584155
C           -7.11563757763818       -0.68427589678608       -1.57959766869823
C           -5.76372652801790       -0.65728434760599       -1.85364546540595
C           -2.99770080822629        0.17755627797015       -2.69514051252458
C           -1.64716973864687        0.19456305390962       -2.99172283828446
C           -0.73433493862643        0.15991114978100       -1.95004052779065
C            5.74117656189947       -0.69246672606086       -1.84380619812027
C            7.09296096798670       -0.72331079510259       -1.56913846133786
H           14.12616734859776       -4.70913428866352        2.18141784757434
H           12.58265450008918       -4.05789785404700        2.74174320504210
H           13.81782233762938       -2.97602383898510        2.10380310219510
H           13.46311576441947       -4.07754241443248       -1.46760030927024
H           14.65166585003619       -4.72025919253144       -0.32992251257419
H           14.34099873601060       -2.98736515684208       -0.39810881083959
H           11.82851422194589       -5.76652819042383       -0.50720108880934
H           13.05793438390879       -6.27562817009579        0.64449038451001
H           11.47960386123366       -5.76552303653034        1.23121133493247
H           10.06697617826381       -4.45930645741381        0.06513994955363
H            8.36377664990600       -2.77220092520234       -0.29731725930891
H           13.05712623279343       -1.44229192953443        0.62739985811164
H           13.12802850057479        1.23271150338671        0.61854668427804
H           12.14473209216377        5.61882743313734       -0.53157968893058
H           13.37761278554312        6.05933802213722        0.64389046539945
H           11.76496685222993        5.62733962325980        1.20034047653203
H           14.89273790327144        4.42312506466171       -0.34396821604725
H           14.49514705306708        2.70778828048319       -0.40716629678738
H           13.67552337054885        3.83719614655813       -1.48219668065148
H           12.78685916309968        3.87484169931071        2.72533005158189
H           14.36456939360218        4.43958255076454        2.16678465418863
H           13.96252570426209        2.72575910283932        2.09256571908223
H           10.31717582065572        4.39979727122618       -0.03585912589727
H            8.52993807031425        2.80287297970844       -0.40323427342079
H            7.15177361600060        1.40616290742393        1.05555689367070
H            4.75047592739545        1.48145365869077        0.54063005814994
H            3.70187581501188        0.19669099060079       -3.50031725005134
H            1.29459301927985        0.22287036021942       -4.01911584698404
H            2.85541099469560        0.04642055251430        0.68836578406780
H            0.87652590822242        1.29576973160508        1.89120004959352
H           -0.00659467161901        2.21566747275186        0.66742509421510
H           -0.89016722786451        1.29692465139899        1.89169540005046
H           -0.89219659610559       -1.25831196548540        1.79210091237338
H            0.87523605110222       -1.25943275252129        1.79134359665111
H           -0.00952924656684       -2.07947577394565        0.50039706169127
H           -2.87089141571281        0.04987337268268        0.69002663549379
H           -4.76055993034369        1.47109097727587        0.56627404149174
H           -7.16071439244250        1.39823993580512        1.08268214681626
H           -8.39913448605865       -2.74996383237148       -0.35857447043048
H          -10.11398512855941       -4.43362674104334       -0.03998483651034
H          -11.53730566774041       -5.75706786050597        1.09386902741821
H          -13.11766700837185       -6.24351817121806        0.49264729300677
H          -11.88266343490588       -5.71615766238772       -0.64475884679727
H          -13.86080087079707       -2.97376581271680        2.02498620627567
H          -14.18007127778216       -4.70622488785335        2.06187110263604
H          -12.63409078760367       -4.07777670413080        2.64109399663835
H          -13.50315853712081       -3.99509568137580       -1.56981989225667
H          -14.69920711203214       -4.65501538398759       -0.45000351133322
H          -14.37612683825687       -2.92321920172294       -0.47795408486552
H          -13.08537737473980       -1.41128306049646        0.58982585065998
H          -13.13987324197945        1.24850490682571        0.64865635844575
H          -15.01242630628761        4.24322765270419        1.13497370009864
H          -14.66204254131435        2.84228483084751        0.12944006229416
H          -14.26618428973230        2.82220054160906        1.85758271729621
H          -12.11950302562147        5.41519324654006       -0.83138377749690
H          -13.82134791160516        5.66756670297103       -0.45185020721500
H          -13.33123149539671        4.29948315365466       -1.45617280673787
H          -13.25880281322359        5.65809265136375        2.05129262783858
H          -11.55887672598264        5.40650251820132        1.66405646194926
H          -12.38815149104622        4.28385528357431        2.73940154089319
H          -10.32157750077629        4.42510274497101        0.07587245618967
H           -8.53226036891173        2.83080631789070       -0.33284426012699
H           -7.78406785221706       -1.27147196805185       -2.19146871955513
H           -5.37433116822521       -1.25157864496710       -2.66717058391620
H           -3.71958006972959        0.22151968940792       -3.49774731521403
H           -1.31314224339765        0.23566225153421       -4.01793928160152
H            5.34754793293370       -1.29746319243351       -2.64738471964171
H            7.75780132964340       -1.32562485745110       -2.17017330231225

          :  Hamiltonian                  GFN2-xTB          :
         :: gradient norm              0.000043431222 Eh/a0 ::
         :: HOMO-LUMO gap              2.364314548188 eV    ::
         :: SCC energy              -187.475339128128 Eh    ::
         :: -> dispersion             -0.173409502779 Eh    ::
         :: repulsion energy           3.298518644348 Eh    ::

    * Orbital Energies and Occupations

         #    Occupation            Energy/Eh            Energy/eV
      -------------------------------------------------------------
         1        2.0000           -0.6675827             -18.1658
       ...           ...                  ...                  ...
       161        2.0000           -0.4031490             -10.9702
       162        2.0000           -0.4022608             -10.9461
       163        2.0000           -0.4019016             -10.9363
       164        2.0000           -0.4016958             -10.9307
       165        2.0000           -0.3971923             -10.8082
       166        2.0000           -0.3945877             -10.7373
       167        2.0000           -0.3902254             -10.6186
       168        2.0000           -0.3895855             -10.6012
       169        2.0000           -0.3713584             -10.1052
       170        2.0000           -0.3688481             -10.0369
       171        2.0000           -0.3681143             -10.0169
       172        2.0000           -0.3505613              -9.5393
       173        2.0000           -0.3493969              -9.5076 (HOMO)
       174                         -0.2625100              -7.1433 (LUMO)
       175                         -0.2402071              -6.5364
       176                         -0.2353687              -6.4047
       177                         -0.2327776              -6.3342
       178                         -0.2269263              -6.1750
       179                         -0.2268853              -6.1739
       180                         -0.2224466              -6.0531
       181                         -0.2178155              -5.9271
       182                         -0.2161240              -5.8810
       183                         -0.2127370              -5.7889
       184                         -0.2121712              -5.7735
       ...                                ...                  ...
       344                          0.7537488              20.5105
      -------------------------------------------------------------
                  HL-Gap            0.0868870 Eh            2.3643 eV

     #   Z          covCN         q      C6AA      α(0)
     1   6 C        3.762    -0.105    22.545     6.768
     2   6 C        3.903     0.026    20.087     6.371
     3   6 C        3.762    -0.105    22.546     6.769
     4   6 C        3.761    -0.106    22.578     6.774
     5   6 C        2.972    -0.003    28.093     8.694
     6   6 C        2.928    -0.044    29.094     8.846
     7   6 C        2.909    -0.055    29.354     8.884
     8   6 C        3.078     0.043    26.950     8.511
     9   6 C        3.065    -0.020    28.435     8.744
    10   6 C        2.920    -0.039    28.982     8.828
    11   6 C        3.065    -0.020    28.435     8.744
    12   6 C        2.920    -0.039    28.982     8.828
    13   6 C        2.972    -0.003    28.093     8.694
    14   6 C        3.903     0.026    20.087     6.371
    15   6 C        3.761    -0.106    22.578     6.774
    16   6 C        3.762    -0.105    22.545     6.769
    17   6 C        3.762    -0.105    22.545     6.769
    18   6 C        2.928    -0.044    29.093     8.846
    19   6 C        2.909    -0.054    29.353     8.884
    20   6 C        3.078     0.043    26.950     8.511
    21   7 N        2.801    -0.046    22.131     6.987
    22   6 C        2.913     0.063    26.596     8.457
    23   6 C        2.920    -0.045    29.107     8.847
    24   6 C        2.925    -0.034    28.849     8.808
    25   6 C        2.977     0.006    27.873     8.660
    26   6 C        2.978     0.006    27.880     8.661
    27   6 C        2.926    -0.038    28.950     8.824
    28   6 C        2.913    -0.035    28.873     8.811
    29   6 C        3.037    -0.002    28.035     8.685
    30   6 C        3.054    -0.002    28.027     8.682
    31   6 C        2.920    -0.039    28.970     8.826
    32   6 C        3.936     0.019    20.195     6.386
    33   6 C        3.758    -0.098    22.412     6.749
    34   6 C        3.759    -0.098    22.421     6.751
    35   6 C        3.054    -0.002    28.028     8.682
    36   6 C        2.920    -0.039    28.970     8.826
    37   6 C        2.978     0.006    27.880     8.661
    38   6 C        2.976     0.006    27.874     8.660
    39   6 C        2.925    -0.034    28.850     8.808
    40   6 C        2.920    -0.045    29.109     8.848
    41   6 C        2.913     0.063    26.596     8.457
    42   7 N        2.802    -0.046    22.121     6.985
    43   6 C        3.078     0.043    26.959     8.512
    44   6 C        2.909    -0.054    29.353     8.884
    45   6 C        2.928    -0.044    29.097     8.846
    46   6 C        2.972    -0.003    28.091     8.694
    47   6 C        3.903     0.026    20.088     6.371
    48   6 C        3.761    -0.106    22.577     6.773
    49   6 C        3.762    -0.105    22.547     6.769
    50   6 C        3.762    -0.105    22.547     6.769
    51   6 C        2.920    -0.040    28.989     8.829
    52   6 C        3.066    -0.020    28.436     8.744
    53   6 C        3.067    -0.020    28.448     8.746
    54   6 C        2.918    -0.044    29.086     8.844
    55   6 C        2.973    -0.003    28.092     8.694
    56   6 C        3.903     0.026    20.088     6.371
    57   6 C        3.761    -0.106    22.577     6.773
    58   6 C        3.761    -0.105    22.547     6.769
    59   6 C        3.762    -0.105    22.547     6.769
    60   6 C        2.931    -0.040    28.985     8.829
    61   6 C        2.908    -0.054    29.337     8.881
    62   6 C        3.080     0.043    26.952     8.511
    63   6 C        2.921    -0.044    29.102     8.846
    64   6 C        2.925    -0.034    28.851     8.808
    65   6 C        2.926    -0.038    28.951     8.824
    66   6 C        2.913    -0.035    28.873     8.811
    67   6 C        3.037    -0.002    28.034     8.685
    68   6 C        2.925    -0.034    28.850     8.808
    69   6 C        2.921    -0.044    29.100     8.846
    70   1 H        0.925     0.035     2.518     2.482
    71   1 H        0.925     0.033     2.550     2.497
    72   1 H        0.925     0.036     2.509     2.477
    73   1 H        0.925     0.033     2.550     2.497
    74   1 H        0.925     0.035     2.520     2.482
    75   1 H        0.925     0.036     2.507     2.476
    76   1 H        0.925     0.035     2.521     2.483
    77   1 H        0.925     0.034     2.526     2.485
    78   1 H        0.925     0.035     2.523     2.484
    79   1 H        0.926     0.034     2.526     2.485
    80   1 H        0.926     0.024     2.670     2.555
    81   1 H        0.926     0.028     2.609     2.526
    82   1 H        0.926     0.028     2.609     2.526
    83   1 H        0.925     0.035     2.521     2.483
    84   1 H        0.925     0.034     2.526     2.485
    85   1 H        0.925     0.035     2.522     2.484
    86   1 H        0.925     0.035     2.518     2.482
    87   1 H        0.925     0.036     2.509     2.477
    88   1 H        0.925     0.033     2.549     2.497
    89   1 H        0.925     0.033     2.551     2.498
    90   1 H        0.925     0.035     2.520     2.482
    91   1 H        0.925     0.036     2.508     2.476
    92   1 H        0.926     0.034     2.526     2.485
    93   1 H        0.926     0.024     2.670     2.555
    94   1 H        0.926     0.039     2.462     2.454
    95   1 H        0.926     0.035     2.516     2.480
    96   1 H        0.926     0.031     2.578     2.511
    97   1 H        0.926     0.030     2.584     2.514
    98   1 H        0.926     0.029     2.600     2.521
    99   1 H        0.925     0.040     2.451     2.448
   100   1 H        0.925     0.036     2.507     2.476
   101   1 H        0.925     0.040     2.451     2.448
   102   1 H        0.925     0.040     2.443     2.444
   103   1 H        0.925     0.040     2.443     2.444
   104   1 H        0.925     0.036     2.506     2.476
   105   1 H        0.926     0.029     2.599     2.521
   106   1 H        0.926     0.035     2.516     2.481
   107   1 H        0.926     0.039     2.462     2.454
   108   1 H        0.926     0.024     2.670     2.555
   109   1 H        0.926     0.034     2.527     2.486
   110   1 H        0.925     0.035     2.523     2.484
   111   1 H        0.925     0.034     2.526     2.486
   112   1 H        0.925     0.035     2.522     2.483
   113   1 H        0.925     0.036     2.506     2.476
   114   1 H        0.925     0.035     2.519     2.482
   115   1 H        0.925     0.033     2.551     2.498
   116   1 H        0.925     0.033     2.550     2.497
   117   1 H        0.925     0.035     2.520     2.482
   118   1 H        0.925     0.036     2.505     2.475
   119   1 H        0.926     0.029     2.601     2.522
   120   1 H        0.926     0.035     2.512     2.479
   121   1 H        0.925     0.034     2.529     2.487
   122   1 H        0.925     0.035     2.517     2.481
   123   1 H        0.925     0.035     2.516     2.481
   124   1 H        0.925     0.035     2.514     2.480
   125   1 H        0.925     0.035     2.516     2.481
   126   1 H        0.925     0.033     2.546     2.495
   127   1 H        0.925     0.035     2.518     2.482
   128   1 H        0.925     0.035     2.514     2.480
   129   1 H        0.925     0.033     2.547     2.496
   130   1 H        0.926     0.027     2.623     2.533
   131   1 H        0.926     0.024     2.668     2.554
   132   1 H        0.926     0.039     2.457     2.451
   133   1 H        0.926     0.036     2.506     2.476
   134   1 H        0.926     0.031     2.578     2.511
   135   1 H        0.926     0.030     2.585     2.514
   136   1 H        0.926     0.036     2.507     2.476
   137   1 H        0.926     0.039     2.458     2.452

molecular dipole:
                 x           y           z       tot (Debye)
 q only:       -0.010      -0.011       0.204
   full:        0.004       0.005       0.148       0.377

 projected vibrational frequencies (cm⁻¹)
eigval :       -0.00    -0.00    -0.00     0.00     0.00     0.00
eigval :        4.28     5.73     7.88    11.98    17.35    20.75
eigval :       28.32    30.21    30.77    31.25    32.42    35.35
eigval :       54.33    55.19    55.95    58.29    59.75    72.70
eigval :       79.99    82.74    87.54    93.32    95.34   103.16
eigval :      112.47   123.51   124.77   127.50   145.58   155.42
eigval :      156.14   156.85   158.95   175.78   178.43   180.39
eigval :      182.81   187.37   189.90   194.64   203.02   216.86
eigval :      217.16   218.26   219.91   221.81   225.12   235.24
eigval :      239.52   244.87   250.92   254.11   264.23   268.68
eigval :      273.89   284.73   289.02   298.37   304.64   308.71
eigval :      312.61   315.48   318.68   321.38   324.13   325.71
eigval :      326.75   328.45   336.09   338.25   353.36   355.66
eigval :      357.20   361.25   374.31   377.64   382.45   382.92
eigval :      386.91   393.27   398.52   406.60   411.94   412.23
eigval :      418.13   421.85   422.11   443.01   444.42   444.47
eigval :      445.90   452.95   461.00   463.51   467.94   469.22
eigval :      471.09   472.08   475.15   501.58   509.57   519.81
eigval :      523.51   526.55   545.51   568.14   571.25   574.92
eigval :      576.47   580.54   581.47   582.42   593.80   597.65
eigval :      600.75   622.60   626.02   629.50   629.79   630.56
eigval :      638.79   639.24   675.80   687.80   687.81   689.01
eigval :      689.59   697.52   702.39   707.64   708.27   719.91
eigval :      720.54   728.72   733.23   737.52   747.77   809.82
eigval :      812.59   819.13   819.23   820.74   823.03   830.43
eigval :      833.02   835.32   840.21   841.78   867.80   870.43
eigval :      873.64   873.92   874.00   876.72   881.22   881.78
eigval :      881.80   888.72   888.84   905.63   906.34   907.88
eigval :      913.05   914.58   916.29   921.75   922.91   923.58
eigval :      924.22   927.78   927.99   934.73   935.24   942.88
eigval :      944.48   959.95   959.99   960.00   960.28   962.30
eigval :      962.41   962.49   962.50   962.50   962.73   962.86
eigval :      963.11   964.09   966.49   986.35  1012.96  1014.74
eigval :     1015.07  1032.56  1035.66  1035.80  1035.83  1035.89
eigval :     1035.93  1036.00  1036.00  1036.79  1040.26  1070.62
eigval :     1078.08  1085.88  1114.82  1117.49  1117.99  1130.82
eigval :     1131.40  1137.42  1138.08  1144.70  1145.19  1159.95
eigval :     1165.05  1175.78  1179.64  1181.67  1191.24  1191.87
eigval :     1214.10  1215.13  1222.97  1224.14  1227.82  1227.96
eigval :     1227.99  1228.02  1228.28  1229.47  1232.78  1232.93
eigval :     1236.15  1237.02  1243.40  1246.82  1250.67  1253.71
eigval :     1260.34  1260.82  1268.57  1269.10  1277.41  1286.33
eigval :     1286.52  1294.25  1299.87  1303.68  1308.30  1310.54
eigval :     1314.88  1316.47  1316.87  1328.45  1347.75  1348.10
eigval :     1361.49  1364.81  1366.77  1380.84  1384.76  1395.84
eigval :     1400.81  1401.56  1404.55  1404.59  1405.33  1405.87
eigval :     1405.93  1405.98  1406.08  1406.59  1411.45  1415.81
eigval :     1416.59  1426.19  1429.33  1429.35  1429.36  1429.55
eigval :     1438.26  1442.53  1442.84  1450.92  1470.86  1475.65
eigval :     1476.10  1476.18  1484.64  1487.60  1489.40  1492.63
eigval :     1492.66  1492.68  1492.76  1495.14  1495.37  1495.53
eigval :     1495.64  1497.94  1501.18  1502.14  1502.50  1502.87
eigval :     1503.09  1503.41  1504.75  1506.05  1506.10  1506.32
eigval :     1506.37  1515.25  1515.76  1515.77  1515.78  1520.94
eigval :     1521.04  1521.11  1521.16  1558.27  1558.80  1571.55
eigval :     1572.82  1574.66  1584.67  1586.48  1587.19  1592.07
eigval :     1596.24  1605.12  1605.34  1605.74  1611.62  1619.81
eigval :     1621.23  3019.52  3019.53  3019.57  3020.04  3021.09
eigval :     3021.12  3021.17  3021.26  3026.40  3026.45  3026.48
eigval :     3026.49  3028.33  3028.41  3028.51  3028.83  3028.92
eigval :     3029.34  3030.56  3030.58  3030.67  3030.74  3032.44
eigval :     3033.41  3035.17  3035.19  3035.32  3035.34  3037.37
eigval :     3037.48  3037.70  3037.82  3038.21  3040.00  3046.82
eigval :     3047.07  3047.25  3047.36  3050.38  3050.54  3050.91
eigval :     3051.03  3073.85  3074.60  3075.08  3076.40  3077.89
eigval :     3079.19  3079.91  3080.34  3080.60  3081.03  3081.90
eigval :     3082.03  3085.56  3086.28  3087.80  3088.38  3089.36
eigval :     3091.26  3092.71  3093.00  3094.00  3094.30  3115.79
eigval :     3117.70  3117.77  3117.85

   temp. (K)  partition function   enthalpy   heat capacity  entropy
                                   cal/mol     cal/K/mol   cal/K/mol   J/K/mol
 298.15  VIB  0.160E+32            39249.854    241.475    245.354
         ROT  0.577E+09              888.752      2.981     43.070
         INT  0.925E+40            40138.607    244.456    288.424
         TR   0.262E+29             1481.254      4.968     46.251
         TOT                       41619.8606   249.4238   334.6752  1400.2808

       T/K    H(0)-H(T)+PV         H(T)/Eh          T*S/Eh         G(T)/Eh
   ------------------------------------------------------------------------
    298.15    0.663255E-01    0.120964E+01    0.159015E+00    0.105062E+01
   ------------------------------------------------------------------------

         :::::::::::::::::::::::::::::::::::::::::::::::::::::
         ::                  THERMODYNAMIC                  ::
         :::::::::::::::::::::::::::::::::::::::::::::::::::::
         :: total free energy        -183.126197017262 Eh   ::
         ::.................................................::
         :: total energy             -184.176820483779 Eh   ::
         :: zero point energy           1.143312962475 Eh   ::
         :: G(RRHO) w/o ZPVE           -0.092689495958 Eh   ::
         :: G(RRHO) contrib.            1.050623466517 Eh   ::
         :::::::::::::::::::::::::::::::::::::::::::::::::::::

           -------------------------------------------------
          | TOTAL ENERGY             -184.176820483779 Eh   |
          | TOTAL ENTHALPY           -182.967182051597 Eh   |
          | TOTAL FREE ENERGY        -183.126197017262 Eh   |
          | GRADIENT NORM               0.000043429470 Eh/α |
          | HOMO-LUMO GAP               2.364314576693 eV   |
           -------------------------------------------------

 * finished run on 2025/08/26 at 09:19:39.809
