   * xtb version 6.7.1 (edcfbbe) compiled by 'albert@albert-system' on 2024-07-22

   ID    Z sym.   atoms
    1    6 C      1-20, 22-41, 43-69
    2    7 N      21, 42
    3    1 H      70-137

          program call               : xtb data2507/gas/F-2CzB/F-2CzB_gas_T1_crest.xyz --gfn 2 --spinpol --tblite --uhf 2 --ohess vtight --parallel 40 --molden --ceasefiles --namespace data2507/gas/F-2CzB/F-2CzB_gas_T1_finalOpt
 * total energy  :  -184.0937962 Eh     change       -0.8294347E-07 Eh
 * total energy  :  -184.0938099 Eh     change       -0.1375699E-04 Eh
 * total energy  :  -184.0938158 Eh     change       -0.5866745E-05 Eh
 * total energy  :  -184.0938177 Eh     change       -0.1929013E-05 Eh
 * total energy  :  -184.0938210 Eh     change       -0.3306507E-05 Eh
 * total energy  :  -184.0938251 Eh     change       -0.4068590E-05 Eh
 * total energy  :  -184.0938282 Eh     change       -0.3083840E-05 Eh
 * total energy  :  -184.0938314 Eh     change       -0.3249309E-05 Eh
 * total energy  :  -184.0938359 Eh     change       -0.4458640E-05 Eh
 * total energy  :  -184.0938418 Eh     change       -0.5947076E-05 Eh
 * total energy  :  -184.0939597 Eh     change       -0.7722630E-06 Eh
 * total energy  :  -184.0939607 Eh     change       -0.1002106E-05 Eh
 * total energy  :  -184.0939615 Eh     change       -0.8236898E-06 Eh
 * total energy  :  -184.0939625 Eh     change       -0.1021426E-05 Eh
 * total energy  :  -184.0939638 Eh     change       -0.1265730E-05 Eh
 * total energy  :  -184.0939650 Eh     change       -0.1175060E-05 Eh
 * total energy  :  -184.0939663 Eh     change       -0.1370310E-05 Eh
 * total energy  :  -184.0939663 Eh     change        0.4567340E-08 Eh
 * total energy  :  -184.0939663 Eh     change       -0.1499748E-07 Eh
   *** GEOMETRY OPTIMIZATION CONVERGED AFTER 95 ITERATIONS ***

 final structure:
================
137
 xtb: 6.7.1 (edcfbbe)
C           11.60829617384656       -4.92240048407151        3.08543317313436
C           11.92834437523180       -4.58551010345193        1.62212082184486
C           13.44050996850601       -4.37652703611988        1.50273808799836
C           11.53872473290743       -5.76482077983925        0.71943385115628
C           11.13349035489011       -3.35689236150940        1.20589801087277
C            9.73388385916042       -3.40636911598380        1.25983018677459
C            8.93067175345738       -2.34638704904733        0.89194446817554
C            9.54577058597643       -1.18836657033295        0.43970650484179
C           10.95428612014737       -1.10120036790649        0.40840782680298
C           11.73803945865736       -2.18244708395555        0.78502495138897
C           11.26939284446389        0.22896552979134       -0.03681035804236
C           12.46751851918101        0.88710134982432       -0.27435358397370
C           12.45461249011528        2.19467217039890       -0.73482684655958
C           13.72823045006882        2.98160263863108       -1.00537445626931
C           13.77240364929705        3.37517650450920       -2.48871401102145
C           14.99386262774680        2.18010165183933       -0.68844130341175
C           13.73440169486587        4.24407753135345       -0.13157351504144
C           11.21679610564635        2.80822797773521       -0.97100073251402
C           10.01080875517873        2.17725492632278       -0.74386028886616
C           10.03583133340194        0.88142678532514       -0.24968085618965
N            8.99903692810208        0.01580138226398        0.03998470050089
C            7.63866393869556        0.30817371282563       -0.04152544586526
C            7.13151317866025        1.50095837085194        0.48696432265048
C            5.79180702062457        1.78280825494429        0.41412847237329
C            4.87462131264802        0.88791986088747       -0.18064308649116
C            3.47019183143163        1.17226657074718       -0.23179903087844
C            2.98651667269652        2.51042879084319       -0.19057073899449
C            1.65781227371860        2.80882174424501       -0.22313569459497
C            0.71156010545479        1.75883706194493       -0.27651719445758
C            1.18327542925938        0.40692667026212       -0.32559847533479
C            2.50965177096144        0.12359224183580       -0.31572764315157
C            0.00900348042830       -0.54747620961045       -0.37319704592295
C            0.00827313396274       -1.48982367326960        0.83460083085200
C            0.00799633285813       -1.35186380985849       -1.67766486728918
C           -1.16321980474989        0.40922998982457       -0.32149469346632
C           -2.48993177429052        0.12865374594649       -0.30747125373479
C           -3.45015393008144        1.18091414875651       -0.26665231812931
C           -4.85588154741274        0.90339875349467       -0.23042849826988
C           -5.81431109181986        1.84519263106288       -0.66831501964513
C           -7.15917167854027        1.58442280130093       -0.61675572816113
C           -7.63030962876175        0.36442861823442       -0.11771968028561
N           -8.99790125268268        0.10463605620406       -0.04746773049400
C           -9.95986851681961        0.95997432982409        0.45409462107299
C           -9.83054398349324        2.21361540103034        1.03330822481715
C          -10.97350616045424        2.83914881355972        1.48764231642382
C          -12.24669337022366        2.26019563136229        1.39717711276670
C          -13.44531185396708        3.03601120068940        1.92253415453458
C          -14.76288980402566        2.27708313251240        1.74185125198772
C          -13.25266129683127        3.30564524906899        3.42171701099740
C          -13.55563978451349        4.36659298235098        1.16450510252282
C          -12.35979876767039        0.99387770185647        0.84429706867042
C          -11.22671718704178        0.34185219665908        0.37938913457120
C          -11.01241703302069       -0.95526575707136       -0.20246318703484
C          -11.86810456824729       -1.99594944178984       -0.53377391762355
C          -11.35915307113230       -3.14560574642426       -1.11800599906787
C          -12.23515127178137       -4.33113583252356       -1.49448077977782
C          -11.74603028465859       -5.57580411543652       -0.74010625984953
C          -12.14026207503050       -4.56932530643740       -3.00819724874407
C          -13.70833691253336       -4.11060078052378       -1.13989588256784
C           -9.98372681639035       -3.21029354161051       -1.37969644630353
C           -9.11050776808812       -2.19025635582504       -1.06172048025028
C           -9.62583431035042       -1.05923262426658       -0.44595912359422
C           -6.69965196872813       -0.58713821140641        0.31559430208459
C           -5.35533952607619       -0.32564858652165        0.25665525458094
C           -2.96279375776695        2.51869933209759       -0.24380720400241
C           -1.63287630416067        2.81268191697118       -0.23890773693563
C           -0.68848758907427        1.76036872911714       -0.27824028030994
C            5.41024130767588       -0.30678521318369       -0.71125734638973
C            6.75076877146132       -0.58748720409323       -0.64862785673277
H           12.18668299472173       -5.78643670085244        3.40610343942866
H           10.55464131404817       -5.15030878634952        3.21970305098796
H           11.85910456657895       -4.08082374346848        3.72790118647595
H           13.95673839342025       -5.28650374354942        1.80229491404265
H           13.77693277193381       -3.57148406443208        2.15196647526678
H           13.72458114848844       -4.15171170271052        0.47726021749738
H           11.74633307335283       -5.52517350168930       -0.32146473225936
H           12.11068527351416       -6.64973483081615        0.99086707464345
H           10.48249509907714       -6.00234011905393        0.80964882199982
H            9.24963423231121       -4.30601493217943        1.60774555834536
H            7.85670367649148       -2.41889998512784        0.97123577648879
H           12.80976010345775       -2.08102161439353        0.74652400944360
H           13.38982264287368        0.35922448640130       -0.09812350189759
H           13.74305823435699        2.48530852955511       -3.11418932963866
H           14.68939983263465        3.91951225780082       -2.70488134776807
H           12.93073061196268        4.00733591298542       -2.75731532417393
H           15.87046649922531        2.79310727985223       -0.88862506905865
H           15.02020106827314        1.88882141797892        0.35909712975226
H           15.05926500233489        1.28956521465543       -1.30926822095007
H           14.64800463977189        4.81097400971591       -0.29849693703680
H           13.68398580029814        3.97230335038198        0.92084888402463
H           12.88928454880707        4.88820105890794       -0.35742653302873
H           11.19125803843916        3.81764460257633       -1.35219519231590
H            9.07997191998586        2.67882987184763       -0.96061220414764
H            7.80277945349239        2.18150211595985        0.98997250973223
H            5.42723568681515        2.68874886489105        0.87293926773972
H            3.70359988599275        3.31763415694570       -0.17356126336269
H            1.32056391642001        3.83486181198245       -0.21003814998707
H            2.84673081288965       -0.90213845838782       -0.32263399789583
H            0.00691194766483       -0.91526611138336        1.75856122342952
H           -0.87490338321558       -2.12451065640888        0.81895303554671
H            0.89213102726796       -2.12354398820068        0.82165761208940
H           -0.87774672202667       -1.98062786462570       -1.73430889183341
H            0.89004699972628       -1.98611607531638       -1.73148453918203
H            0.01114556088590       -0.67933277715106       -2.53296743064577
H           -2.82949672135925       -0.89459627326754       -0.36600489338835
H           -5.48387761209954        2.77730879404394       -1.09971808122638
H           -7.86747935681003        2.30709905493198       -0.99485803351481
H           -8.86611336442134        2.68552226817834        1.14357682295056
H          -10.86714735098571        3.81514955047449        1.93594357546588
H          -14.75315287690032        1.33900037313425        2.29200540085736
H          -15.58393306472095        2.88072465152499        2.12367220462839
H          -14.95614746446210        2.07373767604137        0.69105859520483
H          -14.11158865417725        3.84227948013199        3.81942911451905
H          -13.15133561232648        2.36660906493699        3.96199763481538
H          -12.36374483049017        3.90198636710714        3.60718836594871
H          -13.67180408827168        4.18263438624621        0.09837222006246
H          -14.42025515713497        4.92676918178331        1.51457897838028
H          -12.67175904000076        4.98130390123072        1.30938223762525
H          -13.31040100113865        0.49266370174069        0.77009159200815
H          -12.92008629196768       -1.88323800492151       -0.33135521860127
H          -12.37322751405923       -6.43140679699325       -0.98190573883630
H          -10.72070955606601       -5.82170595365884       -1.00167012556335
H          -11.79237721335580       -5.40604801568367        0.33369413990974
H          -12.77801218742558       -5.40224154080071       -3.29706768766960
H          -11.12282858030147       -4.79956923186655       -3.31146761184137
H          -12.46416322984396       -3.68232410684997       -3.54878314193375
H          -14.28417713156593       -4.99020808532065       -1.42093641293782
H          -14.11678726314852       -3.25744718069682       -1.67661459929895
H          -13.83428916434296       -3.95463053140102       -0.07094442013351
H           -9.57679958014186       -4.08971635811688       -1.85502759237266
H           -8.06109154628801       -2.27149939807698       -1.30090374442107
H           -7.05428493619110       -1.51693520788209        0.73586398448915
H           -4.66788074378241       -1.06111073739556        0.64468814289488
H           -3.67603436075067        3.32694835138057       -0.18201865183849
H           -1.29299592642311        3.83708478338974       -0.19681790196427
H            4.75919102517614       -0.99774448249097       -1.22416675092009
H            7.13874347654451       -1.48899710520119       -1.09989958937765

 projected vibrational frequencies (cm⁻¹)
eigval :       -0.00     0.00     0.00     0.00     0.00     0.00
eigval :        3.72     5.67     7.34    14.53    16.55    21.83
eigval :       24.84    30.44    30.69    33.25    33.32    40.07
eigval :       45.00    53.28    53.55    56.73    69.46    71.63
eigval :       79.37    85.78    86.63    97.08    97.14   101.47
eigval :      109.07   117.95   129.10   129.79   135.29   158.39
eigval :      160.37   161.98   168.30   173.39   176.85   181.76
eigval :      188.87   194.43   195.58   202.22   202.43   210.86
eigval :      217.58   217.94   221.00   221.69   226.27   228.56
eigval :      228.64   231.95   250.68   256.45   258.53   258.69
eigval :      268.31   274.72   276.23   294.10   294.89   304.60
eigval :      309.66   316.78   317.74   317.87   322.20   322.74
eigval :      322.85   337.10   339.22   342.45   349.82   354.26
eigval :      359.40   359.48   361.36   371.49   382.43   385.04
eigval :      386.20   389.46   391.07   399.28   402.21   409.16
eigval :      409.73   420.54   422.56   424.31   441.13   442.12
eigval :      442.25   442.77   444.13   461.53   465.98   466.18
eigval :      466.26   466.50   467.34   495.81   496.43   518.32
eigval :      518.50   529.24   540.81   561.93   564.57   567.18
eigval :      570.29   576.05   581.22   584.65   584.92   593.13
eigval :      594.99   604.64   604.97   614.75   629.27   629.70
eigval :      640.17   640.19   669.78   671.25   672.89   678.74
eigval :      689.01   689.03   691.59   700.47   707.40   707.98
eigval :      719.28   719.54   723.83   731.48   738.20   792.83
eigval :      798.98   808.92   810.93   821.58   821.86   823.49
eigval :      824.15   825.05   831.19   833.41   838.20   846.79
eigval :      855.15   860.13   861.20   870.80   870.95   872.11
eigval :      872.22   873.56   873.56   900.60   902.16   907.58
eigval :      907.78   910.03   910.76   913.88   920.35   921.94
eigval :      922.36   926.24   926.41   927.02   927.76   937.89
eigval :      940.17   949.07   954.22   960.15   960.17   960.23
eigval :      960.24   962.71   962.76   962.87   962.90   962.90
eigval :      962.92   963.13   963.17   963.91   999.97  1000.99
eigval :     1010.76  1030.86  1030.87  1034.88  1035.24  1035.26
eigval :     1035.39  1035.40  1035.56  1035.78  1038.47  1041.44
eigval :     1041.44  1059.92  1087.75  1108.27  1114.98  1129.63
eigval :     1129.76  1136.32  1137.39  1142.10  1143.01  1156.49
eigval :     1159.96  1168.96  1173.18  1173.30  1173.49  1193.12
eigval :     1207.64  1212.84  1216.77  1227.47  1227.48  1227.59
eigval :     1227.60  1229.45  1231.15  1231.20  1231.65  1231.77
eigval :     1235.72  1235.86  1240.48  1243.12  1243.73  1246.10
eigval :     1259.56  1259.71  1260.84  1270.64  1274.05  1283.80
eigval :     1284.19  1290.33  1301.58  1301.90  1302.49  1302.68
eigval :     1312.45  1319.93  1332.73  1333.69  1349.19  1349.56
eigval :     1352.62  1352.74  1359.60  1367.05  1370.62  1376.20
eigval :     1394.72  1402.00  1402.02  1402.30  1404.38  1404.49
eigval :     1405.43  1405.54  1405.55  1405.58  1410.93  1411.50
eigval :     1411.64  1420.04  1427.55  1427.74  1427.84  1427.89
eigval :     1428.02  1430.36  1435.54  1441.48  1461.88  1473.49
eigval :     1473.71  1479.57  1483.20  1483.30  1483.79  1485.80
eigval :     1487.81  1490.13  1490.53  1491.66  1491.73  1491.74
eigval :     1491.84  1494.33  1494.36  1494.43  1494.44  1496.80
eigval :     1497.72  1500.88  1500.96  1501.03  1501.04  1503.99
eigval :     1504.98  1505.02  1505.06  1505.13  1512.75  1514.47
eigval :     1514.53  1514.72  1514.76  1519.94  1519.97  1520.60
eigval :     1520.81  1537.80  1565.58  1565.63  1575.94  1577.45
eigval :     1581.57  1593.05  1593.16  1599.40  1603.38  1607.02
eigval :     1613.68  3021.24  3021.27  3021.37  3021.40  3022.74
eigval :     3022.74  3022.77  3022.80  3025.84  3026.23  3027.00
eigval :     3027.03  3027.04  3027.07  3028.79  3029.53  3029.54
eigval :     3029.68  3029.97  3031.04  3031.10  3031.12  3031.18
eigval :     3032.14  3035.50  3035.54  3035.74  3035.77  3036.59
eigval :     3037.05  3038.22  3038.23  3038.39  3038.54  3047.48
eigval :     3047.60  3047.75  3047.76  3050.80  3050.87  3050.97
eigval :     3051.00  3071.21  3074.43  3077.51  3077.84  3079.40
eigval :     3080.17  3081.32  3081.47  3083.49  3083.75  3083.81
eigval :     3084.04  3086.53  3088.05  3093.88  3094.70  3094.88
eigval :     3095.37  3096.12  3097.46  3097.80  3098.84  3115.07
eigval :     3115.07  3118.45  3118.84

   temp. (K)  partition function   enthalpy   heat capacity  entropy
                                   cal/mol     cal/K/mol   cal/K/mol   J/K/mol
 298.15  VIB  0.225E+32            39530.262    243.291    246.836
         ROT  0.573E+09              888.752      2.981     43.058
         INT  0.129E+41            40419.015    246.272    289.894
         TR   0.262E+29             1481.254      4.968     46.251
         TOT                       41900.2687   251.2398   336.1449  1406.4303

       T/K    H(0)-H(T)+PV         H(T)/Eh          T*S/Eh         G(T)/Eh
   ------------------------------------------------------------------------
    298.15    0.667723E-01    0.120620E+01    0.159713E+00    0.104649E+01
   ------------------------------------------------------------------------

         :::::::::::::::::::::::::::::::::::::::::::::::::::::
         ::                  THERMODYNAMIC                  ::
         :::::::::::::::::::::::::::::::::::::::::::::::::::::
         :: total free energy        -183.047477999352 Eh   ::
         ::.................................................::
         :: total energy             -184.093966339419 Eh   ::
         :: zero point energy           1.139429308493 Eh   ::
         :: G(RRHO) w/o ZPVE           -0.092940968425 Eh   ::
         :: G(RRHO) contrib.            1.046488340067 Eh   ::
         :::::::::::::::::::::::::::::::::::::::::::::::::::::

           -------------------------------------------------
          | TOTAL ENERGY             -184.093966339419 Eh   |
          | TOTAL ENTHALPY           -182.887764702479 Eh   |
          | TOTAL FREE ENERGY        -183.047477999352 Eh   |
          | GRADIENT NORM               0.000073393232 Eh/α |
           -------------------------------------------------

 * finished run on 2025/08/26 at 10:14:46.146
