   * xtb version 6.7.1 (edcfbbe) compiled by 'albert@albert-system' on 2024-07-22

   ID    Z sym.   atoms
    1    8 O      1, 14
    2    6 C      2-13, 16, 18-21, 23, 24
    3    7 N      15, 17
    4   17 Cl     22
    5   16 S      25
    6    1 H      26-34

          program call               : xtb data2507/toluene/CBIQD/CBIQD_toluene_T1_crest.xyz --gfn 2 --uhf 2 --gbsa toluene --ohess vtight --parallel 40 --molden --ceasefiles --namespace data2507/toluene/CBIQD/CBIQD_toluene_T1_finalOpt
      * Solvation model:               GBSA
        Solvent                        toluene
        Solvent mass                       9.2140E+01 g/mol
          :  Hamiltonian                  GFN2-xTB          :
 * total energy  :   -67.0643837 Eh     change        0.2280387E-08 Eh
 * total energy  :   -67.0644718 Eh     change       -0.8803550E-04 Eh
 * total energy  :   -67.0645207 Eh     change       -0.4895806E-04 Eh
 * total energy  :   -67.0645335 Eh     change       -0.1279910E-04 Eh
 * total energy  :   -67.0645476 Eh     change       -0.1409437E-04 Eh
 * total energy  :   -67.0645554 Eh     change       -0.7759647E-05 Eh
 * total energy  :   -67.0645600 Eh     change       -0.4617391E-05 Eh
 * total energy  :   -67.0645626 Eh     change       -0.2622545E-05 Eh
 * total energy  :   -67.0645643 Eh     change       -0.1718620E-05 Eh
 * total energy  :   -67.0645661 Eh     change       -0.1814268E-05 Eh
 * total energy  :   -67.0645732 Eh     change       -0.1222264E-05 Eh
 * total energy  :   -67.0645741 Eh     change       -0.9186627E-06 Eh
 * total energy  :   -67.0645747 Eh     change       -0.6664897E-06 Eh
 * total energy  :   -67.0645752 Eh     change       -0.4764374E-06 Eh
 * total energy  :   -67.0645756 Eh     change       -0.3729114E-06 Eh
 * total energy  :   -67.0645759 Eh     change       -0.2992267E-06 Eh
 * total energy  :   -67.0645761 Eh     change       -0.2375189E-06 Eh
 * total energy  :   -67.0645763 Eh     change       -0.1867771E-06 Eh
 * total energy  :   -67.0645763 Eh     change       -0.1295817E-08 Eh
   *** GEOMETRY OPTIMIZATION CONVERGED AFTER 22 ITERATIONS ***

 final structure:
================
34
 xtb: 6.7.1 (edcfbbe)
O           -0.70680462536786       -2.19381999470168        0.07185895312749
C           -1.41591951326793       -1.17607766261903        0.06972472878560
C           -2.84546128709565       -1.19457218065468        0.01205392880444
C           -3.53054382291764       -2.43659266892205       -0.04298908413402
C           -4.90072042980453       -2.45801235133098       -0.11216698888702
C           -5.63588979099625       -1.26868735044538       -0.14017389413514
C           -4.99361673633253       -0.01827318035553       -0.07677185629491
C           -5.69827892016212        1.19961161303570       -0.08351339467464
C           -5.02242714447069        2.41977631089525       -0.02005550752672
C           -3.65198159922017        2.46122107746076        0.06656094787152
C           -2.90750847547865        1.25570505077904        0.06583255965172
C           -3.57190105182506        0.01661567691409       -0.00269678875965
C           -1.46797424886885        1.32337327821394        0.16848646150511
O           -0.84298749235213        2.36132798724896        0.33735743382321
N           -0.78754705745192        0.07914018811613        0.10130683467768
C            0.58040984922067        0.08777202668898        0.03570945319807
N            1.28720008825637        1.15201844966127       -0.10620668751375
C            2.61793415260194        0.90468670589512       -0.08588688078011
C            3.63281320025084        1.85721644520169       -0.20492840160085
C            4.94342771164362        1.43934175293127       -0.18287343756588
C            5.24819169016588        0.08003075267124       -0.05092450791455
Cl           6.89966698662975       -0.40753117343548       -0.03369999956159
C            4.25883260038841       -0.88706647177453        0.06009514178129
C            2.94261639741412       -0.46678165771120        0.05442986240002
S            1.47565037595549       -1.42623878088017        0.13021885842074
H           -2.94248408336700       -3.34011142957456       -0.02664420609913
H           -5.42126053148100       -3.40287306911093       -0.14938203848408
H           -6.71130292663074       -1.30071233714770       -0.21810454257424
H           -6.77595299215169        1.17996239191273       -0.12833970560879
H           -5.58640287256530        3.33999654208786       -0.03378478368983
H           -3.10971301201775        3.39107033780899        0.12681653299990
H            3.37187887509450        2.89856874830089       -0.29982587327354
H            5.74563729385598        2.15495250421321       -0.26470726773190
H            4.50690446834792       -1.93298933367316        0.14084690896366

          :  Hamiltonian                  GFN2-xTB          :
         :: gradient norm              0.000036270838 Eh/a0 ::
         :: HOMO-LUMO gap              0.677376763668 eV    ::
         :: SCC energy               -68.020102229683 Eh    ::
         :: -> dispersion             -0.048228598659 Eh    ::
         :: -> Gsolv                  -0.032639421927 Eh    ::
         :: repulsion energy           0.955525917422 Eh    ::

    * Orbital Energies and Occupations

         #    Occupation            Energy/Eh            Energy/eV
      -------------------------------------------------------------
         1        2.0000           -1.0754043             -29.2632
       ...           ...                  ...                  ...
        49        2.0000           -0.4577397             -12.4557
        50        2.0000           -0.4527233             -12.3192
        51        2.0000           -0.4495699             -12.2334
        52        2.0000           -0.4410277             -12.0010
        53        2.0000           -0.4371676             -11.8959
        54        2.0000           -0.4343479             -11.8192
        55        2.0000           -0.4273866             -11.6298
        56        2.0000           -0.4240734             -11.5396
        57        2.0000           -0.4164957             -11.3334
        58        1.9964           -0.4115276             -11.1982
        59        1.7038           -0.4070106             -11.0753
        60        1.2998           -0.4053826             -11.0310
        61        1.0000           -0.3233042              -8.7976 (HOMO)
        62        0.0000           -0.2984106              -8.1202 (LUMO)
        63                         -0.2600188              -7.0755
        64                         -0.2593874              -7.0583
        65                         -0.2476868              -6.7399
        66                         -0.2372528              -6.4560
        67                         -0.2242908              -6.1033
        68                         -0.2109410              -5.7400
        69                         -0.1682459              -4.5782
        70                         -0.1630364              -4.4364
        71                         -0.1582746              -4.3069
        72                         -0.1326400              -3.6093
       ...                                ...                  ...
       119                          0.6820613              18.5598
      -------------------------------------------------------------
                  HL-Gap            0.0248936 Eh            0.6774 eV

     #   Z          covCN         q      C6AA      α(0)
     1   8 O        1.108    -0.416    21.873     6.277
     2   6 C        2.795     0.247    22.858     7.832
     3   6 C        2.975    -0.020    28.507     8.758
     4   6 C        2.915    -0.030    28.738     8.791
     5   6 C        2.909    -0.017    28.427     8.743
     6   6 C        2.917    -0.032    28.787     8.798
     7   6 C        2.976     0.023    27.484     8.599
     8   6 C        2.917    -0.031    28.777     8.797
     9   6 C        2.910    -0.017    28.433     8.744
    10   6 C        2.916    -0.029    28.715     8.787
    11   6 C        2.975    -0.021    28.524     8.761
    12   6 C        2.989     0.013    27.721     8.637
    13   6 C        2.777     0.259    22.644     7.794
    14   8 O        0.858    -0.392    21.526     6.221
    15   7 N        2.771    -0.100    23.203     7.154
    16   6 C        2.992     0.206    23.626     7.973
    17   7 N        1.931    -0.217    26.551     7.640
    18   6 C        3.176     0.082    25.801     8.295
    19   6 C        2.914    -0.029    28.725     8.789
    20   6 C        2.955    -0.036    28.900     8.818
    21   6 C        2.891     0.105    25.686     8.309
    22  17 Cl       0.972    -0.126   103.088    15.533
    23   6 C        2.965    -0.040    28.988     8.831
    24   6 C        2.998     0.005    27.903     8.665
    25  16 S        2.462    -0.012   141.534    20.023
    26   1 H        0.926     0.058     2.220     2.330
    27   1 H        0.926     0.061     2.188     2.313
    28   1 H        0.926     0.064     2.158     2.297
    29   1 H        0.926     0.064     2.154     2.295
    30   1 H        0.926     0.062     2.175     2.306
    31   1 H        0.926     0.061     2.192     2.315
    32   1 H        0.926     0.086     1.918     2.166
    33   1 H        0.926     0.086     1.913     2.163
    34   1 H        0.926     0.083     1.950     2.184

molecular dipole:
                 x           y           z       tot (Debye)
 q only:       -1.506       0.298      -0.263
   full:       -1.320       0.097      -0.247       3.423

 projected vibrational frequencies (cm⁻¹)
eigval :       -0.00    -0.00    -0.00     0.00     0.00     0.00
eigval :       23.92    27.83    54.17    68.67    84.42   134.66
eigval :      143.65   162.25   176.90   185.84   193.87   201.95
eigval :      261.51   280.00   308.71   350.76   354.62   363.07
eigval :      364.75   378.52   405.06   408.36   432.33   434.84
eigval :      440.19   474.12   490.11   508.24   512.00   531.08
eigval :      571.68   587.48   616.48   634.81   645.27   654.11
eigval :      666.90   677.61   713.37   719.82   730.77   754.16
eigval :      758.98   780.63   818.34   827.32   838.36   840.79
eigval :      848.70   880.81   901.50   902.24   903.65   941.22
eigval :     1027.22  1037.11  1059.29  1074.83  1104.95  1107.65
eigval :     1119.44  1132.41  1167.70  1177.58  1191.35  1201.99
eigval :     1211.43  1220.94  1257.70  1294.07  1319.66  1338.77
eigval :     1363.78  1367.63  1372.02  1384.05  1396.57  1413.39
eigval :     1420.03  1470.45  1473.54  1487.41  1514.49  1518.80
eigval :     1532.80  1578.92  1603.64  3088.92  3090.59  3099.07
eigval :     3101.77  3108.62  3109.58  3111.40  3112.61  3118.62

   temp. (K)  partition function   enthalpy   heat capacity  entropy
                                   cal/mol     cal/K/mol   cal/K/mol   J/K/mol
 298.15  VIB  0.906E+07            10559.131     69.751     62.850
         ROT  0.131E+08              888.752      2.981     35.544
         INT  0.118E+15            11447.883     72.732     98.394
         TR   0.674E+28             1481.254      4.968     43.556
         TOT                       12929.1372    77.6997   141.9502   593.9196

       T/K    H(0)-H(T)+PV         H(T)/Eh          T*S/Eh         G(T)/Eh
   ------------------------------------------------------------------------
    298.15    0.206039E-01    0.243532E+00    0.674451E-01    0.176087E+00
   ------------------------------------------------------------------------

         :::::::::::::::::::::::::::::::::::::::::::::::::::::
         ::                  THERMODYNAMIC                  ::
         :::::::::::::::::::::::::::::::::::::::::::::::::::::
         :: total free energy         -66.888489190444 Eh   ::
         ::.................................................::
         :: total energy              -67.064576311949 Eh   ::
         :: zero point energy           0.222928341581 Eh   ::
         :: G(RRHO) w/o ZPVE           -0.046841220076 Eh   ::
         :: G(RRHO) contrib.            0.176087121505 Eh   ::
         :::::::::::::::::::::::::::::::::::::::::::::::::::::

           -------------------------------------------------
          | TOTAL ENERGY              -67.064576311949 Eh   |
          | TOTAL ENTHALPY            -66.821044078751 Eh   |
          | TOTAL FREE ENERGY         -66.888489190444 Eh   |
          | GRADIENT NORM               0.000036040845 Eh/α |
          | HOMO-LUMO GAP               0.677388882467 eV   |
           -------------------------------------------------

 * finished run on 2025/08/30 at 23:35:00.119
