   * xtb version 6.7.1 (edcfbbe) compiled by 'albert@albert-system' on 2024-07-22

   ID    Z sym.   atoms
    1    8 O      1, 14
    2    6 C      2-13, 16, 18-21, 23, 24
    3    7 N      15, 17
    4   17 Cl     22
    5   16 S      25
    6    1 H      26-34

          program call               : xtb data2507/toluene/CBIQD/CBIQD_toluene_S0_crest.xyz --gfn 2 --gbsa toluene --ohess vtight --parallel 40 --molden --ceasefiles --namespace data2507/toluene/CBIQD/CBIQD_toluene_S0_finalOpt
      * Solvation model:               GBSA
        Solvent                        toluene
        Solvent mass                       9.2140E+01 g/mol
          :  Hamiltonian                  GFN2-xTB          :
 * total energy  :   -67.1449695 Eh     change       -0.3200668E-08 Eh
 * total energy  :   -67.1450436 Eh     change       -0.7415060E-04 Eh
 * total energy  :   -67.1450663 Eh     change       -0.2269262E-04 Eh
 * total energy  :   -67.1450703 Eh     change       -0.3965523E-05 Eh
 * total energy  :   -67.1450736 Eh     change       -0.3262386E-05 Eh
 * total energy  :   -67.1450773 Eh     change       -0.3750277E-05 Eh
 * total energy  :   -67.1450805 Eh     change       -0.3241413E-05 Eh
 * total energy  :   -67.1450829 Eh     change       -0.2348263E-05 Eh
 * total energy  :   -67.1450848 Eh     change       -0.1924857E-05 Eh
 * total energy  :   -67.1450866 Eh     change       -0.1745779E-05 Eh
 * total energy  :   -67.1450899 Eh     change       -0.6116738E-06 Eh
 * total energy  :   -67.1450906 Eh     change       -0.6562586E-06 Eh
 * total energy  :   -67.1450912 Eh     change       -0.5800857E-06 Eh
 * total energy  :   -67.1450916 Eh     change       -0.4539042E-06 Eh
 * total energy  :   -67.1450920 Eh     change       -0.3290934E-06 Eh
 * total energy  :   -67.1450922 Eh     change       -0.2839454E-06 Eh
 * total energy  :   -67.1450925 Eh     change       -0.2807098E-06 Eh
 * total energy  :   -67.1450928 Eh     change       -0.3208396E-06 Eh
 * total energy  :   -67.1450928 Eh     change       -0.7603077E-08 Eh
   *** GEOMETRY OPTIMIZATION CONVERGED AFTER 22 ITERATIONS ***

 final structure:
================
34
 xtb: 6.7.1 (edcfbbe)
O           -0.75495238303623       -2.21558184193920        0.15737112679130
C           -1.41786199347265       -1.19450949241467        0.09418568803710
C           -2.87196754962145       -1.20376668829886       -0.02970041385398
C           -3.54097515019226       -2.40895027679347       -0.15512564133866
C           -4.92953556705622       -2.43208967026790       -0.30168254580851
C           -5.64698401641409       -1.26206264820171       -0.32144128018351
C           -5.00148408447651       -0.01439511588617       -0.18876617598081
C           -5.70193452704253        1.21033031925485       -0.18843602753531
C           -5.03583794644611        2.40026929531892       -0.03446751063671
C           -3.64863533827611        2.42009950197931        0.12813953046571
C           -2.92507707848349        1.24045381346067        0.12194322199651
C           -3.59120469481244        0.00900734290040       -0.04032330858540
C           -1.47246563510387        1.29195548953209        0.30340239714547
O           -0.87615788037929        2.29597396788369        0.60504353967062
N           -0.78850187811133        0.05539124757492        0.12085598391218
C            0.59840089099479        0.07748824049834        0.06335762581622
N            1.27728563195356        1.12431093047681       -0.21601478026940
C            2.61789059837921        0.88364537303405       -0.19765531651259
C            3.61564480465661        1.82143341425442       -0.45454815230624
C            4.93421377402102        1.42642245415601       -0.39902374193515
C            5.25924205763719        0.10438340140853       -0.09238336838183
Cl           6.92778202374263       -0.35480087883468       -0.03205544694761
C            4.29313759140595       -0.84982043438384        0.16490508390158
C            2.96857324803673       -0.44809516166192        0.11465068487688
S            1.52972299186169       -1.39777156195491        0.35834103466044
H           -2.96828798533634       -3.32414919226238       -0.14278663176475
H           -5.43252915449874       -3.38151794364630       -0.40021861188541
H           -6.72049642822431       -1.28063403117804       -0.43529566992431
H           -6.77492720203960        1.19447960573371       -0.30707385254231
H           -5.57925796234622        3.33237866466671       -0.03349142975740
H           -3.11786380626175        3.35135329009215        0.25709025976056
H            3.34117073315228        2.83689006633228       -0.68889015124517
H            5.72446291397311        2.13438475909991       -0.59165507873599
H            4.55826224861682       -1.86799360353367        0.39941549619645

          :  Hamiltonian                  GFN2-xTB          :
         :: gradient norm              0.000098342687 Eh/a0 ::
         :: HOMO-LUMO gap              1.921191319006 eV    ::
         :: SCC energy               -68.117326751843 Eh    ::
         :: -> dispersion             -0.048031404948 Eh    ::
         :: -> Gsolv                  -0.035875126937 Eh    ::
         :: repulsion energy           0.972233906856 Eh    ::

    * Orbital Energies and Occupations

         #    Occupation            Energy/Eh            Energy/eV
      -------------------------------------------------------------
         1        2.0000           -1.0663233             -29.0161
       ...           ...                  ...                  ...
        48        2.0000           -0.4632156             -12.6047
        49        2.0000           -0.4553070             -12.3895
        50        2.0000           -0.4503858             -12.2556
        51        2.0000           -0.4467218             -12.1559
        52        2.0000           -0.4419125             -12.0251
        53        2.0000           -0.4363818             -11.8746
        54        2.0000           -0.4351834             -11.8419
        55        2.0000           -0.4332972             -11.7906
        56        2.0000           -0.4263720             -11.6022
        57        2.0000           -0.4189542             -11.4003
        58        2.0000           -0.4062444             -11.0545
        59        2.0000           -0.4050378             -11.0216
        60        2.0000           -0.3992820             -10.8650 (HOMO)
        61                         -0.3286795              -8.9438 (LUMO)
        62                         -0.2934103              -7.9841
        63                         -0.2618536              -7.1254
        64                         -0.2569457              -6.9918
        65                         -0.2494760              -6.7886
        66                         -0.2452259              -6.6729
        67                         -0.2148160              -5.8454
        68                         -0.2112579              -5.7486
        69                         -0.1768685              -4.8128
        70                         -0.1670887              -4.5467
        71                         -0.1564051              -4.2560
       ...                                ...                  ...
       119                          0.7074081              19.2496
      -------------------------------------------------------------
                  HL-Gap            0.0706025 Eh            1.9212 eV

     #   Z          covCN         q      C6AA      α(0)
     1   8 O        0.969    -0.388    21.386     6.203
     2   6 C        2.783     0.276    22.343     7.742
     3   6 C        2.975    -0.027    28.673     8.784
     4   6 C        2.922    -0.005    28.136     8.699
     5   6 C        2.913    -0.020    28.501     8.754
     6   6 C        2.918    -0.015    28.383     8.736
     7   6 C        2.983     0.027    27.390     8.585
     8   6 C        2.918    -0.016    28.400     8.739
     9   6 C        2.913    -0.019    28.489     8.752
    10   6 C        2.923    -0.004    28.134     8.698
    11   6 C        2.975    -0.028    28.697     8.787
    12   6 C        2.995     0.013    27.721     8.637
    13   6 C        2.772     0.281    22.244     7.724
    14   8 O        0.858    -0.375    21.187     6.171
    15   7 N        2.761    -0.114    23.482     7.197
    16   6 C        2.992     0.204    23.675     7.982
    17   7 N        1.926    -0.257    27.541     7.781
    18   6 C        3.202     0.076    25.761     8.269
    19   6 C        2.916    -0.036    28.902     8.816
    20   6 C        2.954    -0.042    29.039     8.839
    21   6 C        2.893     0.096    25.870     8.339
    22  17 Cl       0.969    -0.182   104.876    15.667
    23   6 C        2.967    -0.048    29.179     8.860
    24   6 C        2.999     0.011    27.752     8.642
    25  16 S        2.329    -0.065   143.764    20.180
    26   1 H        0.926     0.072     2.058     2.243
    27   1 H        0.926     0.071     2.070     2.250
    28   1 H        0.926     0.077     2.006     2.215
    29   1 H        0.926     0.077     2.009     2.217
    30   1 H        0.926     0.072     2.066     2.248
    31   1 H        0.926     0.074     2.046     2.237
    32   1 H        0.926     0.074     2.044     2.236
    33   1 H        0.926     0.073     2.054     2.241
    34   1 H        0.926     0.067     2.115     2.274

molecular dipole:
                 x           y           z       tot (Debye)
 q only:       -4.525       0.245      -0.524
   full:       -4.208       0.011      -0.489      10.767

 projected vibrational frequencies (cm⁻¹)
eigval :       -0.00    -0.00    -0.00     0.00     0.00     0.00
eigval :       15.58    24.32    45.09    69.44    78.97   132.44
eigval :      137.11   164.73   180.92   195.49   199.13   203.74
eigval :      256.75   282.63   325.22   362.68   369.27   374.27
eigval :      377.52   395.09   409.44   418.27   425.13   443.44
eigval :      492.65   500.56   517.64   519.78   542.76   570.45
eigval :      578.67   596.01   623.54   648.43   679.24   680.50
eigval :      682.30   693.26   725.81   744.04   764.46   785.53
eigval :      786.02   819.82   823.70   850.27   865.04   885.34
eigval :      906.06   906.86   913.88   926.64   932.17   948.28
eigval :     1045.40  1054.89  1069.75  1095.34  1109.99  1127.92
eigval :     1140.56  1161.57  1180.36  1183.96  1203.00  1210.51
eigval :     1219.42  1243.47  1266.88  1296.80  1330.85  1349.49
eigval :     1361.80  1388.45  1390.47  1414.09  1428.88  1441.76
eigval :     1504.75  1539.86  1542.87  1554.81  1576.29  1590.59
eigval :     1600.69  1648.77  1711.81  3089.17  3091.29  3096.08
eigval :     3096.91  3105.39  3106.27  3106.56  3109.84  3117.89

   temp. (K)  partition function   enthalpy   heat capacity  entropy
                                   cal/mol     cal/K/mol   cal/K/mol   J/K/mol
 298.15  VIB  0.143E+08            10299.926     67.545     61.841
         ROT  0.131E+08              888.752      2.981     35.555
         INT  0.187E+15            11188.679     70.526     97.396
         TR   0.674E+28             1481.254      4.968     43.556
         TOT                       12669.9327    75.4944   140.9522   589.7441

       T/K    H(0)-H(T)+PV         H(T)/Eh          T*S/Eh         G(T)/Eh
   ------------------------------------------------------------------------
    298.15    0.201908E-01    0.247328E+00    0.669710E-01    0.180357E+00
   ------------------------------------------------------------------------

         :::::::::::::::::::::::::::::::::::::::::::::::::::::
         ::                  THERMODYNAMIC                  ::
         :::::::::::::::::::::::::::::::::::::::::::::::::::::
         :: total free energy         -66.964735481136 Eh   ::
         ::.................................................::
         :: total energy              -67.145092851481 Eh   ::
         :: zero point energy           0.227137501087 Eh   ::
         :: G(RRHO) w/o ZPVE           -0.046780130741 Eh   ::
         :: G(RRHO) contrib.            0.180357370345 Eh   ::
         :::::::::::::::::::::::::::::::::::::::::::::::::::::

           -------------------------------------------------
          | TOTAL ENERGY              -67.145092851481 Eh   |
          | TOTAL ENTHALPY            -66.897764527516 Eh   |
          | TOTAL FREE ENERGY         -66.964735481136 Eh   |
          | GRADIENT NORM               0.000098340911 Eh/α |
          | HOMO-LUMO GAP               1.921191024009 eV   |
           -------------------------------------------------

 * finished run on 2025/08/30 at 23:33:11.951
