   * xtb version 6.7.1 (edcfbbe) compiled by 'albert@albert-system' on 2024-07-22

   ID    Z sym.   atoms
    1    8 O      1, 14
    2    6 C      2-13, 16, 18-21, 23, 24
    3    7 N      15, 17
    4   17 Cl     22
    5   16 S      25
    6    1 H      26-34

          program call               : xtb data2507/toluene/CBIQD/CBIQD_toluene_S0_finalOpt.xtbopt.xyz --gfn 2 --uhf 2 --gbsa toluene --ohess vtight --parallel 40 --molden --ceasefiles --namespace data2507/toluene/CBIQD/CBIQD_toluene_T1_preOpt
      * Solvation model:               GBSA
        Solvent                        toluene
        Solvent mass                       9.2140E+01 g/mol
          :  Hamiltonian                  GFN2-xTB          :
 * total energy  :   -67.0583290 Eh     change       -0.2882544E-08 Eh
 * total energy  :   -67.0628755 Eh     change       -0.4546585E-02 Eh
 * total energy  :   -67.0640550 Eh     change       -0.1179420E-02 Eh
 * total energy  :   -67.0641819 Eh     change       -0.1269082E-03 Eh
 * total energy  :   -67.0642636 Eh     change       -0.8175322E-04 Eh
 * total energy  :   -67.0643058 Eh     change       -0.4220579E-04 Eh
 * total energy  :   -67.0643480 Eh     change       -0.4218255E-04 Eh
 * total energy  :   -67.0643875 Eh     change       -0.3948387E-04 Eh
 * total energy  :   -67.0644211 Eh     change       -0.3361740E-04 Eh
 * total energy  :   -67.0644460 Eh     change       -0.2491008E-04 Eh
 * total energy  :   -67.0645782 Eh     change       -0.1274252E-06 Eh
 * total energy  :   -67.0645783 Eh     change       -0.1175096E-06 Eh
 * total energy  :   -67.0645784 Eh     change       -0.1352732E-06 Eh
 * total energy  :   -67.0645786 Eh     change       -0.1522955E-06 Eh
 * total energy  :   -67.0645787 Eh     change       -0.1623053E-06 Eh
 * total energy  :   -67.0645789 Eh     change       -0.1659338E-06 Eh
 * total energy  :   -67.0645791 Eh     change       -0.1603821E-06 Eh
 * total energy  :   -67.0645792 Eh     change       -0.1346796E-06 Eh
 * total energy  :   -67.0645793 Eh     change       -0.7393299E-07 Eh
   *** GEOMETRY OPTIMIZATION CONVERGED AFTER 39 ITERATIONS ***

 final structure:
================
34
 xtb: 6.7.1 (edcfbbe)
O           -0.71049926010874       -2.19863381307882        0.02636836707794
C           -1.41980577546918       -1.18106156658826        0.02658578427181
C           -2.84905308746324       -1.19920389629123       -0.03883490386694
C           -3.53380134034288       -2.44088652764696       -0.10474389496915
C           -4.90350582574969       -2.46189380546853       -0.18307263591095
C           -5.63844268632497       -1.27241134132709       -0.21013083050410
C           -4.99661514680223       -0.02237015599639       -0.13566837766601
C           -5.70123129168854        1.19555018272065       -0.14077735597401
C           -5.02587115164360        2.41536341977511       -0.06620899676983
C           -3.65605398073232        2.45631423807116        0.03012077608376
C           -2.91159219317796        1.25081111966985        0.02776436335474
C           -3.57542963628958        0.01206368816228       -0.05178097654312
C           -1.47273776689726        1.31781085114941        0.13966992642339
O           -0.84879091393460        2.35447672138711        0.31990921601703
N           -0.79185217736801        0.07409961581263        0.06750546628885
C            0.57610903650784        0.08380142970006        0.00322103673503
N            1.28213797920382        1.14938901202299       -0.13275465857651
C            2.61294300321002        0.90260010843542       -0.11607521743911
C            3.62701867878796        1.85642886626110       -0.23176657225705
C            4.93786233946485        1.43911684929562       -0.21599943301485
C            5.24361410083136        0.07907759231722       -0.09368557398239
Cl           6.89535365877881       -0.40778679916361       -0.08495048636714
C            4.25507388065575       -0.88918002639236        0.01446755616761
C            2.93861465276331       -0.46958542372353        0.01507574526109
S            1.47227117062377       -1.43016523971858        0.08802100937463
H           -2.94588470003865       -3.34451326394409       -0.08924805592887
H           -5.42377789910142       -3.40652898716974       -0.22870987743921
H           -6.71325307773475       -1.30396654878607       -0.29618832686801
H           -6.77857242675269        1.17616225813852       -0.19308026799315
H           -5.58974960031784        3.33565091212426       -0.07910160226264
H           -3.11422456263676        3.38580825277253        0.09912920903397
H            3.36515123837585        2.89818225423761       -0.31949469078403
H            5.73950523788113        2.15559879388944       -0.29574066673591
H            4.50396171283199       -1.93544715030587        0.08794049154362

          :  Hamiltonian                  GFN2-xTB          :
         :: gradient norm              0.000023345778 Eh/a0 ::
         :: HOMO-LUMO gap              0.677156061162 eV    ::
         :: SCC energy               -68.020096970838 Eh    ::
         :: -> dispersion             -0.048228495446 Eh    ::
         :: -> Gsolv                  -0.032652586228 Eh    ::
         :: repulsion energy           0.955517693680 Eh    ::

    * Orbital Energies and Occupations

         #    Occupation            Energy/Eh            Energy/eV
      -------------------------------------------------------------
         1        2.0000           -1.0754212             -29.2637
       ...           ...                  ...                  ...
        49        2.0000           -0.4577431             -12.4558
        50        2.0000           -0.4527211             -12.3192
        51        2.0000           -0.4495739             -12.2335
        52        2.0000           -0.4410398             -12.0013
        53        2.0000           -0.4371719             -11.8961
        54        2.0000           -0.4343285             -11.8187
        55        2.0000           -0.4273856             -11.6298
        56        2.0000           -0.4240854             -11.5400
        57        2.0000           -0.4165056             -11.3337
        58        1.9965           -0.4115569             -11.1990
        59        1.7066           -0.4070201             -11.0756
        60        1.2969           -0.4053660             -11.0306
        61        1.0000           -0.3232960              -8.7973 (HOMO)
        62        0.0000           -0.2984111              -8.1202 (LUMO)
        63                         -0.2600356              -7.0759
        64                         -0.2594013              -7.0587
        65                         -0.2476896              -6.7400
        66                         -0.2372559              -6.4561
        67                         -0.2242922              -6.1033
        68                         -0.2109729              -5.7409
        69                         -0.1682731              -4.5789
        70                         -0.1630657              -4.4372
        71                         -0.1582791              -4.3070
        72                         -0.1326572              -3.6098
       ...                                ...                  ...
       119                          0.6820477              18.5595
      -------------------------------------------------------------
                  HL-Gap            0.0248849 Eh            0.6772 eV

     #   Z          covCN         q      C6AA      α(0)
     1   8 O        1.107    -0.416    21.875     6.277
     2   6 C        2.795     0.247    22.857     7.832
     3   6 C        2.975    -0.020    28.507     8.758
     4   6 C        2.915    -0.030    28.738     8.791
     5   6 C        2.909    -0.017    28.427     8.743
     6   6 C        2.917    -0.032    28.787     8.798
     7   6 C        2.976     0.023    27.484     8.599
     8   6 C        2.917    -0.031    28.777     8.797
     9   6 C        2.910    -0.017    28.433     8.744
    10   6 C        2.916    -0.029    28.715     8.787
    11   6 C        2.975    -0.021    28.525     8.761
    12   6 C        2.989     0.013    27.721     8.637
    13   6 C        2.777     0.259    22.644     7.794
    14   8 O        0.858    -0.392    21.525     6.220
    15   7 N        2.771    -0.100    23.203     7.154
    16   6 C        2.992     0.206    23.625     7.973
    17   7 N        1.931    -0.217    26.555     7.641
    18   6 C        3.176     0.082    25.800     8.295
    19   6 C        2.914    -0.029    28.725     8.789
    20   6 C        2.955    -0.036    28.900     8.817
    21   6 C        2.891     0.105    25.686     8.309
    22  17 Cl       0.972    -0.126   103.085    15.533
    23   6 C        2.965    -0.040    28.988     8.831
    24   6 C        2.998     0.005    27.902     8.665
    25  16 S        2.461    -0.012   141.537    20.023
    26   1 H        0.926     0.058     2.220     2.330
    27   1 H        0.926     0.061     2.188     2.313
    28   1 H        0.926     0.064     2.158     2.297
    29   1 H        0.926     0.064     2.154     2.295
    30   1 H        0.926     0.062     2.175     2.306
    31   1 H        0.926     0.061     2.192     2.315
    32   1 H        0.926     0.086     1.918     2.166
    33   1 H        0.926     0.086     1.913     2.163
    34   1 H        0.926     0.083     1.950     2.184

molecular dipole:
                 x           y           z       tot (Debye)
 q only:       -1.504       0.300      -0.279
   full:       -1.317       0.100      -0.264       3.425

 projected vibrational frequencies (cm⁻¹)
eigval :       -0.00    -0.00    -0.00     0.00     0.00     0.00
eigval :       25.79    41.00    54.88    69.13    85.18   135.81
eigval :      144.23   162.42   177.75   186.52   193.96   202.93
eigval :      261.47   279.97   308.76   351.03   354.72   362.94
eigval :      364.40   378.50   405.09   408.42   433.48   434.92
eigval :      441.03   474.92   490.31   508.35   512.01   536.65
eigval :      571.71   587.55   616.51   634.98   645.52   654.38
eigval :      667.06   683.23   714.57   719.95   731.22   754.21
eigval :      759.39   780.63   818.93   827.68   838.37   840.96
eigval :      848.78   880.88   900.71   902.37   903.85   941.20
eigval :     1027.40  1037.11  1059.33  1075.06  1105.17  1107.61
eigval :     1119.53  1132.57  1167.65  1177.62  1191.38  1202.14
eigval :     1211.61  1221.18  1257.65  1294.44  1320.31  1338.91
eigval :     1363.87  1367.89  1372.04  1384.04  1396.63  1413.53
eigval :     1420.04  1470.48  1473.50  1487.49  1514.81  1519.07
eigval :     1532.90  1578.86  1603.66  3088.98  3090.58  3099.03
eigval :     3101.70  3108.63  3109.58  3111.42  3112.62  3118.60

   temp. (K)  partition function   enthalpy   heat capacity  entropy
                                   cal/mol     cal/K/mol   cal/K/mol   J/K/mol
 298.15  VIB  0.563E+07            10525.001     69.963     62.602
         ROT  0.131E+08              888.752      2.981     35.545
         INT  0.736E+14            11413.754     72.944     98.146
         TR   0.674E+28             1481.254      4.968     43.556
         TOT                       12895.0076    77.9117   141.7021   592.8816

       T/K    H(0)-H(T)+PV         H(T)/Eh          T*S/Eh         G(T)/Eh
   ------------------------------------------------------------------------
    298.15    0.205495E-01    0.243577E+00    0.673272E-01    0.176250E+00
   ------------------------------------------------------------------------

         :::::::::::::::::::::::::::::::::::::::::::::::::::::
         ::                  THERMODYNAMIC                  ::
         :::::::::::::::::::::::::::::::::::::::::::::::::::::
         :: total free energy         -66.888329360166 Eh   ::
         ::.................................................::
         :: total energy              -67.064579277896 Eh   ::
         :: zero point energy           0.223027653599 Eh   ::
         :: G(RRHO) w/o ZPVE           -0.046777735869 Eh   ::
         :: G(RRHO) contrib.            0.176249917730 Eh   ::
         :::::::::::::::::::::::::::::::::::::::::::::::::::::

           -------------------------------------------------
          | TOTAL ENERGY              -67.064579277896 Eh   |
          | TOTAL ENTHALPY            -66.821002121586 Eh   |
          | TOTAL FREE ENERGY         -66.888329360166 Eh   |
          | GRADIENT NORM               0.000023762000 Eh/α |
          | HOMO-LUMO GAP               0.677152308474 eV   |
           -------------------------------------------------

 * finished run on 2025/08/30 at 23:33:14.286
