   * xtb version 6.7.1 (edcfbbe) compiled by 'albert@albert-system' on 2024-07-22

   ID    Z sym.   atoms
    1    8 O      1, 14
    2    6 C      2-13, 16, 18-21, 23, 24
    3    7 N      15, 17
    4   17 Cl     22
    5   16 S      25
    6    1 H      26-34

          program call               : xtb data2507/toluene/CBIQD/CBIQD.xyz --gfn 2 --gbsa toluene --ohess vtight --parallel 40 --molden --ceasefiles --namespace data2507/toluene/CBIQD/CBIQD_toluene_S0_preOpt
      * Solvation model:               GBSA
        Solvent                        toluene
        Solvent mass                       9.2140E+01 g/mol
          :  Hamiltonian                  GFN2-xTB          :
 * total energy  :   -67.1263015 Eh     change       -0.1540101E-08 Eh
 * total energy  :   -67.1393447 Eh     change       -0.1304323E-01 Eh
 * total energy  :   -67.1432701 Eh     change       -0.3925418E-02 Eh
 * total energy  :   -67.1437669 Eh     change       -0.4967639E-03 Eh
 * total energy  :   -67.1440817 Eh     change       -0.3147838E-03 Eh
 * total energy  :   -67.1442144 Eh     change       -0.1327279E-03 Eh
 * total energy  :   -67.1443685 Eh     change       -0.1541432E-03 Eh
 * total energy  :   -67.1444748 Eh     change       -0.1062792E-03 Eh
 * total energy  :   -67.1445745 Eh     change       -0.9962359E-04 Eh
 * total energy  :   -67.1446343 Eh     change       -0.5986360E-04 Eh
 * total energy  :   -67.1451130 Eh     change       -0.3796042E-06 Eh
 * total energy  :   -67.1451133 Eh     change       -0.2241783E-06 Eh
 * total energy  :   -67.1451134 Eh     change       -0.1855119E-06 Eh
 * total energy  :   -67.1451136 Eh     change       -0.1911314E-06 Eh
 * total energy  :   -67.1451138 Eh     change       -0.2110524E-06 Eh
 * total energy  :   -67.1451141 Eh     change       -0.2094169E-06 Eh
 * total energy  :   -67.1451143 Eh     change       -0.2028213E-06 Eh
 * total energy  :   -67.1451145 Eh     change       -0.1963197E-06 Eh
 * total energy  :   -67.1451145 Eh     change       -0.2139814E-08 Eh
   *** GEOMETRY OPTIMIZATION CONVERGED AFTER 44 ITERATIONS ***

 final structure:
================
34
 xtb: 6.7.1 (edcfbbe)
O            0.00731108248505       -2.38787816258166       -0.20594642661299
C           -0.58815611058821       -1.32595993622258       -0.14674612509118
C           -2.03998843013451       -1.23984341181074       -0.02525705288428
C           -2.78578960109087       -2.39791421409214        0.11007886661952
C           -4.17360467283252       -2.33001034864951        0.24959316864836
C           -4.81445190853263       -1.11619024438030        0.25157185991091
C           -4.08930304716610        0.08574685168133        0.10874946859526
C           -4.70968706619772        1.35277868085001        0.09001025043693
C           -3.96768851559507        2.49582989205566       -0.07198902226793
C           -2.58087022697580        2.42486645989837       -0.22331466693116
C           -1.93462492748511        1.20133697290238       -0.19967948841664
C           -2.67953232896179        0.01684204891259       -0.03043313004394
C           -0.48026242453068        1.15796163354086       -0.36866183824476
O            0.18231276708346        2.12014146983729       -0.66892776770953
N            0.12075999243331       -0.11936617436777       -0.17717871741805
C            1.50625060152407       -0.18698217063156       -0.11893941973299
N            2.25004700157413        0.81152682418056        0.17152106243628
C            3.57272902478546        0.48768629828228        0.14460587311752
C            4.62746088324274        1.35858921616352        0.40852873402711
C            5.91882710444916        0.88388552056011        0.34067978335493
C            6.16006245868919       -0.45149512025717        0.01500451594105
Cl           7.79684233888437       -1.01139208762782       -0.06153770613896
C            5.13572735265649       -1.34097518502440       -0.24918570083274
C            3.83864661203038       -0.85917145958661       -0.18632979951169
S            2.34220836239545       -1.71418317889374       -0.43399552999372
H           -2.27323821798671       -3.34817374171795        0.10997535968280
H           -4.73708014835154       -3.24389102800890        0.35622253267515
H           -5.88755750724834       -1.06472962426033        0.35886535550758
H           -5.78227017539760        1.40665500476650        0.20083915022851
H           -4.45019806558100        3.46081327143665       -0.08730276426025
H           -1.99032113696241        3.31866134340200       -0.35725652596839
H            4.41646150687682        2.38578422634016        0.65702560778707
H            6.75203732366171        1.53917830952429        0.53828078783434
H            5.33694109884695       -2.37012493621952       -0.49887069474422

          :  Hamiltonian                  GFN2-xTB          :
         :: gradient norm              0.000049134337 Eh/a0 ::
         :: HOMO-LUMO gap              1.924090038552 eV    ::
         :: SCC energy               -68.117380580681 Eh    ::
         :: -> dispersion             -0.048031868125 Eh    ::
         :: -> Gsolv                  -0.035901804417 Eh    ::
         :: repulsion energy           0.972266126315 Eh    ::

    * Orbital Energies and Occupations

         #    Occupation            Energy/Eh            Energy/eV
      -------------------------------------------------------------
         1        2.0000           -1.0663578             -29.0171
       ...           ...                  ...                  ...
        48        2.0000           -0.4631840             -12.6039
        49        2.0000           -0.4552727             -12.3886
        50        2.0000           -0.4505198             -12.2593
        51        2.0000           -0.4467111             -12.1556
        52        2.0000           -0.4419642             -12.0265
        53        2.0000           -0.4363531             -11.8738
        54        2.0000           -0.4352577             -11.8440
        55        2.0000           -0.4332641             -11.7897
        56        2.0000           -0.4265192             -11.6062
        57        2.0000           -0.4189198             -11.3994
        58        2.0000           -0.4064651             -11.0605
        59        2.0000           -0.4050936             -11.0232
        60        2.0000           -0.3993557             -10.8670 (HOMO)
        61                         -0.3286467              -8.9429 (LUMO)
        62                         -0.2934015              -7.9839
        63                         -0.2618360              -7.1249
        64                         -0.2570904              -6.9958
        65                         -0.2495656              -6.7910
        66                         -0.2452009              -6.6723
        67                         -0.2149309              -5.8486
        68                         -0.2116613              -5.7596
        69                         -0.1769275              -4.8144
        70                         -0.1670447              -4.5455
        71                         -0.1564664              -4.2577
       ...                                ...                  ...
       119                          0.7073887              19.2490
      -------------------------------------------------------------
                  HL-Gap            0.0707090 Eh            1.9241 eV

     #   Z          covCN         q      C6AA      α(0)
     1   8 O        0.964    -0.389    21.401     6.205
     2   6 C        2.783     0.276    22.341     7.742
     3   6 C        2.975    -0.027    28.674     8.784
     4   6 C        2.922    -0.005    28.136     8.699
     5   6 C        2.913    -0.020    28.501     8.754
     6   6 C        2.918    -0.015    28.383     8.736
     7   6 C        2.983     0.027    27.390     8.585
     8   6 C        2.918    -0.016    28.401     8.739
     9   6 C        2.913    -0.019    28.489     8.752
    10   6 C        2.923    -0.004    28.135     8.698
    11   6 C        2.974    -0.028    28.697     8.787
    12   6 C        2.995     0.013    27.721     8.637
    13   6 C        2.772     0.281    22.244     7.724
    14   8 O        0.858    -0.376    21.201     6.173
    15   7 N        2.761    -0.114    23.486     7.198
    16   6 C        2.992     0.204    23.673     7.981
    17   7 N        1.926    -0.257    27.536     7.781
    18   6 C        3.203     0.076    25.756     8.268
    19   6 C        2.916    -0.036    28.901     8.816
    20   6 C        2.954    -0.042    29.039     8.839
    21   6 C        2.893     0.096    25.869     8.339
    22  17 Cl       0.969    -0.182   104.870    15.667
    23   6 C        2.967    -0.048    29.179     8.860
    24   6 C        2.999     0.012    27.746     8.641
    25  16 S        2.324    -0.065   143.753    20.180
    26   1 H        0.926     0.072     2.059     2.244
    27   1 H        0.926     0.071     2.070     2.250
    28   1 H        0.926     0.077     2.006     2.215
    29   1 H        0.926     0.077     2.009     2.217
    30   1 H        0.926     0.072     2.066     2.248
    31   1 H        0.926     0.074     2.046     2.237
    32   1 H        0.926     0.074     2.043     2.235
    33   1 H        0.926     0.073     2.053     2.241
    34   1 H        0.926     0.067     2.114     2.274

molecular dipole:
                 x           y           z       tot (Debye)
 q only:       -4.489       0.537       0.511
   full:       -4.189       0.284       0.475      10.739

 projected vibrational frequencies (cm⁻¹)
eigval :       -0.00    -0.00    -0.00     0.00     0.00     0.00
eigval :       17.86    27.53    45.80    70.82    78.65   133.21
eigval :      138.57   165.71   181.65   195.61   198.72   203.09
eigval :      255.94   282.95   324.95   362.48   369.85   374.50
eigval :      377.85   395.30   409.05   418.78   425.56   443.11
eigval :      492.93   500.58   517.42   519.48   542.74   571.11
eigval :      579.18   595.99   623.31   648.49   679.22   680.97
eigval :      682.29   693.14   725.86   744.66   764.09   785.32
eigval :      785.47   820.53   822.92   850.11   865.61   885.20
eigval :      906.58   907.10   914.05   926.00   930.54   948.36
eigval :     1044.19  1054.59  1069.89  1094.36  1108.81  1126.27
eigval :     1138.29  1160.46  1178.96  1182.70  1202.57  1209.38
eigval :     1219.01  1243.29  1266.55  1297.06  1330.70  1349.49
eigval :     1361.55  1387.93  1390.08  1414.10  1428.84  1441.53
eigval :     1504.65  1539.89  1542.84  1554.90  1576.25  1590.62
eigval :     1601.05  1649.50  1711.28  3088.63  3090.57  3096.34
eigval :     3097.00  3105.07  3105.83  3105.90  3110.09  3117.32

   temp. (K)  partition function   enthalpy   heat capacity  entropy
                                   cal/mol     cal/K/mol   cal/K/mol   J/K/mol
 298.15  VIB  0.107E+08            10287.035     67.615     61.591
         ROT  0.131E+08              888.752      2.981     35.554
         INT  0.140E+15            11175.787     70.596     97.145
         TR   0.674E+28             1481.254      4.968     43.556
         TOT                       12657.0409    75.5641   140.7009   588.6927

       T/K    H(0)-H(T)+PV         H(T)/Eh          T*S/Eh         G(T)/Eh
   ------------------------------------------------------------------------
    298.15    0.201703E-01    0.247292E+00    0.668516E-01    0.180441E+00
   ------------------------------------------------------------------------

         :::::::::::::::::::::::::::::::::::::::::::::::::::::
         ::                  THERMODYNAMIC                  ::
         :::::::::::::::::::::::::::::::::::::::::::::::::::::
         :: total free energy         -66.964673537393 Eh   ::
         ::.................................................::
         :: total energy              -67.145114451479 Eh   ::
         :: zero point energy           0.227122190547 Eh   ::
         :: G(RRHO) w/o ZPVE           -0.046681276461 Eh   ::
         :: G(RRHO) contrib.            0.180440914087 Eh   ::
         :::::::::::::::::::::::::::::::::::::::::::::::::::::

           -------------------------------------------------
          | TOTAL ENERGY              -67.145114451479 Eh   |
          | TOTAL ENTHALPY            -66.897821982376 Eh   |
          | TOTAL FREE ENERGY         -66.964673537393 Eh   |
          | GRADIENT NORM               0.000049130816 Eh/α |
          | HOMO-LUMO GAP               1.924089768532 eV   |
           -------------------------------------------------

 * finished run on 2025/08/30 at 23:31:45.827
