   * xtb version 6.7.1 (edcfbbe) compiled by 'albert@albert-system' on 2024-07-22

   ID    Z sym.   atoms
    1    8 O      1
    2    6 C      2-12, 14-26, 28-46
    3    7 N      13, 27
    4    1 H      47-76

          program call               : xtb data2507/toluene/3TCPM/3TCPM_toluene_S0_finalOpt.xtbopt.xyz --gfn 2 --uhf 2 --gbsa toluene --ohess vtight --parallel 40 --molden --ceasefiles --namespace data2507/toluene/3TCPM/3TCPM_toluene_T1_preOpt
      * Solvation model:               GBSA
        Solvent                        toluene
        Solvent mass                       9.2140E+01 g/mol
          :  Hamiltonian                  GFN2-xTB          :
 * total energy  :  -117.2708732 Eh     change       -0.2004741E-07 Eh
 * total energy  :  -117.2745050 Eh     change       -0.3631840E-02 Eh
 * total energy  :  -117.2755881 Eh     change       -0.1083046E-02 Eh
 * total energy  :  -117.2757932 Eh     change       -0.2051802E-03 Eh
 * total energy  :  -117.2759818 Eh     change       -0.1885105E-03 Eh
 * total energy  :  -117.2761332 Eh     change       -0.1514595E-03 Eh
 * total energy  :  -117.2762929 Eh     change       -0.1597260E-03 Eh
 * total energy  :  -117.2764005 Eh     change       -0.1075896E-03 Eh
 * total energy  :  -117.2764608 Eh     change       -0.6022882E-04 Eh
 * total energy  :  -117.2765189 Eh     change       -0.5815570E-04 Eh
 * total energy  :  -117.2769023 Eh     change       -0.4201664E-06 Eh
 * total energy  :  -117.2769027 Eh     change       -0.3926081E-06 Eh
 * total energy  :  -117.2769031 Eh     change       -0.3358893E-06 Eh
 * total energy  :  -117.2769033 Eh     change       -0.2051668E-06 Eh
 * total energy  :  -117.2769034 Eh     change       -0.1319273E-06 Eh
 * total energy  :  -117.2769035 Eh     change       -0.1195848E-06 Eh
 * total energy  :  -117.2769036 Eh     change       -0.1134821E-06 Eh
 * total energy  :  -117.2769037 Eh     change       -0.1022041E-06 Eh
 * total energy  :  -117.2769038 Eh     change       -0.9976728E-07 Eh
   *** GEOMETRY OPTIMIZATION CONVERGED AFTER 66 ITERATIONS ***

 final structure:
================
76
 xtb: 6.7.1 (edcfbbe)
O            7.41433884795396        3.16518659107928        1.25127779160785
C            7.52050542596002        2.06376288738718        0.62268332937530
C            8.80598391285493        1.70400146393864        0.01739939199021
C            9.25669205056753        0.37965359719213       -0.06574996238973
C           10.49607959547710        0.09443571436262       -0.60070101212641
C           11.32136853091398        1.11354637189593       -1.05621385627820
C           10.90073165475640        2.43205134904609       -0.94766349489423
C            9.66659247278329        2.72572690384532       -0.40898998314897
C            6.38495530852218        1.18696401765700        0.49273997760855
C            5.27749291065967        1.37744813701191        1.35605481806934
C            4.15954861264221        0.59455926311510        1.26800769971237
C            4.07326048579912       -0.40978160222649        0.29136593842029
N            2.93034151870528       -1.21003492582082        0.19248616952662
C            2.91745825471052       -2.59321982539687        0.11930554776662
C            3.97751580122948       -3.48685175009292        0.15408351451018
C            3.68476306056519       -4.83845969812542        0.08992442866873
C            2.37175840031299       -5.29294395590727        0.00149675714543
C            1.30886111335023       -4.40630932533831       -0.01106295673214
C            1.57864347863282       -3.04762829210320        0.05416359257562
C            0.74993685718223       -1.87132850052760        0.08649752743730
C           -0.61327459518643       -1.67118863893678        0.03789613816929
C           -1.12090267932319       -0.36684873272530        0.08078744504275
C           -2.55478538293588       -0.13045809986643        0.04338782832111
C           -3.13074883794835        0.96262468013634        0.70972073516692
C           -4.48486369602416        1.18882023068116        0.67713962337160
C           -5.33600693773041        0.33109363954039       -0.03526730511958
N           -6.70124135910091        0.55911376949197       -0.07740385026956
C           -7.20659131642405        1.86527623150171       -0.03115144592630
C           -8.37292423799892        2.14204543532604        0.68422061595493
C           -8.87486324496859        3.42847450350358        0.71907134758751
C           -8.22512191184499        4.45333429940679        0.04806734582344
C           -7.06644259920939        4.18256122129167       -0.66374479075699
C           -6.55761683116068        2.89914182069355       -0.70886780790954
C           -7.59696789869821       -0.51532599858558       -0.16942338023249
C           -8.73477403954666       -0.41459950470305       -0.97152829282588
C           -9.61848816576242       -1.47302062106924       -1.05479320188445
C           -9.38212774285915       -2.64154824166910       -0.34675371731344
C           -8.25424491636374       -2.74452066464132        0.45305886242056
C           -7.36506966953740       -1.69140993014238        0.54604674957631
C           -4.76976119520099       -0.76355128105746       -0.70543130167156
C           -3.41556972498624       -0.98635084694516       -0.66159984194364
C           -0.21982693276599        0.71862392128622        0.14587317961276
C            1.14236075724562        0.54065996771318        0.18064521578981
C            1.63800120966960       -0.76296919649725        0.17401300147565
C            5.13884946870127       -0.57920525349268       -0.60540206959068
C            6.25948339226803        0.20439904149904       -0.51641383675444
H            8.64435828736117       -0.41898605227832        0.32747842816660
H           10.83019646778709       -0.93267357714020       -0.65342257073558
H           12.28898581945225        0.88330882060047       -1.47743613642431
H           11.54254713580598        3.23459654159650       -1.28403256821732
H            9.33123315881740        3.74915046572691       -0.31255707859762
H            5.35987019768374        2.14915619383400        2.10811109127464
H            3.34876625951105        0.72057434123640        1.97127662110523
H            4.99630095530151       -3.14135010875103        0.23846171674794
H            4.49311008655676       -5.55406491611910        0.11395412442379
H            2.18322271332110       -6.35505407668883       -0.04794877535129
H            0.29164616453437       -4.76315591335321       -0.06340192239928
H           -1.28041022271592       -2.51795426693299       -0.00119741737605
H           -2.50487085779599        1.61645490503442        1.29715133425289
H           -4.90693700604030        2.01761288783317        1.22573182808911
H           -8.87195753527455        1.34683652809237        1.21788686006690
H           -9.77451956980643        3.63405244298892        1.27957423377827
H           -8.61989605254403        5.45739325904501        0.07907322847294
H           -6.56046417099404        4.97463435361177       -1.19537830861752
H           -5.66598711801532        2.68542620313336       -1.27940349467930
H           -8.91188412924910        0.49040756752518       -1.53341780400369
H          -10.49280480474345       -1.38842698787735       -1.68272071790298
H          -10.07504335833795       -3.46615809141679       -0.41568074543801
H           -8.06980065668208       -3.64810496592465        1.01468038590710
H           -6.49570361108508       -1.76490756117510        1.18248310618900
H           -5.40610735402472       -1.41719700726240       -1.28311797874624
H           -3.00304406482767       -1.81163547708955       -1.22090060453021
H           -0.61107715459449        1.72392857387790        0.12512914218876
H            1.81332756305784        1.38592315042806        0.19433954855303
H            5.04914705549837       -1.30601110366652       -1.40024766097148
H            7.04085960120419        0.09846018208736       -1.25376681468524

          :  Hamiltonian                  GFN2-xTB          :
         :: gradient norm              0.000061283906 Eh/a0 ::
         :: HOMO-LUMO gap              0.318924367074 eV    ::
         :: SCC energy              -119.439835986490 Eh    ::
         :: -> dispersion             -0.101104713184 Eh    ::
         :: -> Gsolv                  -0.069184544290 Eh    ::
         :: repulsion energy           2.162932155194 Eh    ::

    * Orbital Energies and Occupations

         #    Occupation            Energy/Eh            Energy/eV
      -------------------------------------------------------------
         1        2.0000           -0.6868503             -18.6901
       ...           ...                  ...                  ...
        98        2.0000           -0.4184777             -11.3874
        99        2.0000           -0.4155800             -11.3085
       100        2.0000           -0.4121735             -11.2158
       101        2.0000           -0.4088083             -11.1242
       102        2.0000           -0.4020392             -10.9400
       103        2.0000           -0.3973074             -10.8113
       104        2.0000           -0.3943987             -10.7321
       105        2.0000           -0.3903001             -10.6206
       106        2.0000           -0.3890249             -10.5859
       107        2.0000           -0.3730825             -10.1521
       108        1.8199           -0.3632715              -9.8851
       109        1.1801           -0.3603915              -9.8068
       110        0.9979           -0.2722653              -7.4087 (HOMO)
       111        0.0021           -0.2605451              -7.0898 (LUMO)
       112        0.0000           -0.2536720              -6.9028
       113                         -0.2458458              -6.6898
       114                         -0.2408290              -6.5533
       115                         -0.2354235              -6.4062
       116                         -0.2346574              -6.3854
       117                         -0.2286334              -6.2214
       118                         -0.2238832              -6.0922
       119                         -0.2162905              -5.8856
       120                         -0.2129491              -5.7946
       121                         -0.2116288              -5.7587
       ...                                ...                  ...
       214                          0.7380768              20.0841
      -------------------------------------------------------------
                  HL-Gap            0.0117202 Eh            0.3189 eV

     #   Z          covCN         q      C6AA      α(0)
     1   8 O        0.857    -0.523    24.296     6.609
     2   6 C        2.833     0.163    24.466     8.106
     3   6 C        2.969    -0.015    28.378     8.738
     4   6 C        2.920    -0.041    29.023     8.835
     5   6 C        2.917    -0.034    28.853     8.808
     6   6 C        2.919    -0.042    29.042     8.837
     7   6 C        2.916    -0.034    28.855     8.809
     8   6 C        2.924    -0.031    28.765     8.795
     9   6 C        2.966    -0.023    28.586     8.770
    10   6 C        2.922    -0.033    28.832     8.806
    11   6 C        2.914    -0.045    29.122     8.849
    12   6 C        2.912     0.035    27.225     8.556
    13   7 N        2.799    -0.008    21.408     6.872
    14   6 C        3.080     0.046    26.885     8.501
    15   6 C        2.909    -0.041    29.026     8.834
    16   6 C        2.923    -0.032    28.794     8.800
    17   6 C        2.920    -0.035    28.871     8.811
    18   6 C        2.912    -0.030    28.755     8.793
    19   6 C        3.062    -0.013    28.285     8.721
    20   6 C        3.061    -0.012    28.250     8.716
    21   6 C        2.915    -0.033    28.821     8.803
    22   6 C        2.974     0.009    27.823     8.652
    23   6 C        2.974     0.015    27.667     8.628
    24   6 C        2.922    -0.030    28.749     8.793
    25   6 C        2.917    -0.042    29.049     8.838
    26   6 C        2.924     0.065    26.554     8.450
    27   7 N        2.753    -0.029    21.812     6.936
    28   6 C        2.926     0.062    26.601     8.458
    29   6 C        2.921    -0.040    29.005     8.832
    30   6 C        2.919    -0.025    28.632     8.775
    31   6 C        2.919    -0.029    28.727     8.789
    32   6 C        2.919    -0.025    28.635     8.775
    33   6 C        2.921    -0.041    29.007     8.832
    34   6 C        2.927     0.062    26.603     8.458
    35   6 C        2.921    -0.040    28.999     8.831
    36   6 C        2.919    -0.025    28.631     8.775
    37   6 C        2.919    -0.029    28.726     8.789
    38   6 C        2.919    -0.025    28.635     8.775
    39   6 C        2.921    -0.040    29.003     8.832
    40   6 C        2.917    -0.042    29.055     8.839
    41   6 C        2.922    -0.030    28.752     8.793
    42   6 C        2.925    -0.038    28.948     8.823
    43   6 C        2.906    -0.042    29.033     8.835
    44   6 C        3.077     0.047    26.868     8.498
    45   6 C        2.915    -0.045    29.109     8.847
    46   6 C        2.917    -0.045    29.110     8.848
    47   1 H        0.926     0.026     2.648     2.545
    48   1 H        0.925     0.028     2.621     2.531
    49   1 H        0.926     0.027     2.635     2.539
    50   1 H        0.925     0.025     2.662     2.551
    51   1 H        0.925     0.022     2.709     2.574
    52   1 H        0.926     0.028     2.610     2.526
    53   1 H        0.926     0.035     2.521     2.483
    54   1 H        0.926     0.038     2.475     2.460
    55   1 H        0.926     0.038     2.472     2.459
    56   1 H        0.926     0.040     2.454     2.450
    57   1 H        0.926     0.044     2.399     2.422
    58   1 H        0.926     0.051     2.312     2.378
    59   1 H        0.926     0.049     2.337     2.391
    60   1 H        0.926     0.047     2.362     2.403
    61   1 H        0.926     0.044     2.391     2.418
    62   1 H        0.926     0.045     2.386     2.416
    63   1 H        0.926     0.043     2.409     2.427
    64   1 H        0.926     0.044     2.390     2.418
    65   1 H        0.926     0.045     2.382     2.413
    66   1 H        0.926     0.044     2.396     2.420
    67   1 H        0.926     0.045     2.387     2.416
    68   1 H        0.926     0.043     2.404     2.425
    69   1 H        0.926     0.045     2.380     2.413
    70   1 H        0.926     0.046     2.376     2.411
    71   1 H        0.926     0.048     2.350     2.397
    72   1 H        0.926     0.050     2.315     2.379
    73   1 H        0.926     0.045     2.383     2.414
    74   1 H        0.926     0.040     2.454     2.450
    75   1 H        0.926     0.035     2.518     2.482
    76   1 H        0.926     0.030     2.591     2.517

molecular dipole:
                 x           y           z       tot (Debye)
 q only:      -10.891      -2.915      -1.059
   full:      -10.675      -2.837      -1.073      28.207

 projected vibrational frequencies (cm⁻¹)
eigval :       -0.00    -0.00    -0.00    -0.00     0.00     0.00
eigval :       12.04    13.85    19.07    22.39    33.19    39.94
eigval :       47.91    51.29    56.47    61.24    71.96    73.39
eigval :       83.82    98.80   104.00   113.94   119.69   137.51
eigval :      145.80   162.99   179.91   198.80   206.38   216.54
eigval :      234.19   239.40   266.27   275.17   285.82   306.36
eigval :      315.87   338.58   340.78   350.42   371.81   377.66
eigval :      379.20   380.86   387.47   391.25   394.99   407.23
eigval :      410.70   418.63   427.03   449.95   455.12   460.76
eigval :      485.74   497.73   521.65   530.78   545.92   546.08
eigval :      565.56   580.52   582.02   584.83   586.80   590.58
eigval :      594.05   598.80   607.08   611.62   614.07   645.88
eigval :      652.72   661.38   664.84   668.22   676.91   691.99
eigval :      694.71   708.59   725.54   740.62   751.69   758.65
eigval :      762.31   773.84   801.37   811.57   817.99   832.66
eigval :      844.71   854.94   865.92   868.41   871.70   872.18
eigval :      873.14   881.80   893.56   895.67   899.29   901.91
eigval :      902.87   904.68   908.91   912.46   917.17   917.76
eigval :      919.06   922.56   922.71   928.35   930.39   931.39
eigval :      931.62   933.21   934.85   938.21   979.49   980.29
eigval :     1000.77  1001.81  1002.23  1020.54  1057.68  1068.35
eigval :     1076.82  1079.05  1080.19  1116.04  1117.78  1120.41
eigval :     1122.31  1133.53  1141.11  1149.63  1166.29  1168.14
eigval :     1175.10  1176.66  1176.91  1177.62  1180.20  1187.40
eigval :     1190.50  1190.89  1208.04  1213.06  1220.57  1235.18
eigval :     1252.85  1257.07  1258.89  1268.55  1272.74  1275.84
eigval :     1277.59  1280.33  1284.33  1293.60  1314.32  1315.33
eigval :     1323.05  1324.91  1326.95  1330.55  1345.17  1352.25
eigval :     1363.31  1386.47  1413.79  1417.14  1420.82  1424.18
eigval :     1430.51  1432.21  1437.19  1446.85  1448.54  1451.37
eigval :     1456.52  1457.18  1462.73  1471.81  1477.71  1511.32
eigval :     1528.15  1533.06  1542.07  1551.94  1567.26  1571.01
eigval :     1574.24  1579.28  1579.47  1583.05  1586.51  1593.93
eigval :     3057.99  3058.87  3068.40  3070.60  3072.36  3073.92
eigval :     3079.54  3081.14  3081.47  3081.73  3082.09  3082.73
eigval :     3083.42  3085.40  3086.07  3087.40  3087.89  3088.38
eigval :     3089.89  3090.88  3092.80  3092.95  3093.76  3096.49
eigval :     3098.71  3099.02  3100.66  3101.02  3101.35  3102.77

   temp. (K)  partition function   enthalpy   heat capacity  entropy
                                   cal/mol     cal/K/mol   cal/K/mol   J/K/mol
 298.15  VIB  0.396E+17            21484.131    137.012    133.568
         ROT  0.116E+09              888.752      2.981     39.890
         INT  0.461E+25            22372.884    139.993    173.458
         TR   0.139E+29             1481.254      4.968     44.992
         TOT                       23854.1374   144.9613   218.4497   913.9934

       T/K    H(0)-H(T)+PV         H(T)/Eh          T*S/Eh         G(T)/Eh
   ------------------------------------------------------------------------
    298.15    0.380140E-01    0.621771E+00    0.103792E+00    0.517978E+00
   ------------------------------------------------------------------------

         :::::::::::::::::::::::::::::::::::::::::::::::::::::
         ::                  THERMODYNAMIC                  ::
         :::::::::::::::::::::::::::::::::::::::::::::::::::::
         :: total free energy        -116.758925652284 Eh   ::
         ::.................................................::
         :: total energy             -117.276903820869 Eh   ::
         :: zero point energy           0.583756667727 Eh   ::
         :: G(RRHO) w/o ZPVE           -0.065778499142 Eh   ::
         :: G(RRHO) contrib.            0.517978168585 Eh   ::
         :::::::::::::::::::::::::::::::::::::::::::::::::::::

           -------------------------------------------------
          | TOTAL ENERGY             -117.276903820869 Eh   |
          | TOTAL ENTHALPY           -116.655133165444 Eh   |
          | TOTAL FREE ENERGY        -116.758925652284 Eh   |
          | GRADIENT NORM               0.000061255268 Eh/α |
          | HOMO-LUMO GAP               0.318921550469 eV   |
           -------------------------------------------------

 * finished run on 2025/07/18 at 14:50:49.874
