   * xtb version 6.7.1 (edcfbbe) compiled by 'albert@albert-system' on 2024-07-22

   ID    Z sym.   atoms
    1    8 O      1
    2    6 C      2-12, 14-26, 28-46
    3    7 N      13, 27
    4    1 H      47-76

          program call               : xtb data2507/toluene/3TCPM/3TCPM_toluene_T1_crest.xyz --gfn 2 --uhf 2 --gbsa toluene --ohess vtight --parallel 40 --molden --ceasefiles --namespace data2507/toluene/3TCPM/3TCPM_toluene_T1_finalOpt
      * Solvation model:               GBSA
        Solvent                        toluene
        Solvent mass                       9.2140E+01 g/mol
          :  Hamiltonian                  GFN2-xTB          :
 * total energy  :  -117.2765562 Eh     change       -0.8112153E-07 Eh
 * total energy  :  -117.2767399 Eh     change       -0.1837429E-03 Eh
 * total energy  :  -117.2767960 Eh     change       -0.5613310E-04 Eh
 * total energy  :  -117.2768068 Eh     change       -0.1071623E-04 Eh
 * total energy  :  -117.2768148 Eh     change       -0.7996850E-05 Eh
 * total energy  :  -117.2768246 Eh     change       -0.9825391E-05 Eh
 * total energy  :  -117.2768306 Eh     change       -0.6041749E-05 Eh
 * total energy  :  -117.2768355 Eh     change       -0.4856380E-05 Eh
 * total energy  :  -117.2768402 Eh     change       -0.4673356E-05 Eh
 * total energy  :  -117.2768446 Eh     change       -0.4468956E-05 Eh
 * total energy  :  -117.2768773 Eh     change       -0.8953330E-06 Eh
 * total energy  :  -117.2768781 Eh     change       -0.7700630E-06 Eh
 * total energy  :  -117.2768790 Eh     change       -0.8600057E-06 Eh
 * total energy  :  -117.2768798 Eh     change       -0.7932112E-06 Eh
 * total energy  :  -117.2768806 Eh     change       -0.8530030E-06 Eh
 * total energy  :  -117.2768814 Eh     change       -0.7338687E-06 Eh
 * total energy  :  -117.2768820 Eh     change       -0.6098445E-06 Eh
 * total energy  :  -117.2768824 Eh     change       -0.4286806E-06 Eh
 * total energy  :  -117.2768824 Eh     change       -0.7078725E-08 Eh
   *** GEOMETRY OPTIMIZATION CONVERGED AFTER 44 ITERATIONS ***

 final structure:
================
76
 xtb: 6.7.1 (edcfbbe)
O            7.42827104630441        3.18273821583092        1.17135082439050
C            7.52633874327746        2.07489744502999        0.55285771110682
C            8.80486384142040        1.70813843923397       -0.06356942170496
C            9.25555077959490        0.38317303456833       -0.13487877564597
C           10.48676447525540        0.09127328451350       -0.68492024840499
C           11.30393843058531        1.10455506717632       -1.16717220602470
C           10.88442688122272        2.42420632903434       -1.06928965739505
C            9.65843500260049        2.72451531622692       -0.51575190797826
C            6.38885530042338        1.19822384030880        0.44285611368978
C            5.28752023724134        1.40195602468259        1.31117825414814
C            4.16761134425867        0.62005573049953        1.24105189657041
C            4.07305902924953       -0.39726844577917        0.27870340957582
N            2.92781814600342       -1.19605517982214        0.19620104820487
C            2.91203605790211       -2.57987004200470        0.13602602295289
C            3.97025244118061       -3.47545236286063        0.17728910008123
C            3.67454030294102       -4.82692714900295        0.12501411248413
C            2.36049371133028       -5.27946751496001        0.04206275446556
C            1.29943475679854       -4.39075812925410        0.02387656389503
C            1.57224854384088       -3.03219773657791        0.07746577965821
C            0.74602764289656       -1.85403458470592        0.10048812563016
C           -0.61686116605178       -1.65205425845689        0.05210999531223
C           -1.12220251701164       -0.34652415266436        0.08275043441038
C           -2.55584932045876       -0.10875821698252        0.04414820239463
C           -3.13024181578356        0.99175230477888        0.69943478484605
C           -4.48428655523728        1.21854351150409        0.66574117288371
C           -5.33654850238730        0.35333426687005       -0.03600280057507
N           -6.70211513598089        0.58104089920347       -0.07885323391325
C           -7.20605935702405        1.88808014238207       -0.05472868138793
C           -8.37286921457497        2.17878752623933        0.65433132653411
C           -8.87175051125877        3.46681368375228        0.66805759635130
C           -8.21848937953163        4.47958290724741       -0.01774030156882
C           -7.05965582124861        4.19483533218078       -0.72384239524660
C           -6.55396656928326        2.90966647820997       -0.74805882357784
C           -7.59678445501496       -0.49573992636469       -0.14978632950292
C           -8.73708081607893       -0.41118972873193       -0.95017045540608
C           -9.61830115879452       -1.47311837907136       -1.01322328692972
C           -9.37722982082198       -2.62889942454035       -0.28609064007488
C           -8.24704997086482       -2.71558250537090        0.51240407321340
C           -7.36026002943438       -1.65890979204780        0.58508891345759
C           -4.77198058076383       -0.74872032996713       -0.69511630800355
C           -3.41781242632523       -0.97151107200400       -0.65098098174832
C           -0.21919591085818        0.73790129145040        0.13644434764274
C            1.14278251804166        0.55788551392568        0.17108400439385
C            1.63626958654879       -0.74657424622755        0.17594900453056
C            5.13256832565340       -0.58077640471870       -0.62259673404987
C            6.25490732551120        0.20210164626563       -0.55191279172700
H            8.64971365881765       -0.41039505147515        0.27821211968225
H           10.82068802115804       -0.93631213512969       -0.72890937282973
H           12.26489013603205        0.86908969681345       -1.60059481622441
H           11.52047553172498        3.22242462673627       -1.42624228163055
H            9.32396112950344        3.74900600318737       -0.42798488837635
H            5.37618538633998        2.18371332443346        2.05207167283334
H            3.36173342222603        0.75709258775203        1.94789808786490
H            4.98991422327736       -3.13148294801376        0.25721264095562
H            4.48144091764094       -5.54397847374488        0.15389509898521
H            2.16969185784968       -6.34154097317971        0.00135403443840
H            0.28136156887566       -4.74579335995882       -0.02395807394422
H           -1.28538435837253       -2.49808521559789        0.02222002342116
H           -2.50322141290713        1.65140230348465        1.27907786548924
H           -4.90540244721966        2.05380017555935        1.20522471116426
H           -8.87456263011853        1.39338690510827        1.19986909157685
H           -9.77170805277729        3.68332704838910        1.22396076614178
H           -8.61070651412964        5.48501284667612       -0.00287277027464
H           -6.55103744751434        4.97717027226521       -1.26723365464759
H           -5.66222719572124        2.68480807560392       -1.31412117017619
H           -8.91799371463611        0.48381076804904       -1.52667237795909
H          -10.49451310662081       -1.40133278736017       -1.64009476899543
H          -10.06816124728784       -3.45633602989805       -0.33934714383113
H           -8.05886436473919       -3.60907385599378        1.08875104454429
H           -6.48885446003455       -1.71962224476890        1.22007222876021
H           -5.40972653539268       -1.40823968084862       -1.26453259983288
H           -3.00633733041195       -1.80260377228442       -1.20237804097922
H           -0.60868748370507        1.74366339933843        0.10664113720242
H            1.81512462560241        1.40214484734121        0.17565602320898
H            5.03662351881563       -1.31837121781345       -1.40670497842934
H            7.03089655933675        0.08479015582454       -1.29320297499764

          :  Hamiltonian                  GFN2-xTB          :
         :: gradient norm              0.000051650221 Eh/a0 ::
         :: HOMO-LUMO gap              0.318797682335 eV    ::
         :: SCC energy              -119.439872679622 Eh    ::
         :: -> dispersion             -0.101105087738 Eh    ::
         :: -> Gsolv                  -0.069135042716 Eh    ::
         :: repulsion energy           2.162990275870 Eh    ::

    * Orbital Energies and Occupations

         #    Occupation            Energy/Eh            Energy/eV
      -------------------------------------------------------------
         1        2.0000           -0.6868327             -18.6897
       ...           ...                  ...                  ...
        98        2.0000           -0.4184671             -11.3871
        99        2.0000           -0.4155680             -11.3082
       100        2.0000           -0.4122486             -11.2179
       101        2.0000           -0.4087813             -11.1235
       102        2.0000           -0.4020271             -10.9397
       103        2.0000           -0.3972939             -10.8109
       104        2.0000           -0.3944519             -10.7336
       105        2.0000           -0.3903643             -10.6224
       106        2.0000           -0.3890058             -10.5854
       107        2.0000           -0.3730465             -10.1511
       108        1.8199           -0.3632873              -9.8856
       109        1.1801           -0.3604069              -9.8072
       110        0.9979           -0.2722937              -7.4095 (HOMO)
       111        0.0021           -0.2605783              -7.0907 (LUMO)
       112        0.0000           -0.2536614              -6.9025
       113                         -0.2458013              -6.6886
       114                         -0.2408127              -6.5528
       115                         -0.2354123              -6.4059
       116                         -0.2346470              -6.3851
       117                         -0.2285974              -6.2205
       118                         -0.2238536              -6.0914
       119                         -0.2162527              -5.8845
       120                         -0.2129376              -5.7943
       121                         -0.2116990              -5.7606
       ...                                ...                  ...
       214                          0.7381619              20.0864
      -------------------------------------------------------------
                  HL-Gap            0.0117154 Eh            0.3188 eV

     #   Z          covCN         q      C6AA      α(0)
     1   8 O        0.857    -0.523    24.295     6.608
     2   6 C        2.833     0.164    24.466     8.105
     3   6 C        2.969    -0.015    28.374     8.737
     4   6 C        2.920    -0.041    29.021     8.834
     5   6 C        2.917    -0.034    28.853     8.808
     6   6 C        2.919    -0.042    29.041     8.837
     7   6 C        2.916    -0.034    28.854     8.809
     8   6 C        2.924    -0.031    28.764     8.795
     9   6 C        2.966    -0.024    28.588     8.770
    10   6 C        2.922    -0.033    28.833     8.806
    11   6 C        2.914    -0.045    29.122     8.849
    12   6 C        2.912     0.035    27.226     8.556
    13   7 N        2.799    -0.008    21.408     6.872
    14   6 C        3.080     0.046    26.885     8.501
    15   6 C        2.909    -0.041    29.026     8.834
    16   6 C        2.923    -0.032    28.794     8.800
    17   6 C        2.920    -0.035    28.871     8.811
    18   6 C        2.912    -0.030    28.755     8.793
    19   6 C        3.062    -0.013    28.285     8.721
    20   6 C        3.061    -0.012    28.250     8.716
    21   6 C        2.916    -0.033    28.821     8.803
    22   6 C        2.974     0.009    27.823     8.652
    23   6 C        2.974     0.015    27.666     8.628
    24   6 C        2.922    -0.030    28.749     8.793
    25   6 C        2.917    -0.042    29.047     8.838
    26   6 C        2.924     0.065    26.555     8.451
    27   7 N        2.753    -0.029    21.813     6.937
    28   6 C        2.926     0.062    26.600     8.458
    29   6 C        2.921    -0.041    29.006     8.832
    30   6 C        2.919    -0.025    28.633     8.775
    31   6 C        2.919    -0.029    28.728     8.789
    32   6 C        2.919    -0.025    28.636     8.775
    33   6 C        2.921    -0.041    29.008     8.832
    34   6 C        2.927     0.062    26.602     8.458
    35   6 C        2.921    -0.040    29.000     8.831
    36   6 C        2.919    -0.025    28.631     8.775
    37   6 C        2.919    -0.029    28.727     8.789
    38   6 C        2.919    -0.025    28.635     8.775
    39   6 C        2.921    -0.040    29.004     8.832
    40   6 C        2.917    -0.042    29.053     8.839
    41   6 C        2.922    -0.030    28.753     8.793
    42   6 C        2.925    -0.038    28.948     8.823
    43   6 C        2.906    -0.042    29.033     8.835
    44   6 C        3.077     0.047    26.868     8.498
    45   6 C        2.915    -0.045    29.109     8.847
    46   6 C        2.917    -0.045    29.112     8.848
    47   1 H        0.926     0.026     2.647     2.544
    48   1 H        0.925     0.028     2.619     2.531
    49   1 H        0.926     0.027     2.634     2.538
    50   1 H        0.925     0.025     2.661     2.551
    51   1 H        0.925     0.022     2.709     2.574
    52   1 H        0.926     0.028     2.610     2.526
    53   1 H        0.926     0.035     2.521     2.483
    54   1 H        0.926     0.038     2.475     2.460
    55   1 H        0.926     0.038     2.472     2.459
    56   1 H        0.926     0.040     2.454     2.450
    57   1 H        0.926     0.044     2.399     2.422
    58   1 H        0.926     0.051     2.312     2.378
    59   1 H        0.926     0.049     2.337     2.391
    60   1 H        0.926     0.047     2.362     2.403
    61   1 H        0.926     0.044     2.391     2.418
    62   1 H        0.926     0.045     2.387     2.416
    63   1 H        0.926     0.043     2.410     2.428
    64   1 H        0.926     0.044     2.391     2.418
    65   1 H        0.926     0.045     2.383     2.414
    66   1 H        0.926     0.044     2.395     2.420
    67   1 H        0.926     0.045     2.387     2.416
    68   1 H        0.926     0.043     2.405     2.425
    69   1 H        0.926     0.045     2.381     2.413
    70   1 H        0.926     0.045     2.378     2.411
    71   1 H        0.926     0.048     2.351     2.398
    72   1 H        0.926     0.050     2.315     2.379
    73   1 H        0.926     0.045     2.384     2.414
    74   1 H        0.926     0.040     2.454     2.450
    75   1 H        0.926     0.035     2.519     2.482
    76   1 H        0.926     0.030     2.591     2.517

molecular dipole:
                 x           y           z       tot (Debye)
 q only:      -10.884      -2.912      -0.984
   full:      -10.668      -2.834      -1.001      28.172

 projected vibrational frequencies (cm⁻¹)
eigval :       -0.00    -0.00     0.00     0.00     0.00     0.00
eigval :        6.96    12.07    18.21    20.77    32.09    35.77
eigval :       42.32    50.76    53.39    59.95    69.72    72.33
eigval :       82.95    98.05   102.69   113.16   118.48   136.87
eigval :      145.83   162.69   178.35   198.43   205.90   215.75
eigval :      233.38   238.79   265.97   275.21   285.89   306.09
eigval :      315.89   338.27   340.73   349.93   371.17   376.86
eigval :      377.64   380.46   387.35   391.37   394.78   406.87
eigval :      410.39   418.47   427.04   449.63   454.69   460.51
eigval :      485.35   496.81   521.20   530.52   545.53   546.00
eigval :      565.11   580.32   581.77   584.66   586.76   590.33
eigval :      593.76   598.81   606.97   611.57   613.83   645.70
eigval :      652.72   660.01   664.51   667.89   676.57   691.70
eigval :      694.20   707.89   725.29   740.48   750.91   759.14
eigval :      761.25   774.21   800.69   808.99   817.72   830.69
eigval :      843.61   851.57   865.50   867.25   871.58   872.05
eigval :      873.28   880.36   893.39   895.54   899.73   900.90
eigval :      902.36   904.57   908.83   911.32   915.65   917.86
eigval :      918.63   919.61   922.69   925.50   930.38   931.76
eigval :      932.01   932.27   933.96   936.98   979.24   980.13
eigval :     1000.43  1001.80  1002.19  1020.61  1057.38  1068.25
eigval :     1076.54  1078.85  1079.94  1116.08  1116.99  1120.17
eigval :     1121.98  1133.14  1140.72  1149.36  1166.01  1167.87
eigval :     1174.75  1175.08  1176.40  1177.18  1179.90  1187.29
eigval :     1190.13  1190.48  1208.04  1213.34  1220.39  1235.32
eigval :     1252.73  1257.02  1258.50  1267.98  1272.59  1275.65
eigval :     1277.34  1279.93  1284.20  1293.59  1314.35  1314.90
eigval :     1323.03  1324.84  1326.88  1330.48  1345.27  1352.16
eigval :     1363.07  1386.48  1413.70  1416.97  1420.61  1424.00
eigval :     1430.59  1431.99  1436.90  1446.69  1448.41  1451.32
eigval :     1456.34  1456.73  1462.59  1471.57  1477.58  1511.44
eigval :     1528.14  1532.95  1542.14  1551.94  1567.15  1570.91
eigval :     1574.17  1579.26  1579.35  1582.96  1586.40  1594.06
eigval :     3057.41  3058.81  3068.49  3070.47  3072.10  3073.65
eigval :     3079.61  3081.09  3081.35  3081.66  3082.18  3082.79
eigval :     3083.21  3085.44  3085.62  3087.06  3087.97  3088.24
eigval :     3089.95  3090.89  3092.88  3093.05  3093.78  3096.35
eigval :     3098.65  3099.05  3100.46  3100.72  3101.15  3102.33

   temp. (K)  partition function   enthalpy   heat capacity  entropy
                                   cal/mol     cal/K/mol   cal/K/mol   J/K/mol
 298.15  VIB  0.133E+18            21545.357    136.754    134.656
         ROT  0.116E+09              888.752      2.981     39.890
         INT  0.154E+26            22434.109    139.735    174.546
         TR   0.139E+29             1481.254      4.968     44.992
         TOT                       23915.3630   144.7033   219.5377   918.5459

       T/K    H(0)-H(T)+PV         H(T)/Eh          T*S/Eh         G(T)/Eh
   ------------------------------------------------------------------------
    298.15    0.381116E-01    0.621642E+00    0.104309E+00    0.517332E+00
   ------------------------------------------------------------------------

         :::::::::::::::::::::::::::::::::::::::::::::::::::::
         ::                  THERMODYNAMIC                  ::
         :::::::::::::::::::::::::::::::::::::::::::::::::::::
         :: total free energy        -116.759550054324 Eh   ::
         ::.................................................::
         :: total energy             -117.276882392584 Eh   ::
         :: zero point energy           0.583530245236 Eh   ::
         :: G(RRHO) w/o ZPVE           -0.066197906976 Eh   ::
         :: G(RRHO) contrib.            0.517332338261 Eh   ::
         :::::::::::::::::::::::::::::::::::::::::::::::::::::

           -------------------------------------------------
          | TOTAL ENERGY             -117.276882392584 Eh   |
          | TOTAL ENTHALPY           -116.655240590579 Eh   |
          | TOTAL FREE ENERGY        -116.759550054324 Eh   |
          | GRADIENT NORM               0.000052474720 Eh/α |
          | HOMO-LUMO GAP               0.318792598560 eV   |
           -------------------------------------------------

 * finished run on 2025/07/18 at 14:59:37.599
