   * xtb version 6.7.1 (edcfbbe) compiled by 'albert@albert-system' on 2024-07-22

   ID    Z sym.   atoms
    1    8 O      1
    2    6 C      2-12, 14-26, 28-46
    3    7 N      13, 27
    4    1 H      47-76

          program call               : xtb data2507/toluene/3TCPM/3TCPM_toluene_S0_crest.xyz --gfn 2 --gbsa toluene --ohess vtight --parallel 40 --molden --ceasefiles --namespace data2507/toluene/3TCPM/3TCPM_toluene_S0_finalOpt
      * Solvation model:               GBSA
        Solvent                        toluene
        Solvent mass                       9.2140E+01 g/mol
          :  Hamiltonian                  GFN2-xTB          :
 * total energy  :  -117.3564970 Eh     change       -0.5348966E-08 Eh
 * total energy  :  -117.3565597 Eh     change       -0.6267400E-04 Eh
 * total energy  :  -117.3565762 Eh     change       -0.1649523E-04 Eh
 * total energy  :  -117.3565805 Eh     change       -0.4317343E-05 Eh
 * total energy  :  -117.3565838 Eh     change       -0.3314913E-05 Eh
 * total energy  :  -117.3565858 Eh     change       -0.2054195E-05 Eh
 * total energy  :  -117.3565868 Eh     change       -0.9499375E-06 Eh
 * total energy  :  -117.3565873 Eh     change       -0.5168904E-06 Eh
 * total energy  :  -117.3565877 Eh     change       -0.4259713E-06 Eh
 * total energy  :  -117.3565882 Eh     change       -0.4674114E-06 Eh
 * total energy  :  -117.3565901 Eh     change       -0.2630816E-06 Eh
 * total energy  :  -117.3565903 Eh     change       -0.2303267E-06 Eh
 * total energy  :  -117.3565905 Eh     change       -0.2296504E-06 Eh
 * total energy  :  -117.3565908 Eh     change       -0.2558649E-06 Eh
 * total energy  :  -117.3565911 Eh     change       -0.2861039E-06 Eh
 * total energy  :  -117.3565914 Eh     change       -0.3095472E-06 Eh
 * total energy  :  -117.3565917 Eh     change       -0.3122299E-06 Eh
 * total energy  :  -117.3565920 Eh     change       -0.2781507E-06 Eh
 * total energy  :  -117.3565920 Eh     change       -0.2358036E-08 Eh
   *** GEOMETRY OPTIMIZATION CONVERGED AFTER 22 ITERATIONS ***

 final structure:
================
76
 xtb: 6.7.1 (edcfbbe)
O            7.41769283547067        3.41852155003672        0.59838053984310
C            7.52699886752969        2.24377648766695        0.27462939738675
C            8.84316956298199        1.66434074876809       -0.08733986732111
C            9.18024724155033        0.35042355122969        0.23592934559309
C           10.43361405712471       -0.14048925009952       -0.08177302399846
C           11.35661752032342        0.66658456505730       -0.72853003464117
C           11.03190569666681        1.97707500780938       -1.04351190226612
C            9.78635236912687        2.47729621003309       -0.71474069398281
C            6.35285310950888        1.34474323871597        0.23330787588329
C            5.28092498099468        1.59804622193112        1.09084842866170
C            4.16251078461699        0.79326703837200        1.07969337010495
C            4.07863468029061       -0.27343673743698        0.18329998493353
N            2.94519396096618       -1.08760610197805        0.15990925518050
C            2.93943477803115       -2.47228427649346        0.15460334935678
C            4.00086860588794       -3.36290653568727        0.22846962990620
C            3.71088406058358       -4.71472806028312        0.24286625504477
C            2.39815624262916       -5.17816507317567        0.19600778917899
C            1.33634723012322       -4.29610085543342        0.14998357514940
C            1.60359783283731       -2.93356165700276        0.13461246940380
C            0.76650451449910       -1.76474576383337        0.11626741972759
C           -0.60705331031895       -1.58420337920269        0.07058850961013
C           -1.12302640158820       -0.29396660709785        0.04413136461624
C           -2.57546023271913       -0.07384846504823        0.00860444386245
C           -3.16698524218268        0.94115949209854        0.75984470403296
C           -4.53132273377481        1.14123289301974        0.73928185959121
C           -5.35313720096314        0.33665140478451       -0.05061003923427
N           -6.73755625622499        0.53790473000596       -0.07735986052865
C           -7.25785215702096        1.83645404593108       -0.02355847392306
C           -8.42762128973651        2.10218304626265        0.68889223810889
C           -8.94061610340940        3.38424665596633        0.73335515619371
C           -8.29564551211573        4.42211646085504        0.07988301777418
C           -7.13025502013646        4.16514860684394       -0.62438300704215
C           -6.61465628806539        2.88470397169080       -0.68247443501261
C           -7.60184945440273       -0.56104413207345       -0.15329910031782
C           -8.77138743506247       -0.49133569516783       -0.91069925517818
C           -9.62314971001508       -1.57702295654548       -0.97892267433157
C           -9.32193284778199       -2.74975631823556       -0.30505818758945
C           -8.15941303953849       -2.82618030188756        0.44515033741052
C           -7.30587343067658       -1.74285991668804        0.52664092975685
C           -4.76651560972345       -0.67419217154937       -0.81284379339806
C           -3.40312671602694       -0.87719954545733       -0.77505640405586
C           -0.24496803945525        0.79905960024699        0.03929918934905
C            1.12564220910897        0.64141902886106        0.07763362405104
C            1.63285342387208       -0.64884971281122        0.13942615172554
C            5.13478877971224       -0.51219171463232       -0.69751249588995
C            6.26121609751252        0.28317711158974       -0.66814040823099
H            8.47028060657163       -0.27353070103196        0.75839527582131
H           10.69251231784158       -1.15650000913130        0.17734370436769
H           12.33170991992449        0.27670395680883       -0.98060338473370
H           11.75211401358575        2.61016354494211       -1.54025994716582
H            9.51811775208728        3.49836957400688       -0.94538527769494
H            5.35585441512722        2.42652027734406        1.78010770186345
H            3.35511769062246        0.97366579619600        1.77280296756898
H            5.02182925717989       -3.01782075016222        0.28569014376660
H            4.52117596207688       -5.42713941231761        0.29600571915604
H            2.21230412724018       -6.24211307063256        0.20657846525271
H            0.31776592143965       -4.65372206697206        0.13308494041103
H           -1.26757517965843       -2.43797833492803        0.07288068477658
H           -2.55189983871158        1.56318947429152        1.39378024602280
H           -4.97332529984588        1.92163528707131        1.34189791132119
H           -8.92799152097064        1.29721628770138        1.20763674270108
H           -9.84647438134565        3.57553698676752        1.29034012038338
H           -8.69770250863907        5.42338648196793        0.11990833157958
H           -6.62260120994134        4.96680318557350       -1.14129648233562
H           -5.71150998615738        2.68601421600719       -1.24116105217018
H           -9.00446678330615        0.41820738538868       -1.44521341143809
H          -10.52457942209299       -1.50947161137638       -1.57079179475350
H           -9.98849352681809       -3.59711572975748       -0.36345377922501
H           -7.91875378128309       -3.73415819331291        0.97910731015873
H           -6.40492350198554       -1.80244895921020        1.11996396385459
H           -5.38960408373112       -1.29643611319336       -1.43899495456684
H           -2.96752292008216       -1.65358208219361       -1.38708124228611
H           -0.65531464540332        1.79625149124366       -0.02163154554745
H            1.77716935407988        1.50140523706582        0.04370110272829
H            5.05491156354631       -1.31200825348774       -1.41798822980029
H            7.06067024053999        0.10421263447642       -1.37119526471282

          :  Hamiltonian                  GFN2-xTB          :
         :: gradient norm              0.000045913158 Eh/a0 ::
         :: HOMO-LUMO gap              1.464680771117 eV    ::
         :: SCC energy              -119.535348755180 Eh    ::
         :: -> dispersion             -0.101340813289 Eh    ::
         :: -> Gsolv                  -0.052234465255 Eh    ::
         :: repulsion energy           2.178756785889 Eh    ::

    * Orbital Energies and Occupations

         #    Occupation            Energy/Eh            Energy/eV
      -------------------------------------------------------------
         1        2.0000           -0.7099367             -19.3184
       ...           ...                  ...                  ...
        97        2.0000           -0.4171351             -11.3508
        98        2.0000           -0.4164486             -11.3321
        99        2.0000           -0.4158649             -11.3163
       100        2.0000           -0.4103347             -11.1658
       101        2.0000           -0.4070690             -11.0769
       102        2.0000           -0.4064147             -11.0591
       103        2.0000           -0.4040680             -10.9952
       104        2.0000           -0.4029580             -10.9650
       105        2.0000           -0.3974889             -10.8162
       106        2.0000           -0.3952035             -10.7540
       107        2.0000           -0.3809379             -10.3658
       108        2.0000           -0.3665733              -9.9750
       109        2.0000           -0.3466385              -9.4325 (HOMO)
       110                         -0.2928125              -7.9678 (LUMO)
       111                         -0.2487682              -6.7693
       112                         -0.2439100              -6.6371
       113                         -0.2409991              -6.5579
       114                         -0.2392908              -6.5114
       115                         -0.2341683              -6.3720
       116                         -0.2296493              -6.2491
       117                         -0.2262477              -6.1565
       118                         -0.2210578              -6.0153
       119                         -0.2201125              -5.9896
       120                         -0.2178365              -5.9276
       ...                                ...                  ...
       214                          0.7435922              20.2342
      -------------------------------------------------------------
                  HL-Gap            0.0538260 Eh            1.4647 eV

     #   Z          covCN         q      C6AA      α(0)
     1   8 O        0.858    -0.424    22.176     6.314
     2   6 C        2.829     0.226    23.250     7.901
     3   6 C        2.972    -0.013    28.345     8.733
     4   6 C        2.921    -0.026    28.651     8.778
     5   6 C        2.918    -0.026    28.656     8.778
     6   6 C        2.920    -0.022    28.546     8.762
     7   6 C        2.917    -0.026    28.650     8.777
     8   6 C        2.924    -0.017    28.440     8.745
     9   6 C        2.971    -0.018    28.446     8.749
    10   6 C        2.924    -0.016    28.412     8.741
    11   6 C        2.919    -0.041    29.021     8.834
    12   6 C        2.912     0.072    26.382     8.423
    13   7 N        2.801    -0.038    21.974     6.962
    14   6 C        3.071     0.046    26.897     8.504
    15   6 C        2.910    -0.051    29.269     8.871
    16   6 C        2.924    -0.034    28.845     8.808
    17   6 C        2.920    -0.041    29.015     8.833
    18   6 C        2.912    -0.034    28.836     8.806
    19   6 C        3.066    -0.016    28.339     8.729
    20   6 C        3.063    -0.017    28.362     8.733
    21   6 C        2.918    -0.039    28.975     8.827
    22   6 C        2.976     0.000    28.020     8.683
    23   6 C        2.976     0.001    27.996     8.679
    24   6 C        2.924    -0.036    28.894     8.815
    25   6 C        2.920    -0.049    29.220     8.864
    26   6 C        2.923     0.063    26.584     8.455
    27   7 N        2.752    -0.080    22.798     7.092
    28   6 C        2.923     0.066    26.525     8.446
    29   6 C        2.922    -0.048    29.200     8.862
    30   6 C        2.919    -0.030    28.761     8.794
    31   6 C        2.919    -0.040    28.988     8.829
    32   6 C        2.919    -0.030    28.760     8.794
    33   6 C        2.922    -0.048    29.197     8.861
    34   6 C        2.923     0.066    26.525     8.446
    35   6 C        2.922    -0.048    29.197     8.861
    36   6 C        2.919    -0.030    28.760     8.794
    37   6 C        2.919    -0.040    28.987     8.829
    38   6 C        2.919    -0.030    28.760     8.794
    39   6 C        2.922    -0.048    29.196     8.861
    40   6 C        2.920    -0.049    29.219     8.864
    41   6 C        2.924    -0.036    28.892     8.815
    42   6 C        2.929    -0.039    28.961     8.826
    43   6 C        2.908    -0.051    29.277     8.872
    44   6 C        3.071     0.044    26.938     8.510
    45   6 C        2.920    -0.041    29.031     8.836
    46   6 C        2.920    -0.025    28.617     8.772
    47   1 H        0.926     0.043     2.406     2.425
    48   1 H        0.926     0.047     2.361     2.403
    49   1 H        0.926     0.047     2.357     2.401
    50   1 H        0.926     0.045     2.387     2.416
    51   1 H        0.926     0.043     2.404     2.425
    52   1 H        0.926     0.051     2.303     2.373
    53   1 H        0.926     0.053     2.281     2.362
    54   1 H        0.926     0.033     2.542     2.493
    55   1 H        0.926     0.033     2.544     2.494
    56   1 H        0.926     0.030     2.579     2.511
    57   1 H        0.926     0.033     2.543     2.494
    58   1 H        0.926     0.035     2.515     2.480
    59   1 H        0.926     0.034     2.530     2.487
    60   1 H        0.926     0.031     2.578     2.511
    61   1 H        0.926     0.031     2.575     2.509
    62   1 H        0.926     0.033     2.549     2.497
    63   1 H        0.926     0.031     2.569     2.507
    64   1 H        0.926     0.033     2.549     2.497
    65   1 H        0.926     0.031     2.571     2.507
    66   1 H        0.926     0.031     2.575     2.509
    67   1 H        0.926     0.033     2.549     2.496
    68   1 H        0.926     0.031     2.567     2.505
    69   1 H        0.926     0.033     2.546     2.495
    70   1 H        0.926     0.031     2.569     2.506
    71   1 H        0.926     0.031     2.574     2.509
    72   1 H        0.926     0.034     2.526     2.485
    73   1 H        0.926     0.034     2.526     2.485
    74   1 H        0.926     0.032     2.553     2.499
    75   1 H        0.926     0.055     2.259     2.351
    76   1 H        0.926     0.051     2.302     2.373

molecular dipole:
                 x           y           z       tot (Debye)
 q only:        0.352      -1.474      -0.436
   full:        0.395      -1.461      -0.444       4.010

 projected vibrational frequencies (cm⁻¹)
eigval :       -0.00    -0.00    -0.00    -0.00     0.00     0.00
eigval :       11.29    13.19    18.48    21.84    30.16    35.83
eigval :       45.29    49.02    53.60    57.62    67.35    70.83
eigval :       81.14    94.81    99.06   112.17   114.93   137.34
eigval :      147.14   159.03   173.71   188.78   204.54   209.49
eigval :      232.86   236.14   264.88   274.27   280.81   308.04
eigval :      316.05   345.68   351.50   358.90   370.57   378.09
eigval :      379.00   381.04   388.29   389.34   392.80   400.21
eigval :      410.35   422.01   435.27   457.49   464.29   476.48
eigval :      487.80   491.82   513.11   534.52   549.57   551.38
eigval :      581.57   582.64   586.64   589.20   591.61   594.56
eigval :      600.14   609.90   618.99   621.73   637.96   659.20
eigval :      660.89   669.13   674.20   678.02   691.47   693.74
eigval :      707.43   712.75   730.89   750.65   756.02   759.96
eigval :      773.41   775.43   806.57   816.94   829.97   832.52
eigval :      866.27   868.98   873.40   875.37   875.60   877.25
eigval :      881.36   889.74   891.65   899.84   902.79   903.71
eigval :      909.12   910.31   911.00   916.39   921.48   924.41
eigval :      926.53   927.05   928.04   928.53   929.55   929.75
eigval :      932.28   933.27   937.91   949.00   982.61   994.37
eigval :     1003.87  1008.10  1023.49  1027.49  1071.55  1074.97
eigval :     1079.31  1081.86  1082.84  1118.24  1120.13  1122.10
eigval :     1122.67  1136.07  1141.17  1156.75  1174.92  1176.41
eigval :     1178.08  1178.41  1178.45  1181.37  1185.30  1191.25
eigval :     1194.74  1196.55  1205.83  1214.68  1221.17  1243.03
eigval :     1259.16  1263.26  1263.89  1270.66  1276.10  1277.35
eigval :     1280.22  1285.96  1305.50  1310.42  1315.47  1319.20
eigval :     1322.04  1324.04  1324.60  1328.18  1347.75  1358.21
eigval :     1366.96  1405.51  1407.97  1420.20  1426.19  1426.62
eigval :     1434.15  1441.04  1459.13  1464.09  1470.60  1473.38
eigval :     1481.05  1484.36  1499.51  1551.42  1555.49  1567.94
eigval :     1575.20  1576.34  1577.14  1579.08  1583.67  1587.84
eigval :     1590.65  1591.72  1596.53  1600.56  1611.91  1646.85
eigval :     3070.60  3071.04  3071.50  3071.85  3072.41  3074.06
eigval :     3074.11  3076.49  3078.07  3079.54  3079.70  3081.23
eigval :     3081.97  3083.03  3083.42  3084.10  3084.36  3085.51
eigval :     3086.43  3087.22  3088.06  3088.53  3089.11  3091.82
eigval :     3092.87  3093.67  3095.29  3095.67  3098.50  3100.02

   temp. (K)  partition function   enthalpy   heat capacity  entropy
                                   cal/mol     cal/K/mol   cal/K/mol   J/K/mol
 298.15  VIB  0.847E+17            21438.304    135.501    133.910
         ROT  0.115E+09              888.752      2.981     39.857
         INT  0.970E+25            22327.056    138.482    173.767
         TR   0.139E+29             1481.254      4.968     44.992
         TOT                       23808.3103   143.4497   218.7586   915.2860

       T/K    H(0)-H(T)+PV         H(T)/Eh          T*S/Eh         G(T)/Eh
   ------------------------------------------------------------------------
    298.15    0.379410E-01    0.624608E+00    0.103939E+00    0.520669E+00
   ------------------------------------------------------------------------

         :::::::::::::::::::::::::::::::::::::::::::::::::::::
         ::                  THERMODYNAMIC                  ::
         :::::::::::::::::::::::::::::::::::::::::::::::::::::
         :: total free energy        -116.835923451268 Eh   ::
         ::.................................................::
         :: total energy             -117.356591964404 Eh   ::
         :: zero point energy           0.586666832855 Eh   ::
         :: G(RRHO) w/o ZPVE           -0.065998319719 Eh   ::
         :: G(RRHO) contrib.            0.520668513136 Eh   ::
         :::::::::::::::::::::::::::::::::::::::::::::::::::::

           -------------------------------------------------
          | TOTAL ENERGY             -117.356591964404 Eh   |
          | TOTAL ENTHALPY           -116.731984174050 Eh   |
          | TOTAL FREE ENERGY        -116.835923451268 Eh   |
          | GRADIENT NORM               0.000045890302 Eh/α |
          | HOMO-LUMO GAP               1.464680641395 eV   |
           -------------------------------------------------

 * finished run on 2025/07/18 at 14:50:40.787
