   * xtb version 6.7.1 (edcfbbe) compiled by 'albert@albert-system' on 2024-07-22

   ID    Z sym.   atoms
    1    8 O      1
    2    6 C      2-12, 14-26, 28-46
    3    7 N      13, 27
    4    1 H      47-76

          program call               : xtb data2507/toluene/3TCPM/3TCPM.xyz --gfn 2 --gbsa toluene --ohess vtight --parallel 40 --molden --ceasefiles --namespace data2507/toluene/3TCPM/3TCPM_toluene_S0_preOpt
      * Solvation model:               GBSA
        Solvent                        toluene
        Solvent mass                       9.2140E+01 g/mol
          :  Hamiltonian                  GFN2-xTB          :
 * total energy  :  -117.3361947 Eh     change       -0.5785509E-08 Eh
 * total energy  :  -117.3488552 Eh     change       -0.1266050E-01 Eh
 * total energy  :  -117.3529267 Eh     change       -0.4071500E-02 Eh
 * total energy  :  -117.3542443 Eh     change       -0.1317626E-02 Eh
 * total energy  :  -117.3550829 Eh     change       -0.8385230E-03 Eh
 * total energy  :  -117.3554388 Eh     change       -0.3559123E-03 Eh
 * total energy  :  -117.3556585 Eh     change       -0.2197082E-03 Eh
 * total energy  :  -117.3558572 Eh     change       -0.1987715E-03 Eh
 * total energy  :  -117.3560106 Eh     change       -0.1533804E-03 Eh
 * total energy  :  -117.3561031 Eh     change       -0.9247866E-04 Eh
 * total energy  :  -117.3565981 Eh     change       -0.4092306E-06 Eh
 * total energy  :  -117.3565986 Eh     change       -0.4985911E-06 Eh
 * total energy  :  -117.3565989 Eh     change       -0.3198061E-06 Eh
 * total energy  :  -117.3565991 Eh     change       -0.1745314E-06 Eh
 * total energy  :  -117.3565993 Eh     change       -0.1818297E-06 Eh
 * total energy  :  -117.3565995 Eh     change       -0.1932875E-06 Eh
 * total energy  :  -117.3565996 Eh     change       -0.1299497E-06 Eh
 * total energy  :  -117.3565997 Eh     change       -0.1019898E-06 Eh
 * total energy  :  -117.3565998 Eh     change       -0.8714701E-07 Eh
   *** GEOMETRY OPTIMIZATION CONVERGED AFTER 62 ITERATIONS ***

 final structure:
================
76
 xtb: 6.7.1 (edcfbbe)
O            7.53733557128729        3.58865044097746        0.69555510792481
C            7.67170011756276        2.41898461822507        0.36304554107404
C            9.00060724633672        1.86879501167512        0.00204741888896
C            9.36227516208998        0.55980199681046        0.31856678341486
C           10.62656213468639        0.09588657061765        0.00369418136683
C           11.53610115541330        0.92517241755777       -0.63397725871184
C           11.18654358563109        2.23072764431255       -0.94281615516528
C            9.92994333276610        2.70420268918018       -0.61640143913321
C            6.51610745335470        1.49674606218013        0.30943347327323
C            5.43698451724637        1.71890822884893        1.16655905298913
C            4.33424167745832        0.89307076442569        1.14181388161146
C            4.27318402763065       -0.16337818958027        0.23152368696032
N            3.15405133644621       -0.99647222652807        0.19265485401246
C            3.17101822668642       -2.38086057769979        0.16776335550614
C            4.24654829115643       -3.25505703381395        0.23370667568301
C            3.97860057201526       -4.61147821163692        0.22802510895344
C            2.67380674591986       -5.09550813403570        0.16924388932306
C            1.59791007545232       -4.23033287483140        0.13088908859177
C            1.84296399526035       -2.86354293840895        0.13559124331961
C            0.98687595661737       -1.70842407274346        0.12936478984288
C           -0.38926199947202       -1.54973907350403        0.07922262517448
C           -0.92619495719651       -0.26784792664623        0.06659354900679
C           -2.38167995905874       -0.06987312853807        0.02635787421573
C           -2.99170519358523        0.92964184081057        0.78365916539069
C           -4.35845740230647        1.11137054107236        0.75647394054379
C           -5.16442366170595        0.30267889830672       -0.04541484585112
N           -6.55111772182319        0.48668805454487       -0.08022454570499
C           -7.08767354469335        1.77840777687338       -0.02381863856450
C           -8.26584192689472        2.02637775436928        0.68114979632492
C           -8.79436322583920        3.30202910968617        0.72847045272645
C           -8.15703477829243        4.35095638221291        0.08524292010164
C           -6.98357400374294        4.11158832338956       -0.61178326149010
C           -6.45225931155232        2.83771397037316       -0.67255286707243
C           -7.40080830081234       -0.62275667692811       -0.16705816524545
C           -8.56513981221002       -0.56510415298454       -0.93343280406770
C           -9.40224377911933       -1.66140988115619       -1.01247519290614
C           -9.09122728291587       -2.83269481130927       -0.34053634050459
C           -7.93388902244908       -2.89700266686014        0.41876513543037
C           -7.09486323341505       -1.80323127304115        0.51075027482471
C           -4.55971611314010       -0.69409898410192       -0.81195635013034
C           -3.19379310543713       -0.87827643008999       -0.76834515797671
C           -0.06591038739330        0.83922888035670        0.07997350569398
C            1.30684722324497        0.70350035678802        0.12370026219537
C            1.83476709770962       -0.57901262359400        0.17172552123759
C            5.33694080740761       -0.37186554060183       -0.64776814653667
C            6.44820461934362        0.44395554442183       -0.60431087763261
H            8.66231378608228       -0.08133734889909        0.83368600950051
H           10.90455825704850       -0.91631332964201        0.25790739913562
H           12.51993993397739        0.55635905698008       -0.88386943887148
H           11.89602892826684        2.88093867074352       -1.43283882399267
H            9.64248059577171        3.72111523004458       -0.84224737029167
H            5.49374876142777        2.54044279070799        1.86579217568372
H            3.52136065311695        1.04906359771805        1.83445963868591
H            5.26153463857381       -2.89434634590858        0.29995260305895
H            4.80004618075638       -5.31144554146248        0.27472256149423
H            2.50536878714166       -6.16238813628920        0.16426898903972
H            0.58539119674353       -4.60425468539396        0.10458784550708
H           -1.03556286468629       -2.41424254220946        0.06721791899212
H           -2.38909064023204        1.55426011931568        1.42694462862049
H           -4.81476634427095        1.88043737618727        1.36299728810277
H           -8.76044800284225        1.21280121155268        1.19193237680934
H           -9.70651676780494        3.47960033785540        1.27969430595949
H           -8.57132383126650        5.34713754463317        0.12749656910439
H           -6.48176306229997        4.92188335292825       -1.12087400156014
H           -5.54266733569458        2.65272975889175       -1.22546877051071
H           -8.80564386736986        0.34344588783375       -1.46634680780649
H          -10.29974116388826       -1.60325376199338       -1.61127182782952
H           -9.74624511903320       -3.68841246338722       -0.40730132978137
H           -7.68595111094612       -3.80374708118903        0.95147152306969
H           -6.19776491407802       -1.85344546040813        1.11074621837338
H           -5.17072545061277       -1.31987291361537       -1.44645581540944
H           -2.74409649467930       -1.64310613889234       -1.38468972553391
H           -0.49203590529742        1.83033309658733        0.02900282111107
H            1.94430540408930        1.57439731264772        0.10399895029415
H            5.27460193823933       -1.16411667510794       -1.37822732290737
H            7.25371760811198        0.28821863042618       -1.30598269696985

          :  Hamiltonian                  GFN2-xTB          :
         :: gradient norm              0.000029825738 Eh/a0 ::
         :: HOMO-LUMO gap              1.465822507870 eV    ::
         :: SCC energy              -119.535348088108 Eh    ::
         :: -> dispersion             -0.101336197213 Eh    ::
         :: -> Gsolv                  -0.052243176327 Eh    ::
         :: repulsion energy           2.178748280285 Eh    ::

    * Orbital Energies and Occupations

         #    Occupation            Energy/Eh            Energy/eV
      -------------------------------------------------------------
         1        2.0000           -0.7099839             -19.3196
       ...           ...                  ...                  ...
        97        2.0000           -0.4171235             -11.3505
        98        2.0000           -0.4164558             -11.3323
        99        2.0000           -0.4158702             -11.3164
       100        2.0000           -0.4103667             -11.1666
       101        2.0000           -0.4070605             -11.0767
       102        2.0000           -0.4064102             -11.0590
       103        2.0000           -0.4040652             -10.9952
       104        2.0000           -0.4029675             -10.9653
       105        2.0000           -0.3974741             -10.8158
       106        2.0000           -0.3952196             -10.7545
       107        2.0000           -0.3809306             -10.3656
       108        2.0000           -0.3665701              -9.9749
       109        2.0000           -0.3466429              -9.4326 (HOMO)
       110                         -0.2927749              -7.9668 (LUMO)
       111                         -0.2487769              -6.7696
       112                         -0.2439623              -6.6386
       113                         -0.2410056              -6.5581
       114                         -0.2393110              -6.5120
       115                         -0.2341792              -6.3723
       116                         -0.2296276              -6.2485
       117                         -0.2262366              -6.1562
       118                         -0.2210518              -6.0151
       119                         -0.2201301              -5.9900
       120                         -0.2178162              -5.9271
       ...                                ...                  ...
       214                          0.7435362              20.2327
      -------------------------------------------------------------
                  HL-Gap            0.0538680 Eh            1.4658 eV

     #   Z          covCN         q      C6AA      α(0)
     1   8 O        0.858    -0.424    22.173     6.313
     2   6 C        2.829     0.226    23.249     7.901
     3   6 C        2.972    -0.013    28.344     8.733
     4   6 C        2.921    -0.026    28.650     8.778
     5   6 C        2.918    -0.026    28.656     8.778
     6   6 C        2.920    -0.022    28.546     8.762
     7   6 C        2.917    -0.026    28.649     8.777
     8   6 C        2.924    -0.017    28.440     8.745
     9   6 C        2.971    -0.018    28.446     8.748
    10   6 C        2.924    -0.016    28.412     8.741
    11   6 C        2.919    -0.041    29.021     8.834
    12   6 C        2.912     0.072    26.383     8.423
    13   7 N        2.801    -0.038    21.974     6.962
    14   6 C        3.070     0.046    26.897     8.504
    15   6 C        2.910    -0.051    29.269     8.871
    16   6 C        2.924    -0.034    28.846     8.808
    17   6 C        2.920    -0.041    29.015     8.833
    18   6 C        2.912    -0.034    28.836     8.806
    19   6 C        3.067    -0.016    28.339     8.729
    20   6 C        3.063    -0.017    28.362     8.733
    21   6 C        2.918    -0.039    28.975     8.827
    22   6 C        2.975     0.000    28.020     8.683
    23   6 C        2.976     0.001    27.995     8.679
    24   6 C        2.924    -0.036    28.895     8.815
    25   6 C        2.920    -0.049    29.219     8.864
    26   6 C        2.923     0.063    26.584     8.455
    27   7 N        2.752    -0.080    22.800     7.092
    28   6 C        2.923     0.066    26.525     8.446
    29   6 C        2.922    -0.048    29.201     8.862
    30   6 C        2.919    -0.030    28.761     8.794
    31   6 C        2.919    -0.040    28.989     8.829
    32   6 C        2.919    -0.030    28.760     8.794
    33   6 C        2.922    -0.048    29.198     8.861
    34   6 C        2.923     0.066    26.525     8.446
    35   6 C        2.922    -0.048    29.197     8.861
    36   6 C        2.919    -0.030    28.760     8.794
    37   6 C        2.919    -0.040    28.986     8.829
    38   6 C        2.919    -0.030    28.760     8.794
    39   6 C        2.922    -0.048    29.195     8.861
    40   6 C        2.920    -0.049    29.218     8.864
    41   6 C        2.924    -0.036    28.892     8.815
    42   6 C        2.929    -0.039    28.961     8.826
    43   6 C        2.908    -0.051    29.278     8.872
    44   6 C        3.071     0.044    26.938     8.510
    45   6 C        2.920    -0.042    29.031     8.836
    46   6 C        2.920    -0.025    28.616     8.772
    47   1 H        0.926     0.043     2.406     2.426
    48   1 H        0.926     0.047     2.361     2.403
    49   1 H        0.926     0.047     2.357     2.401
    50   1 H        0.926     0.045     2.387     2.416
    51   1 H        0.926     0.043     2.405     2.425
    52   1 H        0.926     0.051     2.304     2.374
    53   1 H        0.926     0.053     2.281     2.362
    54   1 H        0.926     0.033     2.542     2.493
    55   1 H        0.926     0.033     2.544     2.494
    56   1 H        0.926     0.030     2.579     2.512
    57   1 H        0.926     0.033     2.543     2.494
    58   1 H        0.926     0.035     2.514     2.480
    59   1 H        0.926     0.034     2.530     2.487
    60   1 H        0.926     0.031     2.578     2.511
    61   1 H        0.926     0.031     2.575     2.509
    62   1 H        0.926     0.033     2.549     2.497
    63   1 H        0.926     0.031     2.569     2.507
    64   1 H        0.926     0.033     2.550     2.497
    65   1 H        0.926     0.031     2.572     2.508
    66   1 H        0.926     0.031     2.575     2.509
    67   1 H        0.926     0.033     2.548     2.496
    68   1 H        0.926     0.031     2.567     2.505
    69   1 H        0.926     0.033     2.546     2.495
    70   1 H        0.926     0.031     2.569     2.507
    71   1 H        0.926     0.031     2.574     2.509
    72   1 H        0.926     0.034     2.525     2.485
    73   1 H        0.926     0.034     2.526     2.485
    74   1 H        0.926     0.032     2.553     2.499
    75   1 H        0.926     0.055     2.259     2.351
    76   1 H        0.926     0.051     2.303     2.373

molecular dipole:
                 x           y           z       tot (Debye)
 q only:        0.387      -1.465      -0.446
   full:        0.430      -1.451      -0.454       4.017

 projected vibrational frequencies (cm⁻¹)
eigval :       -0.00    -0.00    -0.00     0.00     0.00     0.00
eigval :       10.03    12.75    18.86    22.47    30.83    36.34
eigval :       45.78    49.52    54.17    56.12    67.11    71.01
eigval :       79.65    90.84    98.43   111.74   114.73   137.52
eigval :      147.41   159.07   173.53   188.50   204.76   209.08
eigval :      232.34   236.05   265.00   274.68   280.06   307.98
eigval :      316.04   344.80   350.85   358.86   371.40   378.12
eigval :      378.33   381.04   388.31   389.01   392.65   400.09
eigval :      410.39   422.17   435.37   457.52   464.24   476.66
eigval :      487.71   492.02   513.43   534.62   549.40   551.11
eigval :      581.68   582.58   586.79   589.32   591.66   594.64
eigval :      600.18   609.78   618.93   621.70   637.67   658.98
eigval :      660.77   668.96   674.36   678.14   691.74   693.92
eigval :      707.52   713.16   730.96   750.70   756.03   759.84
eigval :      773.95   775.47   806.70   816.98   829.87   833.00
eigval :      866.43   868.92   873.21   875.32   875.77   877.35
eigval :      881.82   889.56   891.56   899.64   902.73   903.23
eigval :      909.21   910.66   911.95   916.82   921.72   924.61
eigval :      926.54   927.36   927.87   929.14   929.46   929.65
eigval :      932.55   934.40   938.63   948.91   982.60   994.41
eigval :     1003.88  1008.09  1022.76  1027.47  1071.70  1075.26
eigval :     1079.55  1082.00  1082.98  1118.36  1120.46  1121.78
eigval :     1122.94  1133.94  1141.27  1157.08  1175.15  1178.05
eigval :     1178.44  1178.48  1179.25  1181.14  1185.26  1191.77
eigval :     1194.78  1196.61  1205.85  1214.93  1221.08  1243.51
eigval :     1259.48  1262.25  1263.80  1270.72  1276.00  1277.57
eigval :     1280.35  1286.14  1305.71  1310.49  1315.60  1319.22
eigval :     1322.00  1324.03  1324.65  1328.40  1347.70  1358.32
eigval :     1366.80  1405.31  1407.96  1420.16  1426.31  1426.65
eigval :     1434.37  1441.24  1459.18  1464.14  1470.63  1473.43
eigval :     1481.18  1483.85  1499.52  1551.39  1555.47  1567.95
eigval :     1575.30  1576.35  1577.16  1579.18  1583.72  1587.89
eigval :     1590.59  1591.69  1596.49  1600.54  1611.92  1647.00
eigval :     3070.86  3071.24  3071.55  3071.98  3072.42  3074.07
eigval :     3074.13  3076.68  3078.30  3079.63  3079.80  3081.38
eigval :     3082.05  3083.07  3083.62  3084.10  3084.44  3085.53
eigval :     3086.68  3087.45  3088.40  3088.83  3089.25  3092.07
eigval :     3093.07  3093.79  3095.35  3095.84  3098.44  3100.04

   temp. (K)  partition function   enthalpy   heat capacity  entropy
                                   cal/mol     cal/K/mol   cal/K/mol   J/K/mol
 298.15  VIB  0.958E+17            21446.638    135.505    134.145
         ROT  0.115E+09              888.752      2.981     39.858
         INT  0.110E+26            22335.390    138.486    174.003
         TR   0.139E+29             1481.254      4.968     44.992
         TOT                       23816.6440   143.4538   218.9948   916.2743

       T/K    H(0)-H(T)+PV         H(T)/Eh          T*S/Eh         G(T)/Eh
   ------------------------------------------------------------------------
    298.15    0.379542E-01    0.624633E+00    0.104052E+00    0.520582E+00
   ------------------------------------------------------------------------

         :::::::::::::::::::::::::::::::::::::::::::::::::::::
         ::                  THERMODYNAMIC                  ::
         :::::::::::::::::::::::::::::::::::::::::::::::::::::
         :: total free energy        -116.836018262396 Eh   ::
         ::.................................................::
         :: total energy             -117.356599803780 Eh   ::
         :: zero point energy           0.586678806616 Eh   ::
         :: G(RRHO) w/o ZPVE           -0.066097265232 Eh   ::
         :: G(RRHO) contrib.            0.520581541384 Eh   ::
         :::::::::::::::::::::::::::::::::::::::::::::::::::::

           -------------------------------------------------
          | TOTAL ENERGY             -117.356599803780 Eh   |
          | TOTAL ENTHALPY           -116.731966759108 Eh   |
          | TOTAL FREE ENERGY        -116.836018262396 Eh   |
          | GRADIENT NORM               0.000029850302 Eh/α |
          | HOMO-LUMO GAP               1.465822974112 eV   |
           -------------------------------------------------

 * finished run on 2025/07/18 at 14:44:37.027
