   * xtb version 6.7.1 (edcfbbe) compiled by 'albert@albert-system' on 2024-07-22

   ID    Z sym.   atoms
    1    6 C      1, 2, 4, 6-32, 34-58
    2    7 N      3, 5, 33, 59
    3    1 H      60-99

          program call               : xtb data2507/gas/1MPA/1MPA_gas_T1_crest.xyz --gfn 2 --spinpol --tblite --uhf 2 --ohess vtight --parallel 40 --molden --ceasefiles --namespace data2507/gas/1MPA/1MPA_gas_T1_finalOpt
 * total energy  :  -149.8317066 Eh     change        0.1781956E-08 Eh
 * total energy  :  -149.8317748 Eh     change       -0.6822196E-04 Eh
 * total energy  :  -149.8318006 Eh     change       -0.2578133E-04 Eh
 * total energy  :  -149.8318048 Eh     change       -0.4211663E-05 Eh
 * total energy  :  -149.8318088 Eh     change       -0.3960211E-05 Eh
 * total energy  :  -149.8318116 Eh     change       -0.2846778E-05 Eh
 * total energy  :  -149.8318140 Eh     change       -0.2366767E-05 Eh
 * total energy  :  -149.8318152 Eh     change       -0.1273680E-05 Eh
 * total energy  :  -149.8318164 Eh     change       -0.1130994E-05 Eh
 * total energy  :  -149.8318175 Eh     change       -0.1136860E-05 Eh
 * total energy  :  -149.8318221 Eh     change       -0.1035187E-05 Eh
 * total energy  :  -149.8318230 Eh     change       -0.8895532E-06 Eh
 * total energy  :  -149.8318235 Eh     change       -0.5303505E-06 Eh
 * total energy  :  -149.8318241 Eh     change       -0.5640990E-06 Eh
 * total energy  :  -149.8318245 Eh     change       -0.4726619E-06 Eh
 * total energy  :  -149.8318250 Eh     change       -0.4164105E-06 Eh
 * total energy  :  -149.8318253 Eh     change       -0.2952104E-06 Eh
 * total energy  :  -149.8318252 Eh     change        0.4819026E-07 Eh
 * total energy  :  -149.8318253 Eh     change       -0.5905488E-07 Eh
   *** GEOMETRY OPTIMIZATION CONVERGED AFTER 23 ITERATIONS ***

 final structure:
================
99
 xtb: 6.7.1 (edcfbbe)
C            0.05665874598256       -5.84625603667868       -0.08767270766106
C            0.04018710493799       -4.35191945599421       -0.06737423278518
N            1.18920100783104       -3.73082924961652       -0.22868163283400
C            1.19491601564617       -2.34767360085302       -0.24438208189604
N            2.36679423720863       -1.62250134745434       -0.46930890421012
C            3.51926731692991       -1.80786717885334        0.28430144090325
C            3.82937858426972       -3.05830443203904        0.81893188113450
C            5.00950699246230       -3.23978162685275        1.51033585724863
C            5.88276231815550       -2.17828092088965        1.68893356303336
C            5.56358323289885       -0.92724955140765        1.18534839352804
C            4.38706092074619       -0.72345494030150        0.48442648337184
C            3.94413528771446        0.64580916432448        0.01067039682522
C            2.87142958725647        1.20681715570158        0.94940922113873
C            2.47890988565633        0.55397324987431        2.10936225533411
C            1.44357369781367        1.05309765226426        2.88206487866509
C            0.78735439437589        2.21218745871628        2.51247813545455
C            1.19001453148926        2.88585038320558        1.37125703696103
C            2.22024015584589        2.38541205466004        0.59727086410491
C            5.14524798351143        1.56104681436545       -0.11494030656734
C            6.08912071599667        1.28605220065290       -1.10098120080094
C            7.21601665060210        2.07350368830961       -1.23815301920553
C            7.42225684304468        3.14561875815681       -0.38507919355819
C            6.49828019963085        3.41499066472871        0.60822517210037
C            5.36787838408782        2.62608647743888        0.74589526704000
C            3.21889813456928        0.47444252934845       -1.31229711507371
C            3.26363349962578        1.41246576234034       -2.32938772571687
C            2.47993561024080        1.27035503487166       -3.46286736073725
C            1.62400305022255        0.18348638823143       -3.57964365372577
C            1.56441130502520       -0.76004922072510       -2.57886842508214
C            2.36524984527045       -0.63169864192675       -1.43991005357621
C            0.02484005396665       -1.64798807890390        0.00183211403120
C           -1.14059500575687       -2.37548383091483        0.20360203996144
N           -2.32626196798043       -1.67644538862451        0.43825813195502
C           -2.36379325473251       -0.75413903684901        1.47343824993023
C           -1.62212427902979       -0.96989795099028        2.63835027789264
C           -1.72172876118639       -0.09187115637077        3.69472586577546
C           -2.54206648939719        1.02442388805252        3.60065332502453
C           -3.26544296827780        1.25347744593463        2.44134943562656
C           -3.19533690001637        0.37222965160832        1.37654705767311
C           -3.91027092478281        0.60444833240704        0.06290927273959
C           -5.08866036710715        1.53535359970533        0.27046594399928
C           -5.14047106580928        2.81257157208784       -0.26813161707901
C           -6.23305428011840        3.63054354752746       -0.02976252743446
C           -7.28282427156942        3.18525825717964        0.75273313906320
C           -7.23271198305736        1.91573348487384        1.30578117979734
C           -6.14331029672747        1.09994847543206        1.06895529066821
C           -2.91974873620572        1.14352659945189       -0.97420364810096
C           -1.64895125932623        1.58173111774493       -0.62601604165329
C           -0.76364419924596        2.01709865906057       -1.59799484967051
C           -1.14004195348350        2.03965503812318       -2.92787011146797
C           -2.41126580118127        1.62128285881045       -3.28264851890371
C           -3.28950699464452        1.17079926819035       -2.31517543861726
C           -4.35090025688265       -0.74725198982611       -0.47336237940671
C           -5.52581658110226       -0.92971052206706       -1.18305164343174
C           -5.81284335497679       -2.14572460935666       -1.78256656081118
C           -4.90669282745152       -3.19104567100860       -1.69532731001223
C           -3.73218042925136       -3.03278677390944       -0.98988362239860
C           -3.45676773227055       -1.82145562990042       -0.35461346492986
N           -1.11343562548988       -3.75633595275185        0.11943760886171
H            0.70741594332767       -6.19932609122644       -0.88324007661824
H           -0.95117370009000       -6.22568130431158       -0.22526963906539
H            0.44716558360961       -6.21497326284500        0.85961089231449
H            3.13692192768415       -3.87220492825665        0.67002043366129
H            5.24765887352970       -4.21163469567628        1.91605557884540
H            6.80220970499500       -2.31612021520676        2.23737147851913
H            6.23106367020234       -0.09625950299113        1.35810473583080
H            2.97933770924036       -0.34985764994166        2.42289155807951
H            1.14941079785109        0.52682849212134        3.77724236753304
H           -0.03044417447828        2.58882096442188        3.10864144969071
H            0.69411606255649        3.80009586609863        1.07832852023799
H            2.52642797484897        2.91585179041452       -0.29294145955199
H            5.93384448770240        0.44512995810608       -1.76212899259188
H            7.93698775926843        1.84912663039892       -2.01062060634049
H            8.30203820903554        3.76290813360297       -0.49138609092732
H            6.65652422209819        4.24216163719707        1.28488789448221
H            4.66049199128675        2.84174995710645        1.53302507562216
H            3.91897322304299        2.26681887649325       -2.23894450398950
H            2.53260117287577        2.00967394626441       -4.24759701730131
H            1.00790211366857        0.06853355647642       -4.45849853980674
H            0.91275365570688       -1.61578152903200       -2.66898128398654
H            0.01881494454636       -0.56843269835599        0.02645976049767
H           -0.99113607887533       -1.84355666360288        2.70286138291085
H           -1.16672037794684       -0.27897362488107        4.60180190726264
H           -2.61568235120030        1.71622952898305        4.42597977155435
H           -3.88731972577382        2.13294093938536        2.36347361811884
H           -4.32473709962396        3.17657516455316       -0.87500744208795
H           -6.25988750345546        4.62196433752317       -0.45815564037081
H           -8.13420283829465        3.82409899696778        0.93555202791613
H           -8.04435755389273        1.56174063982026        1.92446709448231
H           -6.10283535888351        0.11199370178546        1.50573351298738
H           -1.33828458367697        1.59319635726806        0.40906814047740
H            0.22698901509012        2.33509487188901       -1.30962590491697
H           -0.44745756779788        2.38337369243893       -3.68096929648738
H           -2.72031484526594        1.64025726746275       -4.31766334021584
H           -4.27572592038286        0.83829614026186       -2.60373427707306
H           -6.22319266179422       -0.11019840373652       -1.28034543760809
H           -6.73260738485675       -2.26695292690021       -2.33460669832980
H           -5.11761702867479       -4.13254414996650       -2.17991173883693
H           -3.01951462225540       -3.83793263592702       -0.90332569861480

 projected vibrational frequencies (cm⁻¹)
eigval :       -0.00    -0.00    -0.00     0.00     0.00     0.00
eigval :       -1.39    12.97    17.67    23.48    25.61    30.34
eigval :       40.81    44.55    46.48    50.04    53.25    61.53
eigval :       62.64    66.10    69.42    72.52    75.56    84.13
eigval :       93.53    94.88    99.91   126.39   133.11   142.74
eigval :      162.92   164.79   170.35   180.50   182.88   204.02
eigval :      224.82   230.24   234.27   236.06   238.72   248.15
eigval :      259.46   261.47   276.09   280.56   286.45   290.84
eigval :      302.98   305.31   318.11   337.16   370.41   371.10
eigval :      374.11   374.53   375.93   377.99   394.56   398.51
eigval :      407.38   419.67   435.77   439.17   443.62   446.78
eigval :      457.35   463.68   472.12   475.18   484.16   495.55
eigval :      497.51   511.01   512.71   514.13   523.78   532.46
eigval :      569.73   583.30   588.05   588.12   588.65   588.78
eigval :      594.84   598.54   602.76   605.30   608.73   609.65
eigval :      612.92   627.13   643.75   669.56   672.20   674.19
eigval :      674.83   678.34   686.91   687.89   692.54   700.69
eigval :      702.30   746.29   753.69   755.41   757.42   761.05
eigval :      774.69   775.38   778.93   779.81   832.12   837.06
eigval :      870.66   871.86   878.64   878.91   879.29   880.91
eigval :      881.64   882.01   888.72   889.87   899.47   899.82
eigval :      901.84   903.61   904.79   905.44   911.32   912.80
eigval :      915.57   917.59   918.34   919.82   920.67   921.18
eigval :      923.96   924.64   925.68   931.23   931.71   932.65
eigval :      932.83   934.16   934.59   934.82   937.56   938.80
eigval :      948.79   954.48   962.43   985.74   986.79  1000.99
eigval :     1001.47  1011.00  1026.14  1085.52  1087.92  1090.10
eigval :     1091.39  1091.94  1093.45  1093.70  1095.36  1097.00
eigval :     1116.43  1116.85  1125.98  1126.71  1129.11  1130.96
eigval :     1133.73  1137.72  1173.30  1176.15  1176.40  1177.49
eigval :     1180.08  1180.71  1182.16  1182.28  1182.36  1183.36
eigval :     1185.28  1196.44  1199.98  1204.99  1205.36  1208.64
eigval :     1209.79  1213.60  1215.17  1235.84  1242.60  1255.98
eigval :     1256.63  1258.12  1259.42  1261.65  1262.86  1287.74
eigval :     1287.89  1290.72  1291.74  1301.98  1306.28  1313.23
eigval :     1318.23  1318.62  1321.39  1322.40  1326.38  1328.31
eigval :     1336.50  1336.78  1349.37  1375.89  1385.34  1410.27
eigval :     1423.17  1425.62  1429.87  1430.52  1433.11  1434.37
eigval :     1436.50  1436.68  1443.37  1449.16  1450.61  1460.78
eigval :     1468.53  1469.08  1472.51  1473.89  1475.19  1477.02
eigval :     1477.39  1539.98  1540.99  1558.55  1559.46  1561.19
eigval :     1563.52  1580.65  1584.91  1586.81  1587.66  1589.14
eigval :     1589.26  1598.14  1599.01  1602.31  1602.39  3012.89
eigval :     3042.07  3059.85  3071.57  3071.80  3072.80  3074.39
eigval :     3074.45  3075.35  3076.98  3077.81  3078.58  3078.69
eigval :     3081.03  3081.80  3081.82  3082.23  3083.19  3083.69
eigval :     3083.91  3084.98  3086.75  3087.54  3087.85  3088.87
eigval :     3089.57  3091.39  3091.88  3092.46  3092.60  3093.94
eigval :     3094.24  3094.60  3095.84  3097.35  3098.89  3099.31
eigval :     3100.28  3100.61  3101.07

   temp. (K)  partition function   enthalpy   heat capacity  entropy
                                   cal/mol     cal/K/mol   cal/K/mol   J/K/mol
 298.15  VIB  0.802E+23            28484.484    179.389    179.932
         ROT  0.875E+08              888.752      2.981     39.322
         INT  0.702E+31            29373.237    182.370    219.254
         TR   0.201E+29             1481.254      4.968     45.731
         TOT                       30854.4906   187.3381   264.9846  1108.6956

       T/K    H(0)-H(T)+PV         H(T)/Eh          T*S/Eh         G(T)/Eh
   ------------------------------------------------------------------------
    298.15    0.491698E-01    0.817725E+00    0.125903E+00    0.691823E+00
   ------------------------------------------------------------------------

         :::::::::::::::::::::::::::::::::::::::::::::::::::::
         ::                  THERMODYNAMIC                  ::
         :::::::::::::::::::::::::::::::::::::::::::::::::::::
         :: total free energy        -149.140002563757 Eh   ::
         ::.................................................::
         :: total energy             -149.831825287919 Eh   ::
         :: zero point energy           0.768555697253 Eh   ::
         :: G(RRHO) w/o ZPVE           -0.076732973091 Eh   ::
         :: G(RRHO) contrib.            0.691822724162 Eh   ::
         :::::::::::::::::::::::::::::::::::::::::::::::::::::

           -------------------------------------------------
          | TOTAL ENERGY             -149.831825287919 Eh   |
          | TOTAL ENTHALPY           -149.014099830133 Eh   |
          | TOTAL FREE ENERGY        -149.140002563757 Eh   |
          | GRADIENT NORM               0.000106077638 Eh/α |
           -------------------------------------------------

 * finished run on 2025/09/12 at 09:26:56.094
