   * xtb version 6.7.1 (edcfbbe) compiled by 'albert@albert-system' on 2024-07-22

   ID    Z sym.   atoms
    1    6 C      1, 2, 4, 6-32, 34-58
    2    7 N      3, 5, 33, 59
    3    1 H      60-99

          program call               : xtb data2507/gas/1MPA/1MPA_gas_S0_finalOpt.xtbopt.xyz --gfn 2 --spinpol --tblite --uhf 2 --ohess vtight --parallel 40 --molden --ceasefiles --namespace data2507/gas/1MPA/1MPA_gas_T1_preOpt
 * total energy  :  -149.8212259 Eh     change       -0.7855903E-08 Eh
 * total energy  :  -149.8253016 Eh     change       -0.4075739E-02 Eh
 * total energy  :  -149.8267436 Eh     change       -0.1442024E-02 Eh
 * total energy  :  -149.8269719 Eh     change       -0.2282264E-03 Eh
 * total energy  :  -149.8272498 Eh     change       -0.2779645E-03 Eh
 * total energy  :  -149.8273325 Eh     change       -0.8269820E-04 Eh
 * total energy  :  -149.8274201 Eh     change       -0.8755957E-04 Eh
 * total energy  :  -149.8274642 Eh     change       -0.4413824E-04 Eh
 * total energy  :  -149.8275004 Eh     change       -0.3622396E-04 Eh
 * total energy  :  -149.8275340 Eh     change       -0.3352263E-04 Eh
 * total energy  :  -149.8281760 Eh     change       -0.2028717E-06 Eh
 * total energy  :  -149.8281760 Eh     change        0.4821521E-07 Eh
 * total energy  :  -149.8281762 Eh     change       -0.2031998E-06 Eh
 * total energy  :  -149.8281763 Eh     change       -0.1517206E-06 Eh
 * total energy  :  -149.8281763 Eh     change        0.8843824E-07 Eh
 * total energy  :  -149.8281764 Eh     change       -0.1128111E-06 Eh
 * total energy  :  -149.8281763 Eh     change        0.6890033E-07 Eh
 * total energy  :  -149.8281764 Eh     change       -0.1140723E-06 Eh
 * total energy  :  -149.8281764 Eh     change       -0.1424146E-07 Eh
   *** GEOMETRY OPTIMIZATION CONVERGED AFTER 87 ITERATIONS ***

 final structure:
================
99
 xtb: 6.7.1 (edcfbbe)
C           -1.15240574170506       -5.12713676561808       -0.71812779092672
C           -0.76776106177091       -3.82227826403421       -0.10647174128158
N            0.46701942304455       -3.42793172169119       -0.18002724174058
C            0.84771350175129       -2.23615854497926        0.37459031088323
N            2.13328976972424       -1.71319761723962        0.22680283916634
C            2.80791265928478       -1.31117736529246        1.36617487290356
C            2.53991879476372       -1.93018207934376        2.59443000034362
C            3.23640734660495       -1.56568663840009        3.72367968683569
C            4.20937914007648       -0.57533029037813        3.65516326478130
C            4.47326858684411        0.04828423479753        2.44541077844151
C            3.78687163663293       -0.30559091697432        1.29695096403775
C            3.97544534227406        0.42390593245366       -0.01467307117639
C            2.89695656951556        1.50334927940313       -0.16265961220659
C            2.01864110016314        1.81675472195733        0.86631058194825
C            1.03813852454557        2.77902012579593        0.69013467731171
C            0.92366617187185        3.44828174365590       -0.51466706158912
C            1.80082430788612        3.14998407332027       -1.54413595539751
C            2.77411617035120        2.18312598531254       -1.37056945748152
C            5.37698401718291        1.00401099643974       -0.07144131418635
C            6.45224975800301        0.12171333305832       -0.13369194075004
C            7.75070167416805        0.59258878528913       -0.15929753455572
C            7.99618599957354        1.95551720035666       -0.11476361288652
C            6.93416342043095        2.83792310861386       -0.03658913553959
C            5.63168447204438        2.36637656032323       -0.01170697237204
C            3.73304408267598       -0.55007321861866       -1.15365958068531
C            4.38516505904624       -0.43899334972856       -2.37090535153931
C            4.04402047824175       -1.25070993605455       -3.44097057940405
C            3.02305191186993       -2.17890912856876       -3.30538803306273
C            2.36454814461757       -2.31207642614382       -2.10174156132802
C            2.72747742428661       -1.51856296613796       -1.01037668118031
C           -0.13294563954433       -1.40521835407458        0.96961508786949
C           -1.42479388382514       -1.86859685485110        0.97880931924789
N           -2.49493490929511       -1.09574148725821        1.36408825358364
C           -2.35389321932668        0.23423047120551        1.78457912095384
C           -1.58474247983395        0.57478085012850        2.89132304177327
C           -1.52068723434182        1.89369363035910        3.29932179548278
C           -2.22415374112213        2.87117701465037        2.61211804272918
C           -2.99392835554118        2.53242308694813        1.50904171491873
C           -3.06834594270465        1.21753240422662        1.08844245930938
C           -3.80429529243817        0.72332640381919       -0.14463538282685
C           -4.71346489528395        1.78049798354943       -0.72539253336976
C           -4.55737822758537        2.26203752720663       -2.01700271796186
C           -5.41220524384399        3.23297699320710       -2.51236753345816
C           -6.43188399570183        3.73510368675162       -1.72420234873220
C           -6.59339507327951        3.26212051575882       -0.43201760624348
C           -5.74083147039290        2.29364876287034        0.06290407405937
C           -2.74752008123048        0.23534683176849       -1.14240761438172
C           -1.48179801778850        0.80766039253534       -1.17985505425022
C           -0.49897330721548        0.29608602597080       -2.00868979223422
C           -0.77004839553021       -0.78734548163928       -2.82470501628431
C           -2.03946566235043       -1.33845595295431       -2.82377965615812
C           -3.02094874065930       -0.83048993002374       -1.99208988043317
C           -4.56780657548589       -0.51146833051237        0.31062364142817
C           -5.87910825730179       -0.80801985766266       -0.00963903508684
C           -6.42949853707761       -2.02739300309510        0.35860438548348
C           -5.66321978914559       -2.96371690061831        1.03404681495194
C           -4.35253042634965       -2.68027775324367        1.36984929492552
C           -3.80649263662976       -1.45513107408481        1.01237886434962
N           -1.72691950631569       -3.12473298659199        0.50653122902867
H           -1.64133376176081       -5.75268430512868        0.02533907631564
H           -0.27142622757991       -5.63066313307329       -1.10440986584678
H           -1.86145085664897       -4.95294460735686       -1.52558215960084
H            1.79210506914247       -2.70774790896611        2.63219747242302
H            3.02721955318519       -2.05404759023934        4.66359520182163
H            4.75299982064099       -0.28418864412368        4.54047599750705
H            5.21555726421517        0.83120154966597        2.39901133583803
H            2.09778073209533        1.31927000645527        1.82150211530951
H            0.35868368046722        2.99979513804950        1.50075358416149
H            0.15679723139134        4.19626656131316       -0.65182729359127
H            1.72359010443193        3.66730493937881       -2.48932747510852
H            3.44697826907359        1.95471885067034       -2.18377925006252
H            6.26272611195974       -0.94211074715632       -0.16223682750083
H            8.57379817116258       -0.10488297063616       -0.21167574111053
H            9.01045938932034        2.32575200675980       -0.13544577018860
H            7.11629459852804        3.90181452654101        0.00846870215648
H            4.81341238035363        3.06756091208423        0.05938333594892
H            5.16974853706768        0.29434843180655       -2.48953804175910
H            4.56240299367296       -1.14396924509403       -4.38178503497084
H            2.74102360300054       -2.80001623501695       -4.14255860773833
H            1.57542888881909       -3.03676695214476       -1.97674026156574
H            0.13216991268982       -0.41367131985097        1.29641036259769
H           -1.05252057292377       -0.19584065809914        3.42885986732509
H           -0.92199467050761        2.15984081312778        4.15807271793826
H           -2.16822835683405        3.90193817261066        2.92915121719715
H           -3.52033105958020        3.30265838172958        0.96505318035665
H           -3.76444547663086        1.87850277699448       -2.64198303430610
H           -5.27840070758378        3.59729834100656       -3.52062635513358
H           -7.09790215957142        4.49149434179561       -2.11262849336868
H           -7.38621411067632        3.64913923803945        0.19162702379912
H           -5.86833091644226        1.92681774852344        1.07182348080798
H           -1.25015173909230        1.65172732707071       -0.54699565411464
H            0.48492528662309        0.74191027888496       -2.00721830084373
H            0.00448062939328       -1.19531715993881       -3.45707885887230
H           -2.26709252855900       -2.17649898658411       -3.46654663597712
H           -4.00423639360724       -1.27762313154947       -1.99390813524015
H           -6.47019205862891       -0.10050319881015       -0.57251552414417
H           -7.45386818038182       -2.24990399768101        0.10014418344016
H           -6.09138763943734       -3.91708998499044        1.30542503469443
H           -3.74465461708626       -3.39787334148554        1.89640233700801

 projected vibrational frequencies (cm⁻¹)
eigval :       -0.00    -0.00    -0.00    -0.00    -0.00     0.00
eigval :       14.82    17.39    18.61    24.68    32.73    41.22
eigval :       41.74    46.66    51.07    54.10    58.27    60.20
eigval :       62.00    66.29    69.80    73.16    78.11    83.50
eigval :       87.27    89.79    93.97   125.26   130.34   141.75
eigval :      144.09   164.58   169.16   179.29   189.22   199.54
eigval :      221.97   230.90   233.96   237.35   240.15   246.73
eigval :      259.38   260.94   262.69   276.66   283.17   293.04
eigval :      301.64   314.98   322.31   332.44   361.98   369.42
eigval :      372.08   374.79   375.33   376.36   385.58   395.44
eigval :      402.55   418.35   430.53   436.41   441.79   449.10
eigval :      454.62   464.41   471.25   473.48   477.34   492.82
eigval :      504.30   508.60   510.21   515.67   520.54   522.90
eigval :      554.91   581.42   587.88   588.36   588.52   588.68
eigval :      592.41   600.24   603.38   603.94   607.74   608.52
eigval :      611.86   623.51   642.64   670.07   673.47   673.90
eigval :      674.28   679.92   685.46   690.69   691.83   698.80
eigval :      707.86   747.23   754.63   755.14   757.79   760.64
eigval :      768.15   772.07   773.77   778.74   785.87   828.31
eigval :      864.78   866.93   876.45   879.44   880.54   880.91
eigval :      881.98   882.77   885.19   889.90   897.73   899.06
eigval :      901.88   902.53   903.91   904.68   908.80   909.96
eigval :      912.73   914.51   915.69   917.30   917.34   920.32
eigval :      923.35   924.58   925.18   930.75   931.93   932.35
eigval :      932.63   933.41   934.33   935.93   938.92   939.58
eigval :      944.23   947.41   964.77   985.20   987.03   999.55
eigval :     1003.71  1010.84  1027.98  1074.05  1087.39  1087.78
eigval :     1088.48  1089.02  1089.77  1091.38  1092.39  1096.68
eigval :     1111.07  1116.10  1117.25  1125.59  1126.93  1129.16
eigval :     1130.08  1133.58  1171.31  1172.62  1175.26  1177.49
eigval :     1177.81  1180.29  1182.02  1182.28  1182.67  1182.82
eigval :     1185.80  1195.90  1198.78  1202.88  1204.79  1206.36
eigval :     1208.02  1210.11  1213.44  1234.21  1243.20  1252.04
eigval :     1252.46  1256.68  1261.35  1263.55  1265.41  1288.00
eigval :     1288.09  1289.79  1291.26  1295.44  1300.46  1317.16
eigval :     1318.81  1319.80  1320.87  1322.97  1328.53  1332.26
eigval :     1335.60  1336.89  1337.95  1367.59  1385.33  1412.74
eigval :     1427.83  1432.16  1432.75  1433.53  1435.43  1437.78
eigval :     1440.87  1445.21  1446.75  1452.74  1453.94  1463.74
eigval :     1466.58  1473.31  1474.10  1476.46  1476.64  1478.90
eigval :     1512.73  1536.17  1547.18  1548.28  1552.97  1555.86
eigval :     1565.68  1575.69  1584.53  1587.60  1588.04  1588.51
eigval :     1590.87  1596.34  1600.15  1601.68  1602.87  3013.62
eigval :     3030.03  3058.11  3070.13  3071.92  3073.12  3073.65
eigval :     3074.69  3075.04  3076.13  3077.57  3078.13  3078.58
eigval :     3080.29  3080.52  3082.03  3082.28  3082.49  3082.68
eigval :     3083.94  3086.83  3087.24  3087.89  3088.43  3089.71
eigval :     3090.03  3091.09  3093.15  3093.51  3093.89  3094.29
eigval :     3094.60  3094.81  3095.42  3095.97  3097.34  3100.23
eigval :     3101.65  3108.43  3110.90

   temp. (K)  partition function   enthalpy   heat capacity  entropy
                                   cal/mol     cal/K/mol   cal/K/mol   J/K/mol
 298.15  VIB  0.336E+22            28532.909    180.420    178.035
         ROT  0.837E+08              888.752      2.981     39.233
         INT  0.281E+30            29421.662    183.401    217.268
         TR   0.201E+29             1481.254      4.968     45.731
         TOT                       30902.9155   188.3690   262.9986  1100.3862

       T/K    H(0)-H(T)+PV         H(T)/Eh          T*S/Eh         G(T)/Eh
   ------------------------------------------------------------------------
    298.15    0.492469E-01    0.817296E+00    0.124959E+00    0.692337E+00
   ------------------------------------------------------------------------

         :::::::::::::::::::::::::::::::::::::::::::::::::::::
         ::                  THERMODYNAMIC                  ::
         :::::::::::::::::::::::::::::::::::::::::::::::::::::
         :: total free energy        -149.135839951073 Eh   ::
         ::.................................................::
         :: total energy             -149.828176487887 Eh   ::
         :: zero point energy           0.768048731029 Eh   ::
         :: G(RRHO) w/o ZPVE           -0.075712194215 Eh   ::
         :: G(RRHO) contrib.            0.692336536814 Eh   ::
         :::::::::::::::::::::::::::::::::::::::::::::::::::::

           -------------------------------------------------
          | TOTAL ENERGY             -149.828176487887 Eh   |
          | TOTAL ENTHALPY           -149.010880826324 Eh   |
          | TOTAL FREE ENERGY        -149.135839951073 Eh   |
          | GRADIENT NORM               0.000078009406 Eh/α |
           -------------------------------------------------

 * finished run on 2025/09/12 at 09:20:19.507
