   * xtb version 6.7.1 (edcfbbe) compiled by 'albert@albert-system' on 2024-07-22

   ID    Z sym.   atoms
    1    6 C      1, 2, 4, 6-32, 34-58
    2    7 N      3, 5, 33, 59
    3    1 H      60-99

          program call               : xtb data2507/gas/1MPA/1MPA_gas_S0_crest.xyz --gfn 2 --ohess vtight --parallel 40 --molden --ceasefiles --namespace data2507/gas/1MPA/1MPA_gas_S0_finalOpt
          :  Hamiltonian                  GFN2-xTB          :
 * total energy  :  -149.9332629 Eh     change       -0.6097679E-08 Eh
 * total energy  :  -149.9332653 Eh     change       -0.2384304E-05 Eh
 * total energy  :  -149.9332707 Eh     change       -0.5377529E-05 Eh
 * total energy  :  -149.9332751 Eh     change       -0.4444792E-05 Eh
 * total energy  :  -149.9332772 Eh     change       -0.2137574E-05 Eh
 * total energy  :  -149.9332793 Eh     change       -0.2060932E-05 Eh
 * total energy  :  -149.9332822 Eh     change       -0.2849665E-05 Eh
 * total energy  :  -149.9332855 Eh     change       -0.3369196E-05 Eh
 * total energy  :  -149.9332884 Eh     change       -0.2903159E-05 Eh
 * total energy  :  -149.9332906 Eh     change       -0.2201067E-05 Eh
 * total energy  :  -149.9333131 Eh     change       -0.2397679E-06 Eh
 * total energy  :  -149.9333135 Eh     change       -0.3447485E-06 Eh
 * total energy  :  -149.9333139 Eh     change       -0.4464556E-06 Eh
 * total energy  :  -149.9333142 Eh     change       -0.3268671E-06 Eh
 * total energy  :  -149.9333145 Eh     change       -0.2218805E-06 Eh
 * total energy  :  -149.9333147 Eh     change       -0.2671399E-06 Eh
 * total energy  :  -149.9333151 Eh     change       -0.3712487E-06 Eh
 * total energy  :  -149.9333154 Eh     change       -0.3061812E-06 Eh
 * total energy  :  -149.9333154 Eh     change       -0.4012492E-07 Eh
   *** GEOMETRY OPTIMIZATION CONVERGED AFTER 35 ITERATIONS ***

 final structure:
================
99
 xtb: 6.7.1 (edcfbbe)
C           -1.24507832746331       -4.87015294746766       -1.12158409425347
C           -0.85617692416904       -3.63234743236671       -0.38197419364143
N            0.41048032967373       -3.25227471951803       -0.46940516820581
C            0.76692953080163       -2.16548163231153        0.21208369005555
N            2.08030354464764       -1.70998407590153        0.14846751384954
C            2.70519564029057       -1.29115520548216        1.32397097729991
C            2.41869313080015       -1.92537132150449        2.53225204124248
C            3.07549258117483       -1.55410290749602        3.68779100706135
C            4.04045387657281       -0.56092323439212        3.64912938611514
C            4.33755095502973        0.06215483140862        2.45021992792949
C            3.67777632270934       -0.29043661676106        1.28206448302135
C            3.90530057202764        0.42832328215448       -0.03130171489201
C            2.81667400599626        1.48201006902686       -0.23607168462675
C            1.97028832885791        1.87564996649409        0.79231553368161
C            0.99514870744392        2.83503682991090        0.57798929381327
C            0.85233909943801        3.42083848665146       -0.66705983266685
C            1.69505270934166        3.04031413622815       -1.69783308161107
C            2.66540147340587        2.07823195694704       -1.48428764954447
C            5.29259920314045        1.04642068071631       -0.03319518475752
C            6.39257688217837        0.19352738195885        0.01476447814048
C            7.67773822737931        0.69904771806637        0.03718106019670
C            7.88573621745870        2.06893479721667        0.01842141852027
C            6.79885570669323        2.92308911403512       -0.01612786821155
C            5.50936052767338        2.41644632895281       -0.03901034616717
C            3.76334058939540       -0.58766231035114       -1.15487507776204
C            4.50300512026778       -0.48666612375499       -2.32435623445837
C            4.28773894208067       -1.35105920054967       -3.38262264589314
C            3.31818184171802       -2.33282709271108       -3.27675916578633
C            2.58593347795696       -2.46507909985486       -2.11336963815677
C            2.80013070810372       -1.59690043513157       -1.04667441485409
C           -0.14939679424346       -1.43943794422707        0.96365333073653
C           -1.46991650645991       -1.88425211484061        0.93041973439769
N           -2.49718448042089       -1.16589473379179        1.48030022641565
C           -2.32008347613272        0.17646084441216        1.88272153608615
C           -1.56899710900402        0.50283803933330        3.00159859881629
C           -1.44747309223544        1.82892548176980        3.37849721854871
C           -2.08060679975360        2.81816249522271        2.64536256364633
C           -2.83746838938162        2.49018176306279        1.53179175496060
C           -2.96830748898239        1.16772786042976        1.14267288333184
C           -3.72878716933942        0.68804610022537       -0.08273356930450
C           -4.60790755552525        1.77749519273151       -0.65432078802989
C           -4.43974877427054        2.26605328223602       -1.94160184022622
C           -5.26603644922436        3.26727591108983       -2.42533057448553
C           -6.26816603749665        3.79247498618206       -1.62975300297670
C           -6.44041031955810        3.31328188140106       -0.34117654119341
C           -5.61616298504452        2.31510021121836        0.14236163744563
C           -2.70853038015059        0.16120757390087       -1.09631882217445
C           -1.41719828047877        0.67124230621514       -1.14470611549885
C           -0.47373985409405        0.12438679814236       -1.99698978761167
C           -0.81021394057644       -0.93130438507261       -2.82476971393685
C           -2.10637211171999       -1.41687675887732       -2.81428873095365
C           -3.04820957824165       -0.87518890153073       -1.95886043704577
C           -4.53597575326244       -0.51750229821905        0.37936752652677
C           -5.85540516706245       -0.77024542353347        0.04400062060916
C           -6.45882487618912       -1.95319288154064        0.43972288946847
C           -5.74636417024274       -2.89637322209526        1.15993581832911
C           -4.42789792489347       -2.65633227266493        1.50479470312723
C           -3.83136960010387       -1.46935541500488        1.11668661558980
N           -1.80444254886901       -3.00790245803511        0.28584472950832
H           -2.29837333187893       -5.07439225715353       -0.95859047315889
H           -0.64301528219181       -5.70919992985954       -0.77993184118593
H           -1.05476427026462       -4.73190720610946       -2.18363773665719
H            1.68215249623525       -2.71498608660690        2.55303526241774
H            2.84139408292736       -2.04906899503709        4.61856911464582
H            4.55763575918019       -0.26877380415268        4.55033420811873
H            5.07933179557690        0.84648564881605        2.42392940208314
H            2.07193769629099        1.44154143560092        1.77611532515504
H            0.34320977225858        3.12140247690510        1.39090899673520
H            0.08994754191105        4.16764221173935       -0.83374452270638
H            1.59452272374633        3.49130326878290       -2.67435227977125
H            3.31417758223033        1.78687728287327       -2.29708477038121
H            6.23210336839372       -0.87520776772730        0.03336443938142
H            8.52000267838317        0.02354589588716        0.07111154212288
H            8.88981730587166        2.46642405734725        0.03509840416499
H            6.95080938730847        3.99275523991571       -0.02321632838852
H            4.67164021546351        3.09771966542547       -0.05833138827975
H            5.25524657351836        0.28420135371399       -2.41200781529214
H            4.87062220773682       -1.25104900030737       -4.28593773436616
H            3.13853946746349       -3.00936267762999       -4.09933822342530
H            1.83856039417524       -3.23421833920467       -2.01239852806867
H            0.14317980416048       -0.53368284190090        1.46545469916300
H           -1.08955795724192       -0.27916820990461        3.57129485726026
H           -0.85945796692286        2.08779755487520        4.24635321713664
H           -1.98434808993902        3.85321615874917        2.93866232897142
H           -3.31442038605465        3.27015284738153        0.95729832027740
H           -3.66003033659366        1.86494151267751       -2.57199613809967
H           -5.12354196124329        3.63697981376202       -3.43030459403906
H           -6.91208851508000        4.57196991443397       -2.00941487573214
H           -7.21904665297157        3.71868924620223        0.28846042941640
H           -5.75097394174864        1.94423551422241        1.14897071867796
H           -1.13295680638573        1.49193927553491       -0.50273275576731
H            0.53101778298733        0.51991891160354       -2.00277824748325
H           -0.06439939389562       -1.36992223457248       -3.47095330852346
H           -2.38645799246316       -2.23179523300678       -3.46548889326045
H           -4.05165380822838       -1.27418830964706       -1.95172570955509
H           -6.40969550877689       -0.05400957573844       -0.54441899551797
H           -7.48723430121727       -2.14193606546889        0.16986487230951
H           -6.21836591525010       -3.82133037831354        1.45519062477791
H           -3.85442451554225       -3.38221378265999        2.05792818478369

          :  Hamiltonian                  GFN2-xTB          :
         :: gradient norm              0.000110710214 Eh/a0 ::
         :: HOMO-LUMO gap              2.933657815312 eV    ::
         :: SCC energy              -152.716769690627 Eh    ::
         :: -> dispersion             -0.172192560997 Eh    ::
         :: repulsion energy           2.783454241133 Eh    ::

    * Orbital Energies and Occupations

         #    Occupation            Energy/Eh            Energy/eV
      -------------------------------------------------------------
         1        2.0000           -0.6751510             -18.3718
       ...           ...                  ...                  ...
       128        2.0000           -0.4030800             -10.9684
       129        2.0000           -0.4014007             -10.9227
       130        2.0000           -0.4006479             -10.9022
       131        2.0000           -0.3987277             -10.8499
       132        2.0000           -0.3981163             -10.8333
       133        2.0000           -0.3945271             -10.7356
       134        2.0000           -0.3923265             -10.6757
       135        2.0000           -0.3903489             -10.6219
       136        2.0000           -0.3889472             -10.5838
       137        2.0000           -0.3878732             -10.5546
       138        2.0000           -0.3685983             -10.0301
       139        2.0000           -0.3573030              -9.7227
       140        2.0000           -0.3509426              -9.5496 (HOMO)
       141                         -0.2431328              -6.6160 (LUMO)
       142                         -0.2371984              -6.4545
       143                         -0.2344867              -6.3807
       144                         -0.2281047              -6.2070
       145                         -0.2273734              -6.1871
       146                         -0.2266569              -6.1676
       147                         -0.2248675              -6.1190
       148                         -0.2246665              -6.1135
       149                         -0.2238261              -6.0906
       150                         -0.2230433              -6.0693
       151                         -0.2218739              -6.0375
       ...                                ...                  ...
       276                          0.6770415              18.4232
      -------------------------------------------------------------
                  HL-Gap            0.1078098 Eh            2.9337 eV

     #   Z          covCN         q      C6AA      α(0)
     1   6 C        3.764    -0.121    22.857     6.815
     2   6 C        2.949     0.195    23.854     8.011
     3   7 N        1.844    -0.305    28.758     7.948
     4   6 C        2.926     0.166    24.430     8.106
     5   7 N        2.758    -0.074    22.669     7.071
     6   6 C        2.941     0.060    26.649     8.467
     7   6 C        2.923    -0.049    29.216     8.864
     8   6 C        2.919    -0.032    28.807     8.801
     9   6 C        2.919    -0.040    29.002     8.831
    10   6 C        2.922    -0.035    28.883     8.813
    11   6 C        2.988    -0.006    28.154     8.704
    12   6 C        3.923     0.010    20.344     6.410
    13   6 C        2.979     0.014    27.692     8.632
    14   6 C        2.923    -0.035    28.874     8.812
    15   6 C        2.920    -0.030    28.752     8.793
    16   6 C        2.919    -0.030    28.757     8.794
    17   6 C        2.919    -0.029    28.722     8.788
    18   6 C        2.925    -0.034    28.846     8.808
    19   6 C        2.978     0.015    27.683     8.631
    20   6 C        2.926    -0.031    28.779     8.798
    21   6 C        2.919    -0.030    28.752     8.793
    22   6 C        2.920    -0.032    28.807     8.802
    23   6 C        2.920    -0.031    28.766     8.795
    24   6 C        2.922    -0.036    28.905     8.817
    25   6 C        2.988    -0.009    28.223     8.714
    26   6 C        2.923    -0.036    28.906     8.817
    27   6 C        2.918    -0.041    29.024     8.834
    28   6 C        2.920    -0.032    28.799     8.800
    29   6 C        2.921    -0.055    29.360     8.886
    30   6 C        2.930     0.062    26.609     8.460
    31   6 C        2.915    -0.104    30.611     9.073
    32   6 C        2.928     0.169    24.374     8.096
    33   7 N        2.761    -0.083    22.859     7.101
    34   6 C        2.950     0.059    26.671     8.470
    35   6 C        2.919    -0.042    29.055     8.839
    36   6 C        2.920    -0.031    28.786     8.798
    37   6 C        2.920    -0.034    28.844     8.807
    38   6 C        2.920    -0.034    28.854     8.809
    39   6 C        2.992     0.001    27.997     8.680
    40   6 C        3.926     0.012    20.320     6.406
    41   6 C        2.975     0.013    27.715     8.635
    42   6 C        2.923    -0.035    28.868     8.811
    43   6 C        2.920    -0.030    28.743     8.792
    44   6 C        2.920    -0.032    28.796     8.800
    45   6 C        2.919    -0.031    28.772     8.796
    46   6 C        2.925    -0.033    28.814     8.803
    47   6 C        2.982     0.012    27.750     8.641
    48   6 C        2.924    -0.037    28.920     8.819
    49   6 C        2.920    -0.030    28.758     8.794
    50   6 C        2.920    -0.030    28.739     8.791
    51   6 C        2.920    -0.028    28.697     8.785
    52   6 C        2.924    -0.032    28.807     8.802
    53   6 C        2.995    -0.001    28.040     8.686
    54   6 C        2.921    -0.036    28.896     8.815
    55   6 C        2.920    -0.035    28.877     8.812
    56   6 C        2.921    -0.031    28.774     8.796
    57   6 C        2.920    -0.034    28.855     8.809
    58   6 C        2.955     0.067    26.492     8.442
    59   7 N        1.851    -0.309    28.864     7.963
    60   1 H        0.925     0.061     2.184     2.311
    61   1 H        0.925     0.064     2.152     2.294
    62   1 H        0.925     0.062     2.173     2.305
    63   1 H        0.926     0.029     2.604     2.524
    64   1 H        0.926     0.032     2.557     2.501
    65   1 H        0.926     0.031     2.575     2.509
    66   1 H        0.926     0.033     2.550     2.497
    67   1 H        0.926     0.026     2.646     2.544
    68   1 H        0.926     0.026     2.646     2.544
    69   1 H        0.926     0.028     2.617     2.530
    70   1 H        0.926     0.030     2.590     2.517
    71   1 H        0.926     0.034     2.536     2.490
    72   1 H        0.926     0.030     2.591     2.517
    73   1 H        0.926     0.030     2.590     2.517
    74   1 H        0.926     0.029     2.601     2.522
    75   1 H        0.926     0.029     2.607     2.525
    76   1 H        0.926     0.029     2.596     2.520
    77   1 H        0.926     0.029     2.597     2.520
    78   1 H        0.926     0.028     2.615     2.529
    79   1 H        0.926     0.031     2.576     2.510
    80   1 H        0.926     0.067     2.117     2.275
    81   1 H        0.926     0.029     2.598     2.521
    82   1 H        0.926     0.040     2.452     2.449
    83   1 H        0.926     0.037     2.492     2.469
    84   1 H        0.926     0.035     2.516     2.480
    85   1 H        0.926     0.037     2.484     2.464
    86   1 H        0.926     0.031     2.567     2.505
    87   1 H        0.926     0.030     2.580     2.512
    88   1 H        0.926     0.030     2.583     2.513
    89   1 H        0.926     0.030     2.586     2.515
    90   1 H        0.926     0.030     2.588     2.516
    91   1 H        0.926     0.026     2.644     2.543
    92   1 H        0.926     0.026     2.639     2.540
    93   1 H        0.926     0.032     2.561     2.503
    94   1 H        0.926     0.032     2.564     2.504
    95   1 H        0.926     0.033     2.547     2.496
    96   1 H        0.926     0.036     2.507     2.476
    97   1 H        0.926     0.035     2.517     2.481
    98   1 H        0.926     0.038     2.476     2.461
    99   1 H        0.926     0.050     2.315     2.379

molecular dipole:
                 x           y           z       tot (Debye)
 q only:       -0.627       0.365       0.113
   full:       -0.464       0.684       0.269       2.210

 projected vibrational frequencies (cm⁻¹)
eigval :       -0.00    -0.00    -0.00     0.00     0.00     0.00
eigval :       13.64    18.44    18.94    31.79    38.51    40.69
eigval :       41.53    46.21    48.80    54.61    57.30    61.52
eigval :       62.55    69.02    73.62    76.19    81.19    82.02
eigval :       87.10    89.09    94.37   134.85   144.42   147.62
eigval :      159.29   171.22   175.49   181.63   193.37   198.87
eigval :      224.35   232.24   235.23   238.35   244.95   250.39
eigval :      260.94   262.80   268.73   277.95   284.84   299.65
eigval :      307.87   314.90   325.20   330.59   363.86   370.52
eigval :      374.34   374.93   376.47   379.17   397.02   403.51
eigval :      412.69   439.37   447.00   454.20   456.11   464.11
eigval :      469.77   473.59   482.35   496.43   510.17   512.91
eigval :      515.49   517.66   520.81   550.53   559.77   581.35
eigval :      588.44   588.50   588.94   589.04   593.37   604.21
eigval :      604.96   607.01   609.70   610.57   614.13   628.37
eigval :      640.15   644.71   671.53   673.51   674.16   674.59
eigval :      685.10   690.76   692.72   698.71   704.05   713.57
eigval :      718.97   754.67   755.36   757.33   758.14   767.44
eigval :      780.19   781.39   785.32   787.54   814.36   843.53
eigval :      878.65   878.93   880.21   880.35   880.98   882.69
eigval :      885.07   888.45   893.15   894.74   901.50   903.76
eigval :      904.36   904.83   905.53   907.14   914.85   914.97
eigval :      918.20   920.61   922.00   923.34   924.99   927.01
eigval :      928.20   931.15   931.36   931.68   932.41   932.80
eigval :      933.68   935.16   936.35   938.03   939.53   943.85
eigval :      985.93   986.88   991.24  1001.22  1003.64  1014.45
eigval :     1029.19  1050.50  1065.00  1087.68  1088.51  1089.93
eigval :     1090.83  1091.62  1092.49  1101.42  1101.80  1113.07
eigval :     1118.95  1125.69  1127.20  1128.24  1130.44  1131.64
eigval :     1139.91  1172.12  1177.35  1179.18  1180.07  1181.17
eigval :     1182.23  1182.28  1182.48  1183.29  1184.79  1188.44
eigval :     1200.91  1203.53  1204.27  1206.23  1209.87  1211.51
eigval :     1212.99  1220.50  1234.10  1241.64  1253.67  1254.40
eigval :     1258.86  1262.34  1263.03  1276.96  1288.02  1288.39
eigval :     1288.91  1291.32  1292.09  1300.38  1316.58  1318.05
eigval :     1319.35  1319.53  1320.21  1324.06  1325.20  1330.22
eigval :     1331.27  1365.56  1395.74  1410.01  1428.50  1431.72
eigval :     1433.05  1433.50  1434.48  1439.33  1441.14  1442.27
eigval :     1445.85  1453.28  1455.18  1461.63  1464.14  1473.67
eigval :     1474.36  1474.78  1476.11  1478.95  1484.89  1529.27
eigval :     1558.40  1573.91  1577.95  1584.16  1585.42  1586.35
eigval :     1587.06  1587.67  1589.47  1589.59  1590.11  1597.75
eigval :     1598.85  1601.01  1601.21  1603.20  1603.88  3022.15
eigval :     3032.27  3066.30  3069.84  3071.58  3072.45  3073.64
eigval :     3074.72  3074.83  3076.51  3076.56  3078.22  3078.49
eigval :     3079.33  3079.56  3081.13  3081.65  3083.66  3084.65
eigval :     3084.76  3085.58  3086.79  3088.95  3089.07  3089.87
eigval :     3090.78  3091.47  3092.20  3092.60  3093.76  3094.07
eigval :     3094.77  3095.25  3095.29  3097.65  3098.78  3100.56
eigval :     3112.81  3123.12  3123.67

   temp. (K)  partition function   enthalpy   heat capacity  entropy
                                   cal/mol     cal/K/mol   cal/K/mol   J/K/mol
 298.15  VIB  0.107E+22            28034.966    178.004    174.797
         ROT  0.819E+08              888.752      2.981     39.192
         INT  0.880E+29            28923.718    180.985    213.989
         TR   0.201E+29             1481.254      4.968     45.731
         TOT                       30404.9719   185.9530   259.7194  1086.6658

       T/K    H(0)-H(T)+PV         H(T)/Eh          T*S/Eh         G(T)/Eh
   ------------------------------------------------------------------------
    298.15    0.484534E-01    0.821833E+00    0.123401E+00    0.698432E+00
   ------------------------------------------------------------------------

         :::::::::::::::::::::::::::::::::::::::::::::::::::::
         ::                  THERMODYNAMIC                  ::
         :::::::::::::::::::::::::::::::::::::::::::::::::::::
         :: total free energy        -149.234883082095 Eh   ::
         ::.................................................::
         :: total energy             -149.933315449489 Eh   ::
         :: zero point energy           0.773380008788 Eh   ::
         :: G(RRHO) w/o ZPVE           -0.074947641394 Eh   ::
         :: G(RRHO) contrib.            0.698432367394 Eh   ::
         :::::::::::::::::::::::::::::::::::::::::::::::::::::

           -------------------------------------------------
          | TOTAL ENERGY             -149.933315449489 Eh   |
          | TOTAL ENTHALPY           -149.111482033845 Eh   |
          | TOTAL FREE ENERGY        -149.234883082095 Eh   |
          | GRADIENT NORM               0.000110719757 Eh/α |
          | HOMO-LUMO GAP               2.933654061574 eV   |
           -------------------------------------------------

 * finished run on 2025/09/12 at 09:19:53.650
