   * xtb version 6.7.1 (edcfbbe) compiled by 'albert@albert-system' on 2024-07-22

   ID    Z sym.   atoms
    1    6 C      1, 2, 4, 6-32, 34-58
    2    7 N      3, 5, 33, 59
    3    1 H      60-99

          program call               : xtb data2507/gas/1MPA/1MPA.xyz --gfn 2 --ohess vtight --parallel 40 --molden --ceasefiles --namespace data2507/gas/1MPA/1MPA_gas_S0_preOpt
          :  Hamiltonian                  GFN2-xTB          :
 * total energy  :  -149.8596459 Eh     change       -0.6419612E-09 Eh
 * total energy  :  -149.8869064 Eh     change       -0.2726049E-01 Eh
 * total energy  :  -149.8997829 Eh     change       -0.1287659E-01 Eh
 * total energy  :  -149.9035945 Eh     change       -0.3811567E-02 Eh
 * total energy  :  -149.9047805 Eh     change       -0.1185975E-02 Eh
 * total energy  :  -149.9052020 Eh     change       -0.4214959E-03 Eh
 * total energy  :  -149.9054356 Eh     change       -0.2336448E-03 Eh
 * total energy  :  -149.9056606 Eh     change       -0.2249291E-03 Eh
 * total energy  :  -149.9058723 Eh     change       -0.2116964E-03 Eh
 * total energy  :  -149.9060855 Eh     change       -0.2132128E-03 Eh
 * total energy  :  -149.9290768 Eh     change       -0.4772945E-06 Eh
 * total energy  :  -149.9290773 Eh     change       -0.4962661E-06 Eh
 * total energy  :  -149.9290778 Eh     change       -0.4792496E-06 Eh
 * total energy  :  -149.9290783 Eh     change       -0.4295509E-06 Eh
 * total energy  :  -149.9290787 Eh     change       -0.4100294E-06 Eh
 * total energy  :  -149.9290791 Eh     change       -0.4234592E-06 Eh
 * total energy  :  -149.9290795 Eh     change       -0.4591076E-06 Eh
 * total energy  :  -149.9290800 Eh     change       -0.4757745E-06 Eh
 * total energy  :  -149.9290800 Eh     change       -0.2568555E-08 Eh
   *** GEOMETRY OPTIMIZATION CONVERGED AFTER 221 ITERATIONS ***

 final structure:
================
99
 xtb: 6.7.1 (edcfbbe)
C           -0.39785630431523       -2.21961248282779       -4.46996220646422
C           -0.31266724756139       -2.03093493108685       -2.98969065186240
N            0.88067121737784       -1.77373747818872       -2.48686572552271
C            0.97907341787130       -1.58614382548716       -1.16724885340540
N            2.23086516976916       -1.32885253578870       -0.65252724258677
C            2.48033224414213       -1.31858053379470        0.72964984628701
C            1.92930323735178       -2.29060223538560        1.56259997719243
C            2.17908680988799       -2.27484692365193        2.91961809221992
C            3.00951146237578       -1.30592033070628        3.45730659400212
C            3.61886137063705       -0.38633371189686        2.62396882477061
C            3.37449867526347       -0.38535143591353        1.25665486891775
C            4.05602086398076        0.59366975629317        0.31713845623052
C            3.16865092564775        1.81745438814744        0.11825975098327
C            2.57172172285159        2.42332439790055        1.21931544689445
C            1.84144878044203        3.58944916383197        1.07470585647157
C            1.69082594283328        4.16755771795691       -0.17514354737017
C            2.26682079792376        3.56151964391641       -1.27726676076888
C            3.00027122708708        2.39578627765125       -1.13296019357945
C            5.40594669534685        0.99727694732335        0.89813013853799
C            6.30730942077137       -0.01493411359358        1.22002528376447
C            7.55273022880983        0.28480483453998        1.73589934194889
C            7.92269293390824        1.60529722705331        1.93512850008601
C            7.03828013057381        2.61667803636064        1.60907247455279
C            5.78799610985647        2.31633997186976        1.09201551897045
C            4.28942547836325       -0.12364017943479       -1.00170112608026
C            5.40694322969879        0.14905577952673       -1.77932436685895
C            5.61667618394800       -0.50532919004014       -2.97892423510023
C            4.71077648736116       -1.46147853863375       -3.40299741509953
C            3.59199496121969       -1.74544998233605       -2.64385404364485
C            3.35628275514504       -1.05864031814011       -1.45678989136928
C           -0.16193665347598       -1.59821713767720       -0.36368499506893
C           -1.36058707614620       -1.94985409608197       -0.98368629308646
N           -2.53857147157327       -2.03681241775000       -0.28825627141159
C           -2.63567800095667       -1.77832289555367        1.09158157353381
C           -1.93063765235546       -2.52682772826017        2.02336828761480
C           -2.09278184238854       -2.26827229570880        3.37255520795730
C           -2.96801422585383       -1.28021910832080        3.78960067254888
C           -3.68483428080571       -0.54272127110782        2.86069797781305
C           -3.52764958351719       -0.78601812872005        1.50724748195047
C           -4.19074153723272       -0.00333055874601        0.38604735936979
C           -5.28779269347428        0.90175818549009        0.89407924643407
C           -5.24994818128961        2.27723394706688        0.71811777724360
C           -6.27469671248361        3.07485011400558        1.20019497208404
C           -7.34826289534207        2.50869274618213        1.86356320336779
C           -7.39350376697132        1.13590244816768        2.04511998108486
C           -6.37138190896939        0.33949139159987        1.56468697876417
C           -3.07996480017129        0.75334693797035       -0.34692879360324
C           -1.94234989495237        1.17338948022160        0.33123033349947
C           -0.87821460751701        1.72910578361200       -0.35486534305915
C           -0.94344581058724        1.89546810408041       -1.72657957089583
C           -2.09472434063925        1.53196733152744       -2.40240344335943
C           -3.15529199562140        0.96581187879844       -1.71835960794107
C           -4.70700614266437       -1.05293481028653       -0.58751424688491
C           -5.95568343030599       -1.04321233562112       -1.18395603532250
C           -6.28097673369078       -2.00139505028505       -2.13085583964842
C           -5.35787941479154       -2.96682600590830       -2.49272444838848
C           -4.10681161877602       -2.99244435274270       -1.90139877743891
C           -3.78433305633821       -2.03584563596217       -0.95304795682825
N           -1.42823868884317       -2.17176213582464       -2.30013290416769
H           -0.16879068700262       -3.25533593883738       -4.71725951056022
H            0.32780043184935       -1.58028668587175       -4.96400981209683
H           -1.40476898115789       -1.99599276910239       -4.80865105381179
H            1.31778849320321       -3.06945723573433        1.13347355506221
H            1.73599109899338       -3.02705282902800        3.55479954951287
H            3.20108969032344       -1.28024779071800        4.51925879911181
H            4.30229583623897        0.33860772386283        3.04167939051480
H            2.68584349973757        1.98542713455346        2.19990960284395
H            1.38968010998745        4.04915080004853        1.94198526014729
H            1.12369890909363        5.07953973915362       -0.28784513864075
H            2.15504032237302        4.00292433706552       -2.25720888615904
H            3.45138480265967        1.94182200255371       -2.00247695684751
H            6.02402911744699       -1.04591581368983        1.06104493081431
H            8.23811520364668       -0.51309341711655        1.98161537751437
H            8.89610916548871        1.84228147403864        2.33838543129849
H            7.31937976101581        3.64967576803622        1.75422205689993
H            5.11431156153817        3.12075736307260        0.83744253397405
H            6.11692090597104        0.89075943544631       -1.44423096051300
H            6.48750304839441       -0.27283930207898       -3.57326482353615
H            4.87721464434515       -1.99624116726918       -4.32613864494187
H            2.88790528879996       -2.48909097159645       -2.97211022392098
H           -0.13362669452883       -1.31657418107104        0.67354788312442
H           -1.26586548512333       -3.30835915353174        1.68803716252943
H           -1.53915837208955       -2.84415953910894        4.09876181467644
H           -3.09206400555187       -1.07751956675832        4.84271713644645
H           -4.35425671878918        0.23644739421918        3.19356320886119
H           -4.41645299878121        2.73037680730518        0.20200490999226
H           -6.23148350350647        4.14450228264938        1.05519160690258
H           -8.14656381288237        3.13220277128793        2.23829960421038
H           -8.22778406034448        0.68483962638789        2.56253642787880
H           -6.40859113814338       -0.73148118161427        1.70785158572121
H           -1.87452550528221        1.04707748357995        1.40247665166300
H            0.01010471802188        2.01962882727595        0.18374585170424
H           -0.09970288982469        2.30678858998182       -2.25983697838104
H           -2.16400394852108        1.67161567374128       -3.47118143558479
H           -4.04077733205165        0.66863300901357       -2.26062939332524
H           -6.67074718766089       -0.27569957056332       -0.92695931939232
H           -7.25611901123951       -1.98264922024885       -2.59440412259707
H           -5.61294210748590       -3.70657683381895       -3.23666542975765
H           -3.37653908000099       -3.73431285548466       -2.17760787933106

          :  Hamiltonian                  GFN2-xTB          :
         :: gradient norm              0.000038283264 Eh/a0 ::
         :: HOMO-LUMO gap              3.018508925068 eV    ::
         :: SCC energy              -152.712619502771 Eh    ::
         :: -> dispersion             -0.166068652313 Eh    ::
         :: repulsion energy           2.783539476972 Eh    ::

    * Orbital Energies and Occupations

         #    Occupation            Energy/Eh            Energy/eV
      -------------------------------------------------------------
         1        2.0000           -0.6708536             -18.2549
       ...           ...                  ...                  ...
       128        2.0000           -0.4028280             -10.9615
       129        2.0000           -0.4014892             -10.9251
       130        2.0000           -0.4002428             -10.8912
       131        2.0000           -0.3983392             -10.8394
       132        2.0000           -0.3973389             -10.8121
       133        2.0000           -0.3933520             -10.7037
       134        2.0000           -0.3914093             -10.6508
       135        2.0000           -0.3906708             -10.6307
       136        2.0000           -0.3893358             -10.5944
       137        2.0000           -0.3815735             -10.3831
       138        2.0000           -0.3641548              -9.9092
       139        2.0000           -0.3545650              -9.6482
       140        2.0000           -0.3503456              -9.5334 (HOMO)
       141                         -0.2394174              -6.5149 (LUMO)
       142                         -0.2334310              -6.3520
       143                         -0.2310339              -6.2868
       144                         -0.2302099              -6.2643
       145                         -0.2263991              -6.1606
       146                         -0.2256616              -6.1406
       147                         -0.2251520              -6.1267
       148                         -0.2230154              -6.0686
       149                         -0.2224397              -6.0529
       150                         -0.2220322              -6.0418
       151                         -0.2215377              -6.0283
       ...                                ...                  ...
       276                          0.6806413              18.5212
      -------------------------------------------------------------
                  HL-Gap            0.1109282 Eh            3.0185 eV

     #   Z          covCN         q      C6AA      α(0)
     1   6 C        3.764    -0.121    22.853     6.814
     2   6 C        2.946     0.194    23.879     8.015
     3   7 N        1.849    -0.313    28.961     7.976
     4   6 C        2.911     0.162    24.511     8.118
     5   7 N        2.756    -0.066    22.525     7.049
     6   6 C        2.940     0.058    26.700     8.475
     7   6 C        2.923    -0.046    29.143     8.853
     8   6 C        2.919    -0.032    28.805     8.801
     9   6 C        2.919    -0.038    28.949     8.823
    10   6 C        2.923    -0.034    28.857     8.809
    11   6 C        2.987    -0.003    28.089     8.694
    12   6 C        3.922     0.010    20.349     6.411
    13   6 C        2.976     0.015    27.671     8.629
    14   6 C        2.924    -0.035    28.879     8.813
    15   6 C        2.919    -0.029    28.737     8.791
    16   6 C        2.919    -0.030    28.758     8.794
    17   6 C        2.920    -0.028    28.696     8.784
    18   6 C        2.923    -0.034    28.848     8.808
    19   6 C        2.980     0.014    27.688     8.631
    20   6 C        2.926    -0.031    28.778     8.797
    21   6 C        2.919    -0.030    28.747     8.792
    22   6 C        2.920    -0.032    28.799     8.800
    23   6 C        2.920    -0.030    28.761     8.794
    24   6 C        2.922    -0.036    28.905     8.817
    25   6 C        2.988    -0.006    28.155     8.704
    26   6 C        2.924    -0.036    28.908     8.817
    27   6 C        2.918    -0.038    28.948     8.823
    28   6 C        2.921    -0.032    28.792     8.799
    29   6 C        2.921    -0.044    29.094     8.845
    30   6 C        2.936     0.064    26.565     8.453
    31   6 C        2.913    -0.113    30.850     9.108
    32   6 C        2.923     0.164    24.454     8.110
    33   7 N        2.762    -0.076    22.717     7.079
    34   6 C        2.948     0.058    26.690     8.473
    35   6 C        2.920    -0.044    29.085     8.844
    36   6 C        2.920    -0.033    28.810     8.802
    37   6 C        2.920    -0.036    28.907     8.817
    38   6 C        2.920    -0.036    28.886     8.814
    39   6 C        2.996    -0.001    28.033     8.685
    40   6 C        3.927     0.011    20.330     6.408
    41   6 C        2.975     0.014    27.703     8.634
    42   6 C        2.923    -0.035    28.871     8.811
    43   6 C        2.920    -0.030    28.747     8.792
    44   6 C        2.920    -0.032    28.801     8.801
    45   6 C        2.919    -0.031    28.776     8.797
    46   6 C        2.925    -0.033    28.814     8.803
    47   6 C        2.984     0.012    27.739     8.639
    48   6 C        2.924    -0.035    28.875     8.812
    49   6 C        2.920    -0.032    28.797     8.800
    50   6 C        2.920    -0.030    28.761     8.795
    51   6 C        2.920    -0.028    28.696     8.784
    52   6 C        2.924    -0.033    28.817     8.803
    53   6 C        2.997    -0.003    28.078     8.692
    54   6 C        2.920    -0.037    28.918     8.819
    55   6 C        2.920    -0.037    28.909     8.817
    56   6 C        2.921    -0.032    28.792     8.799
    57   6 C        2.919    -0.037    28.910     8.817
    58   6 C        2.951     0.066    26.528     8.448
    59   7 N        1.850    -0.315    29.021     7.984
    60   1 H        0.925     0.061     2.193     2.316
    61   1 H        0.925     0.060     2.197     2.318
    62   1 H        0.925     0.060     2.202     2.320
    63   1 H        0.926     0.035     2.515     2.480
    64   1 H        0.926     0.034     2.535     2.490
    65   1 H        0.926     0.033     2.547     2.496
    66   1 H        0.926     0.035     2.523     2.484
    67   1 H        0.926     0.031     2.578     2.511
    68   1 H        0.926     0.029     2.607     2.525
    69   1 H        0.926     0.030     2.591     2.517
    70   1 H        0.926     0.029     2.600     2.521
    71   1 H        0.926     0.033     2.539     2.492
    72   1 H        0.926     0.027     2.624     2.533
    73   1 H        0.926     0.030     2.584     2.514
    74   1 H        0.926     0.030     2.588     2.516
    75   1 H        0.926     0.030     2.591     2.517
    76   1 H        0.926     0.031     2.578     2.511
    77   1 H        0.926     0.032     2.565     2.504
    78   1 H        0.926     0.031     2.575     2.509
    79   1 H        0.926     0.035     2.523     2.484
    80   1 H        0.926     0.065     2.146     2.291
    81   1 H        0.926     0.027     2.630     2.536
    82   1 H        0.926     0.036     2.499     2.472
    83   1 H        0.926     0.035     2.516     2.480
    84   1 H        0.926     0.034     2.525     2.485
    85   1 H        0.926     0.037     2.495     2.470
    86   1 H        0.926     0.031     2.571     2.507
    87   1 H        0.926     0.030     2.590     2.517
    88   1 H        0.926     0.029     2.593     2.518
    89   1 H        0.926     0.029     2.595     2.519
    90   1 H        0.926     0.031     2.577     2.510
    91   1 H        0.926     0.025     2.665     2.553
    92   1 H        0.926     0.029     2.601     2.522
    93   1 H        0.926     0.029     2.597     2.520
    94   1 H        0.926     0.031     2.568     2.506
    95   1 H        0.926     0.032     2.560     2.502
    96   1 H        0.926     0.034     2.527     2.486
    97   1 H        0.926     0.033     2.544     2.494
    98   1 H        0.926     0.036     2.497     2.471
    99   1 H        0.926     0.055     2.258     2.350

molecular dipole:
                 x           y           z       tot (Debye)
 q only:       -0.071       0.063       0.359
   full:        0.004       0.166       0.714       1.863

 projected vibrational frequencies (cm⁻¹)
eigval :       -0.00    -0.00    -0.00     0.00     0.00     0.00
eigval :       -1.40    14.51    18.05    22.05    28.03    40.35
eigval :       41.59    44.75    49.19    49.76    53.28    55.75
eigval :       59.52    69.91    72.95    77.78    80.92    84.44
eigval :       86.65    92.32    94.64   126.63   147.37   158.98
eigval :      161.37   167.61   170.20   178.74   196.72   213.79
eigval :      223.59   232.19   233.97   239.48   246.54   251.08
eigval :      260.22   266.09   268.56   275.09   288.37   295.02
eigval :      311.92   316.26   329.97   334.82   364.77   369.02
eigval :      373.56   374.94   376.49   381.12   396.95   401.13
eigval :      424.62   434.44   447.60   455.43   459.64   466.04
eigval :      469.00   474.96   482.33   494.32   507.89   512.12
eigval :      516.54   519.50   520.88   552.18   564.07   588.25
eigval :      588.46   588.57   588.92   592.09   597.83   605.11
eigval :      605.66   606.54   608.19   610.12   614.11   624.91
eigval :      629.35   644.18   669.87   674.07   674.29   674.74
eigval :      684.70   692.38   693.17   696.84   707.77   711.47
eigval :      716.67   754.28   754.99   755.63   756.62   764.51
eigval :      778.64   779.10   783.17   785.04   829.43   843.52
eigval :      871.51   876.29   878.47   878.98   879.36   882.66
eigval :      884.96   891.39   895.01   896.59   898.39   903.24
eigval :      903.97   904.62   906.44   908.09   913.70   915.14
eigval :      916.47   917.91   924.29   924.96   925.21   925.89
eigval :      927.05   930.97   931.20   931.48   932.61   933.49
eigval :      934.15   935.10   936.33   939.25   940.21   942.96
eigval :      986.15   987.04   993.63  1000.56  1004.41  1014.54
eigval :     1031.89  1053.40  1064.92  1087.61  1088.73  1090.33
eigval :     1091.03  1091.63  1092.90  1101.38  1103.63  1112.92
eigval :     1117.04  1125.57  1128.35  1130.29  1130.49  1133.03
eigval :     1139.44  1172.02  1177.11  1179.52  1180.44  1181.39
eigval :     1182.00  1182.27  1182.35  1182.95  1184.84  1189.67
eigval :     1201.37  1203.79  1206.26  1207.57  1209.41  1212.83
eigval :     1214.08  1222.18  1225.23  1242.90  1252.18  1254.11
eigval :     1258.65  1261.09  1266.57  1280.26  1287.87  1289.67
eigval :     1290.33  1290.76  1295.32  1300.87  1307.78  1316.30
eigval :     1319.44  1319.56  1320.30  1321.40  1328.43  1329.20
eigval :     1331.57  1366.66  1396.35  1417.18  1430.48  1432.64
eigval :     1433.40  1433.69  1433.91  1437.90  1439.67  1443.33
eigval :     1446.19  1452.05  1455.77  1460.43  1465.12  1473.85
eigval :     1474.03  1475.15  1475.66  1479.20  1485.89  1530.21
eigval :     1557.48  1574.61  1578.26  1584.00  1584.99  1586.35
eigval :     1586.81  1588.06  1589.44  1589.52  1590.35  1596.65
eigval :     1598.73  1599.95  1601.92  1602.69  1604.39  3007.83
eigval :     3049.82  3061.48  3069.96  3071.36  3072.35  3074.19
eigval :     3074.47  3075.11  3077.15  3077.76  3078.39  3079.01
eigval :     3079.40  3080.53  3080.87  3081.94  3083.26  3086.01
eigval :     3086.19  3086.27  3088.14  3088.54  3088.87  3090.86
eigval :     3092.42  3093.65  3093.81  3093.98  3094.62  3095.09
eigval :     3095.66  3096.27  3097.17  3098.89  3100.26  3112.68
eigval :     3122.95  3128.50  3143.30

   temp. (K)  partition function   enthalpy   heat capacity  entropy
                                   cal/mol     cal/K/mol   cal/K/mol   J/K/mol
 298.15  VIB  0.300E+23            28070.552    177.351    177.378
         ROT  0.906E+08              888.752      2.981     39.391
         INT  0.272E+31            28959.305    180.332    216.769
         TR   0.201E+29             1481.254      4.968     45.731
         TOT                       30440.5586   185.3002   262.4995  1098.2977

       T/K    H(0)-H(T)+PV         H(T)/Eh          T*S/Eh         G(T)/Eh
   ------------------------------------------------------------------------
    298.15    0.485101E-01    0.822058E+00    0.124722E+00    0.697336E+00
   ------------------------------------------------------------------------

         :::::::::::::::::::::::::::::::::::::::::::::::::::::
         ::                  THERMODYNAMIC                  ::
         :::::::::::::::::::::::::::::::::::::::::::::::::::::
         :: total free energy        -149.231744092494 Eh   ::
         ::.................................................::
         :: total energy             -149.929080025798 Eh   ::
         :: zero point energy           0.773547775265 Eh   ::
         :: G(RRHO) w/o ZPVE           -0.076211841961 Eh   ::
         :: G(RRHO) contrib.            0.697335933304 Eh   ::
         :::::::::::::::::::::::::::::::::::::::::::::::::::::

           -------------------------------------------------
          | TOTAL ENERGY             -149.929080025798 Eh   |
          | TOTAL ENTHALPY           -149.107022132661 Eh   |
          | TOTAL FREE ENERGY        -149.231744092494 Eh   |
          | GRADIENT NORM               0.000038279014 Eh/α |
          | HOMO-LUMO GAP               3.018508725035 eV   |
           -------------------------------------------------

 * finished run on 2025/09/12 at 09:14:49.645
