   * xtb version 6.7.1 (edcfbbe) compiled by 'albert@albert-system' on 2024-07-22

   ID    Z sym.   atoms
    1    6 C      1-9, 11-19, 21-39, 41-43, 45-61, 63, 64, 66-72
    2    7 N      10, 20, 40, 44, 62, 65
    3    1 H      73-122

          program call               : xtb data2507/toluene/3DMAC-BP-CN/3DMAC-BP-CN_toluene_T1_crest.xyz --gfn 2 --uhf 2 --gbsa toluene --ohess vtight --parallel 40 --molden --ceasefiles --namespace data2507/toluene/3DMAC-BP-CN/3DMAC-BP-CN_toluene_T1_finalOpt
      * Solvation model:               GBSA
        Solvent                        toluene
        Solvent mass                       9.2140E+01 g/mol
          :  Hamiltonian                  GFN2-xTB          :
 * total energy  :  -184.5216571 Eh     change       -0.8617548E-07 Eh
 * total energy  :  -184.5217953 Eh     change       -0.1381485E-03 Eh
 * total energy  :  -184.5218663 Eh     change       -0.7100708E-04 Eh
 * total energy  :  -184.5218816 Eh     change       -0.1531159E-04 Eh
 * total energy  :  -184.5218920 Eh     change       -0.1045448E-04 Eh
 * total energy  :  -184.5219128 Eh     change       -0.2080808E-04 Eh
 * total energy  :  -184.5219287 Eh     change       -0.1588955E-04 Eh
 * total energy  :  -184.5219550 Eh     change       -0.2631686E-04 Eh
 * total energy  :  -184.5219723 Eh     change       -0.1722528E-04 Eh
 * total energy  :  -184.5219993 Eh     change       -0.2700599E-04 Eh
 * total energy  :  -184.5226571 Eh     change       -0.5984087E-06 Eh
 * total energy  :  -184.5226575 Eh     change       -0.3931865E-06 Eh
 * total energy  :  -184.5226577 Eh     change       -0.1993993E-06 Eh
 * total energy  :  -184.5226579 Eh     change       -0.2344433E-06 Eh
 * total energy  :  -184.5226582 Eh     change       -0.2292348E-06 Eh
 * total energy  :  -184.5226580 Eh     change        0.1743536E-06 Eh
 * total energy  :  -184.5226584 Eh     change       -0.3662145E-06 Eh
 * total energy  :  -184.5226585 Eh     change       -0.1533072E-06 Eh
 * total energy  :  -184.5226585 Eh     change       -0.1823281E-08 Eh
   *** GEOMETRY OPTIMIZATION CONVERGED AFTER 167 ITERATIONS ***

 final structure:
================
122
 xtb: 6.7.1 (edcfbbe)
C           -8.41243259048329        3.78619945808233        0.12678154026235
C           -7.09115957038619        4.54744532483126        0.34817392803382
C           -7.37514549694612        6.03765472334293        0.61842114165838
C           -6.38689329893745        3.96298509116647        1.55673327779585
C           -7.01523904553562        3.98547789739177        2.79470878676818
C           -6.41402732409445        3.47889405671945        3.93248883762742
C           -5.14286925431276        2.93554491286152        3.84548441347089
C           -4.49449159054374        2.89989146727856        2.63009928590345
C           -5.10419628840720        3.40412130409531        1.47464387303631
N           -4.43022355199291        3.34978295627967        0.26825703381778
C           -3.10741668659643        2.82058883668418        0.23761094809094
C           -2.01462118442526        3.69280904057053        0.32109609908444
C           -0.74543528836509        3.17878020205375        0.28289913258119
C           -0.52551533281540        1.79765378234160        0.16739346579462
C           -1.62404032922321        0.90897823523577        0.09221063283627
C           -2.91284634572863        1.46099547172063        0.12559331313117
C           -1.38432499309741       -0.51083590145153       -0.01821231124239
C           -2.41972639666823       -1.45410244425277       -0.06943354089926
C           -2.15670465706592       -2.80264432139383       -0.17656318774885
N           -3.23476249469078       -3.73400110737204       -0.21926348969822
C           -3.83504720574131       -4.01182203210647       -1.43329774835792
C           -3.38249797844227       -3.36682741256632       -2.59108898211152
C           -3.96405925907614       -3.61880848450059       -3.81460414795026
C           -5.01024395963879       -4.52203052771210       -3.90721917008025
C           -5.45430933256522       -5.16626047322702       -2.76676532565500
C           -4.88689384784639       -4.93405038945263       -1.52105172219088
C           -5.41048785703236       -5.67796796401958       -0.30850662619607
C           -6.90001957876980       -5.33066096651006       -0.12073029267997
C           -5.24315127546680       -7.19085389607970       -0.54818650217500
C           -4.66232190791333       -5.29946231279179        0.95428039785076
C           -5.00755293338930       -5.89288864872839        2.16103398812807
C           -4.36212405811556       -5.58048842032672        3.34369025759029
C           -3.34140309826862       -4.64407214422157        3.33481323853424
C           -2.97808822410532       -4.03744244568307        2.15213703472834
C           -3.62418133384978       -4.35785729003210        0.95158840255333
C           -0.83619738700810       -3.26838475331743       -0.24005596213373
C            0.19354567605987       -2.36837017094602       -0.18602581282972
C           -0.05187062641483       -0.98891019825239       -0.07259162676192
C            1.05339077595198       -0.08528485718696       -0.00762461526306
N            2.30540295187571       -0.56005595486212       -0.06519198864561
C            3.33073514541199        0.28428002958176       -0.00100652780901
C            4.65374449359474       -0.18591919791909       -0.05989474220135
C            5.71506566505455        0.68955009399812        0.00396827500115
N            7.05324008859858        0.20552492917282       -0.05995357009701
C            7.67639024055704        0.12773399971527       -1.29226270778900
C            6.95233290438996        0.42865090499393       -2.45157890392233
C            7.54228654138627        0.35227821781295       -3.69457862370344
C            8.86905778492083       -0.02894524304449       -3.80388823224886
C            9.58677937451343       -0.32607356767722       -2.65969379662948
C            9.01964581332825       -0.25638559059140       -1.39445001634829
C            9.85982473828625       -0.58329800468140       -0.17616570064031
C           11.04671230410082        0.39786933751607       -0.12215404691906
C           10.37066269385154       -2.03206169790474       -0.29873706925518
C            9.06767651960357       -0.45398592692844        1.10934606697237
C            9.68268637976199       -0.71976173223817        2.32514904711516
C            9.00773030237942       -0.61631009854602        3.52778920096034
C            7.67604284832721       -0.23666076102507        3.53000873764550
C            7.03960703354272        0.03408145630265        2.33812530572552
C            7.72130890329107       -0.06736657933649        1.11992554346677
C            5.49292554798579        2.07447207136648        0.13178364041014
C            6.58887884906768        2.94706641258607        0.19534158801255
N            7.49480848493165        3.65570758227672        0.24606097637389
C            4.18460834353953        2.56785455161695        0.19391706210262
C            3.09910258999460        1.70023999386093        0.12931727420200
N            1.83860536051643        2.16272731988347        0.18679091661414
C            0.82224871134939        1.30677846468520        0.11895854843195
C           -4.97661237657736        3.84714178817775       -0.90070782770356
C           -4.25179424871852        3.75396011012989       -2.09533763531909
C           -4.76772703710759        4.24300003247372       -3.27579414461001
C           -6.02142137036137        4.83187392645494       -3.28807409787643
C           -6.74365024296471        4.91636400667436       -2.11158863053260
C           -6.24983497111774        4.43259150594847       -0.90754136599220
H           -8.20683266022030        2.73623723418869       -0.07399669462253
H           -8.95782602568515        4.19702082423889       -0.71783743482929
H           -9.04733520316810        3.85031616414819        1.00566147758099
H           -8.00129291164581        6.15861077730688        1.49767261511886
H           -7.88229063012890        6.49405364810913       -0.22674798295481
H           -6.44026078877722        6.56965936235239        0.78637971434267
H           -8.00290045892874        4.41153387689941        2.88070257963828
H           -6.93161517688159        3.51248238486134        4.87908973661589
H           -4.65417218962622        2.54040288344244        4.72362557269404
H           -3.50183138242520        2.48163606398376        2.56782795189239
H           -2.18528742664701        4.75484292674846        0.41037795604037
H            0.12089682107530        3.81952230197734        0.34074737730141
H           -3.78406907193981        0.82873112401152        0.06297158172609
H           -3.45094663209061       -1.14231018258890       -0.02320255118288
H           -2.56520737381449       -2.66568547286654       -2.52339014002301
H           -3.59923589231259       -3.11041613842347       -4.69467661365084
H           -5.47452545529558       -4.72622477352022       -4.86010368094208
H           -6.26694049416183       -5.87048701445008       -2.85683765199726
H           -7.01316172820829       -4.26185112169881        0.05225234730037
H           -7.47325266695208       -5.59844744800870       -1.00360365835038
H           -7.31595405495175       -5.86218657346964        0.73028535263207
H           -5.78169203081524       -7.50313103240781       -1.43816527410009
H           -5.62142883037154       -7.76040908736268        0.29574827493055
H           -4.18981773517450       -7.43161851066442       -0.68132016289666
H           -5.80353579231486       -6.62102499723059        2.18567079237071
H           -4.65500198794843       -6.06239480579888        4.26408556814874
H           -2.82795185897330       -4.38405235974111        4.24851960395369
H           -2.18448106917513       -3.30643174973521        2.14979192228849
H           -0.64897698348275       -4.32798301202866       -0.32636659854671
H            1.22256905966202       -2.69001194155416       -0.22825851295847
H            4.82485911187422       -1.24691103551508       -0.15731895453045
H            5.91769027896795        0.72614432800522       -2.37069214355758
H            6.96442105771186        0.59092848900364       -4.57503227952682
H            9.34210290265844       -0.09188080738139       -4.77197175888773
H           10.62050780985399       -0.61799349675836       -2.76137425312540
H           10.67887990735221        1.41866371717920       -0.03227744702147
H           11.68423735947661        0.18593383152121        0.73122837058392
H           11.64725557074078        0.32754371476726       -1.02437728620789
H           10.95551774587982       -2.15921332592966       -1.20488008237848
H           10.99505920656541       -2.29347419197023        0.55042083945449
H            9.52848205504311       -2.72095125992499       -0.33227423407279
H           10.72016648490519       -1.01552914252592        2.34075732343032
H            9.51711666519412       -0.82917144606828        4.45512832203225
H            7.13076284076522       -0.15017277063502        4.45800950679067
H            6.00091518593062        0.32869664333612        2.34403823430347
H            4.00771590594619        3.62809269306624        0.29120738096896
H           -3.27591081732375        3.29355884231772       -2.09069692533180
H           -4.19060920393918        4.16321074108965       -4.18501211453471
H           -6.43473361216578        5.22020601528194       -4.20651303201424
H           -7.72032385931493        5.37438353513273       -2.13878833798820

          :  Hamiltonian                  GFN2-xTB          :
         :: gradient norm              0.000179588995 Eh/a0 ::
         :: HOMO-LUMO gap              0.881976220011 eV    ::
         :: SCC energy              -187.866469580061 Eh    ::
         :: -> dispersion             -0.181259521603 Eh    ::
         :: -> Gsolv                  -0.080362260096 Eh    ::
         :: repulsion energy           3.343811066337 Eh    ::

    * Orbital Energies and Occupations

         #    Occupation            Energy/Eh            Energy/eV
      -------------------------------------------------------------
         1        2.0000           -0.6789936             -18.4764
       ...           ...                  ...                  ...
       161        2.0000           -0.4058449             -11.0436
       162        2.0000           -0.4054771             -11.0336
       163        2.0000           -0.4049888             -11.0203
       164        2.0000           -0.4002614             -10.8917
       165        2.0000           -0.4002088             -10.8902
       166        2.0000           -0.3997303             -10.8772
       167        2.0000           -0.3962881             -10.7835
       168        2.0000           -0.3925893             -10.6829
       169        1.9024           -0.3562640              -9.6944
       170        1.8439           -0.3557541              -9.6806
       171        1.8095           -0.3555255              -9.6743
       172        1.4442           -0.3539380              -9.6311
       173        1.0000           -0.3095073              -8.4221 (HOMO)
       174                         -0.2770951              -7.5401 (LUMO)
       175                         -0.2631429              -7.1605
       176                         -0.2499420              -6.8013
       177                         -0.2332737              -6.3477
       178                         -0.2332366              -6.3467
       179                         -0.2325887              -6.3291
       180                         -0.2304769              -6.2716
       181                         -0.2267068              -6.1690
       182                         -0.2266553              -6.1676
       183                         -0.2263226              -6.1586
       184                         -0.2259564              -6.1486
       ...                                ...                  ...
       338                          1.1615221              31.6066
      -------------------------------------------------------------
                  HL-Gap            0.0324122 Eh            0.8820 eV

     #   Z          covCN         q      C6AA      α(0)
     1   6 C        3.761    -0.106    22.566     6.772
     2   6 C        3.909     0.022    20.139     6.379
     3   6 C        3.761    -0.105    22.558     6.771
     4   6 C        2.978    -0.008    28.217     8.713
     5   6 C        2.926    -0.035    28.875     8.812
     6   6 C        2.917    -0.039    28.981     8.828
     7   6 C        2.919    -0.031    28.782     8.798
     8   6 C        2.923    -0.054    29.352     8.885
     9   6 C        2.928     0.059    26.667     8.469
    10   7 N        2.755    -0.049    22.192     6.997
    11   6 C        2.926     0.063    26.582     8.455
    12   6 C        2.917    -0.041    29.012     8.833
    13   6 C        2.923    -0.027    28.687     8.783
    14   6 C        2.987    -0.010    28.265     8.721
    15   6 C        2.977     0.002    27.987     8.678
    16   6 C        2.922    -0.044    29.100     8.846
    17   6 C        2.977    -0.001    28.042     8.686
    18   6 C        2.922    -0.044    29.088     8.845
    19   6 C        2.926     0.061    26.633     8.463
    20   7 N        2.755    -0.048    22.176     6.994
    21   6 C        2.928     0.060    26.665     8.468
    22   6 C        2.923    -0.054    29.347     8.884
    23   6 C        2.918    -0.031    28.782     8.798
    24   6 C        2.917    -0.039    28.978     8.827
    25   6 C        2.926    -0.035    28.875     8.812
    26   6 C        2.978    -0.008    28.216     8.713
    27   6 C        3.909     0.022    20.139     6.379
    28   6 C        3.761    -0.105    22.562     6.771
    29   6 C        3.761    -0.105    22.562     6.771
    30   6 C        2.978    -0.008    28.215     8.713
    31   6 C        2.926    -0.035    28.875     8.812
    32   6 C        2.917    -0.039    28.977     8.827
    33   6 C        2.918    -0.031    28.781     8.797
    34   6 C        2.923    -0.054    29.343     8.883
    35   6 C        2.929     0.060    26.663     8.468
    36   6 C        2.916    -0.040    29.005     8.831
    37   6 C        2.923    -0.029    28.720     8.788
    38   6 C        2.986    -0.010    28.258     8.720
    39   6 C        2.949     0.075    26.315     8.414
    40   7 N        1.848    -0.273    27.928     7.832
    41   6 C        2.948     0.092    25.963     8.357
    42   6 C        2.920    -0.073    29.813     8.954
    43   6 C        2.931     0.068    26.473     8.438
    44   7 N        2.755    -0.065    22.492     7.044
    45   6 C        2.929     0.063    26.595     8.457
    46   6 C        2.924    -0.054    29.343     8.883
    47   6 C        2.919    -0.032    28.798     8.800
    48   6 C        2.917    -0.040    28.986     8.829
    49   6 C        2.927    -0.035    28.883     8.814
    50   6 C        2.979    -0.008    28.219     8.714
    51   6 C        3.909     0.022    20.143     6.379
    52   6 C        3.761    -0.106    22.564     6.772
    53   6 C        3.761    -0.107    22.586     6.775
    54   6 C        2.979    -0.008    28.218     8.714
    55   6 C        2.927    -0.035    28.883     8.814
    56   6 C        2.917    -0.040    28.987     8.829
    57   6 C        2.919    -0.032    28.799     8.800
    58   6 C        2.924    -0.054    29.342     8.883
    59   6 C        2.929     0.063    26.594     8.457
    60   6 C        2.969    -0.014    28.368     8.737
    61   6 C        1.912     0.119    28.171     8.572
    62   7 N        0.911    -0.304    27.814     7.628
    63   6 C        2.925    -0.061    29.519     8.910
    64   6 C        2.945     0.082    26.176     8.391
    65   7 N        1.848    -0.279    28.080     7.854
    66   6 C        2.946     0.083    26.152     8.387
    67   6 C        2.929     0.060    26.665     8.468
    68   6 C        2.923    -0.054    29.345     8.884
    69   6 C        2.918    -0.031    28.782     8.798
    70   6 C        2.917    -0.039    28.979     8.828
    71   6 C        2.926    -0.035    28.875     8.812
    72   6 C        2.978    -0.008    28.215     8.713
    73   1 H        0.925     0.034     2.536     2.490
    74   1 H        0.925     0.046     2.364     2.404
    75   1 H        0.925     0.047     2.364     2.404
    76   1 H        0.925     0.046     2.366     2.405
    77   1 H        0.925     0.046     2.367     2.406
    78   1 H        0.925     0.033     2.549     2.497
    79   1 H        0.926     0.041     2.433     2.439
    80   1 H        0.926     0.034     2.526     2.485
    81   1 H        0.926     0.033     2.541     2.493
    82   1 H        0.926     0.030     2.586     2.515
    83   1 H        0.926     0.047     2.362     2.403
    84   1 H        0.926     0.055     2.257     2.350
    85   1 H        0.926     0.050     2.320     2.382
    86   1 H        0.926     0.049     2.337     2.391
    87   1 H        0.926     0.030     2.580     2.512
    88   1 H        0.926     0.033     2.541     2.493
    89   1 H        0.926     0.034     2.526     2.486
    90   1 H        0.926     0.041     2.434     2.440
    91   1 H        0.925     0.033     2.539     2.492
    92   1 H        0.925     0.046     2.364     2.405
    93   1 H        0.925     0.046     2.365     2.405
    94   1 H        0.925     0.046     2.366     2.406
    95   1 H        0.925     0.046     2.366     2.406
    96   1 H        0.925     0.033     2.545     2.495
    97   1 H        0.926     0.041     2.433     2.439
    98   1 H        0.926     0.034     2.526     2.485
    99   1 H        0.926     0.033     2.542     2.493
   100   1 H        0.926     0.030     2.580     2.512
   101   1 H        0.926     0.046     2.365     2.405
   102   1 H        0.926     0.055     2.254     2.348
   103   1 H        0.926     0.047     2.352     2.398
   104   1 H        0.926     0.020     2.726     2.582
   105   1 H        0.926     0.034     2.527     2.486
   106   1 H        0.926     0.038     2.475     2.460
   107   1 H        0.926     0.045     2.388     2.416
   108   1 H        0.925     0.032     2.553     2.499
   109   1 H        0.925     0.048     2.342     2.393
   110   1 H        0.925     0.048     2.342     2.393
   111   1 H        0.925     0.049     2.335     2.390
   112   1 H        0.925     0.049     2.335     2.390
   113   1 H        0.925     0.034     2.532     2.489
   114   1 H        0.926     0.045     2.387     2.416
   115   1 H        0.926     0.038     2.474     2.460
   116   1 H        0.926     0.034     2.526     2.486
   117   1 H        0.926     0.020     2.727     2.582
   118   1 H        0.926     0.038     2.472     2.459
   119   1 H        0.926     0.030     2.588     2.516
   120   1 H        0.926     0.033     2.543     2.494
   121   1 H        0.926     0.034     2.526     2.485
   122   1 H        0.926     0.041     2.432     2.439

molecular dipole:
                 x           y           z       tot (Debye)
 q only:       -4.670      -2.288      -0.161
   full:       -4.854      -2.346      -0.162      13.708

 projected vibrational frequencies (cm⁻¹)
eigval :       -0.00    -0.00     0.00     0.00     0.00     0.00
eigval :        5.83     6.21     9.60    11.74    13.81    16.74
eigval :       20.73    24.30    27.66    35.89    39.76    42.08
eigval :       51.43    67.11    73.16    82.56    87.75    91.51
eigval :       94.01    96.35    96.82   100.36   101.21   102.20
eigval :      115.22   118.58   128.29   129.32   132.84   137.22
eigval :      145.16   147.26   173.11   188.58   195.00   195.37
eigval :      198.94   200.10   216.94   218.59   218.88   220.28
eigval :      229.67   232.80   235.82   238.15   246.76   252.06
eigval :      295.61   297.09   302.83   303.70   306.48   314.42
eigval :      327.71   328.36   328.39   332.74   337.96   340.27
eigval :      343.75   350.02   351.18   358.28   370.13   376.29
eigval :      377.99   380.92   384.42   388.53   401.03   408.23
eigval :      409.27   410.63   411.42   430.63   437.48   443.98
eigval :      450.29   450.73   451.89   464.69   470.06   488.20
eigval :      500.96   503.37   506.75   509.52   509.84   510.30
eigval :      511.69   531.64   532.62   544.47   544.96   545.25
eigval :      549.51   550.04   553.42   562.13   566.93   584.04
eigval :      585.06   585.78   586.39   594.43   607.84   609.24
eigval :      623.08   638.57   647.90   652.11   654.56   661.91
eigval :      668.56   677.57   685.12   685.18   685.27   692.91
eigval :      697.09   697.23   697.39   699.95   706.33   711.11
eigval :      720.04   728.65   733.98   751.16   773.09   775.40
eigval :      775.45   777.16   778.34   778.66   802.04   802.75
eigval :      817.41   818.54   819.86   825.59   827.89   828.23
eigval :      835.88   857.83   865.10   868.74   869.23   869.71
eigval :      870.68   872.79   874.69   901.13   909.42   912.44
eigval :      913.38   913.72   914.38   914.82   915.64   915.70
eigval :      917.05   917.65   917.76   919.75   921.55   922.53
eigval :      922.58   922.96   923.54   923.79   937.01   937.15
eigval :      938.12   957.12   957.86   958.58   962.69   997.09
eigval :     1012.68  1013.40  1013.79  1038.54  1061.35  1069.57
eigval :     1074.98  1075.32  1075.59  1083.64  1088.77  1107.72
eigval :     1108.19  1108.86  1114.59  1114.68  1115.42  1132.32
eigval :     1138.34  1138.56  1138.85  1141.35  1146.26  1153.16
eigval :     1153.20  1153.78  1165.12  1166.17  1171.95  1182.82
eigval :     1183.18  1183.74  1184.59  1184.92  1185.52  1187.45
eigval :     1187.50  1188.81  1191.69  1217.64  1222.88  1234.88
eigval :     1238.74  1239.16  1244.63  1244.82  1246.96  1248.61
eigval :     1258.36  1260.86  1261.95  1265.25  1271.67  1290.40
eigval :     1292.33  1292.44  1292.82  1296.29  1299.51  1303.15
eigval :     1314.63  1320.25  1321.01  1321.37  1323.03  1329.34
eigval :     1329.40  1330.33  1332.23  1332.46  1333.90  1335.08
eigval :     1347.44  1368.76  1394.92  1397.63  1398.29  1398.40
eigval :     1400.15  1411.03  1416.22  1417.01  1417.11  1425.40
eigval :     1429.49  1429.76  1430.83  1432.01  1432.53  1433.14
eigval :     1455.63  1461.83  1462.19  1464.00  1464.70  1474.92
eigval :     1479.57  1480.59  1482.70  1483.43  1484.36  1484.51
eigval :     1484.96  1485.04  1485.20  1489.59  1492.89  1494.19
eigval :     1494.71  1499.38  1499.45  1499.70  1513.43  1522.78
eigval :     1534.35  1561.68  1562.05  1563.74  1569.37  1573.32
eigval :     1576.31  1578.31  1581.75  1582.00  1582.22  1583.44
eigval :     1592.05  1592.73  1594.29  2325.74  3023.60  3023.74
eigval :     3025.34  3026.20  3026.53  3028.02  3043.21  3043.24
eigval :     3044.70  3045.08  3045.31  3047.27  3050.86  3050.93
eigval :     3051.84  3054.49  3054.62  3055.88  3077.82  3078.35
eigval :     3078.39  3078.52  3078.73  3078.94  3085.17  3085.43
eigval :     3085.45  3085.51  3085.76  3086.34  3089.34  3090.46
eigval :     3091.46  3092.62  3093.01  3094.87  3095.30  3095.50
eigval :     3095.68  3095.84  3099.27  3099.54  3100.74  3101.16
eigval :     3101.75  3101.92  3102.62  3102.80  3103.79  3111.04

   temp. (K)  partition function   enthalpy   heat capacity  entropy
                                   cal/mol     cal/K/mol   cal/K/mol   J/K/mol
 298.15  VIB  0.924E+29            36204.681    226.305    226.316
         ROT  0.340E+09              888.752      2.981     42.021
         INT  0.315E+38            37093.433    229.286    268.337
         TR   0.273E+29             1481.254      4.968     46.335
         TOT                       38574.6874   234.2541   314.6717  1316.5865

       T/K    H(0)-H(T)+PV         H(T)/Eh          T*S/Eh         G(T)/Eh
   ------------------------------------------------------------------------
    298.15    0.614727E-01    0.101564E+01    0.149511E+00    0.866131E+00
   ------------------------------------------------------------------------

         :::::::::::::::::::::::::::::::::::::::::::::::::::::
         ::                  THERMODYNAMIC                  ::
         :::::::::::::::::::::::::::::::::::::::::::::::::::::
         :: total free energy        -183.656527620986 Eh   ::
         ::.................................................::
         :: total energy             -184.522658512255 Eh   ::
         :: zero point energy           0.954168901003 Eh   ::
         :: G(RRHO) w/o ZPVE           -0.088038009734 Eh   ::
         :: G(RRHO) contrib.            0.866130891269 Eh   ::
         :::::::::::::::::::::::::::::::::::::::::::::::::::::

           -------------------------------------------------
          | TOTAL ENERGY             -184.522658512255 Eh   |
          | TOTAL ENTHALPY           -183.507016933980 Eh   |
          | TOTAL FREE ENERGY        -183.656527620986 Eh   |
          | GRADIENT NORM               0.000180353466 Eh/α |
          | HOMO-LUMO GAP               0.881980866886 eV   |
           -------------------------------------------------

 * finished run on 2025/07/17 at 19:24:03.998
