   * xtb version 6.7.1 (edcfbbe) compiled by 'albert@albert-system' on 2024-07-22

   ID    Z sym.   atoms
    1    6 C      1-9, 11-19, 21-39, 41-43, 45-61, 63, 64, 66-72
    2    7 N      10, 20, 40, 44, 62, 65
    3    1 H      73-122

          program call               : xtb data2507/toluene/3DMAC-BP-CN/3DMAC-BP-CN.xyz --gfn 2 --gbsa toluene --ohess vtight --parallel 40 --molden --ceasefiles --namespace data2507/toluene/3DMAC-BP-CN/3DMAC-BP-CN_toluene_S0_preOpt
      * Solvation model:               GBSA
        Solvent                        toluene
        Solvent mass                       9.2140E+01 g/mol
          :  Hamiltonian                  GFN2-xTB          :
 * total energy  :  -184.5106381 Eh     change       -0.5728822E-08 Eh
 * total energy  :  -184.5407500 Eh     change       -0.3011184E-01 Eh
 * total energy  :  -184.5523964 Eh     change       -0.1164649E-01 Eh
 * total energy  :  -184.5550748 Eh     change       -0.2678389E-02 Eh
 * total energy  :  -184.5565457 Eh     change       -0.1470860E-02 Eh
 * total energy  :  -184.5573138 Eh     change       -0.7681144E-03 Eh
 * total energy  :  -184.5571867 Eh     change        0.1271392E-03 Eh
 * total energy  :  -184.5578179 Eh     change       -0.6312075E-03 Eh
 * total energy  :  -184.5578973 Eh     change       -0.7943084E-04 Eh
 * total energy  :  -184.5579416 Eh     change       -0.4427395E-04 Eh
 * total energy  :  -184.5597352 Eh     change       -0.5532897E-06 Eh
 * total energy  :  -184.5597358 Eh     change       -0.5259048E-06 Eh
 * total energy  :  -184.5597362 Eh     change       -0.4251345E-06 Eh
 * total energy  :  -184.5597365 Eh     change       -0.3479115E-06 Eh
 * total energy  :  -184.5597369 Eh     change       -0.3465088E-06 Eh
 * total energy  :  -184.5597372 Eh     change       -0.2894945E-06 Eh
 * total energy  :  -184.5597374 Eh     change       -0.2109178E-06 Eh
 * total energy  :  -184.5597376 Eh     change       -0.1940584E-06 Eh
 * total energy  :  -184.5597376 Eh     change       -0.1025401E-07 Eh
   *** GEOMETRY OPTIMIZATION CONVERGED AFTER 208 ITERATIONS ***

 final structure:
================
122
 xtb: 6.7.1 (edcfbbe)
C           -8.24604518968183        3.67723157001135        0.53997920057696
C           -6.97695525527676        4.40509840281123        0.05750267126280
C           -7.33634933445160        5.80281274269515       -0.48104237469869
C           -6.03485029986965        4.55988153030375        1.23565593421423
C           -6.46289623765851        5.25059456110116        2.36221028643370
C           -5.67127185602608        5.38649655860008        3.48722525420482
C           -4.42124083101665        4.79426432483742        3.50666712505069
C           -3.97006636291679        4.10695410181794        2.39936187137972
C           -4.75043193176078        4.00640070216534        1.24300382575697
N           -4.25856684801160        3.32259090116167        0.13594837510695
C           -2.92607722024047        2.84960020879516        0.15860756769675
C           -1.86168845189679        3.75528339120565        0.19913977803418
C           -0.57273635428437        3.28269553474407        0.21233166366916
C           -0.30866090051041        1.90871979950542        0.17169061899503
C           -1.37216411387936        0.98387408372329        0.12189622897626
C           -2.67485584054597        1.48723422219572        0.12969267501746
C           -1.09043446318384       -0.44344459960521        0.04304184059928
C           -2.10480612574503       -1.40043298882082       -0.02842455042804
C           -1.82114747381271       -2.75225786977240       -0.14142002975393
N           -2.87586774230150       -3.68911274906512       -0.23414253027057
C           -3.69456016744580       -3.68699252857096       -1.35976993454867
C           -3.45892628720939       -2.77605422396894       -2.39484432823575
C           -4.26787159347122       -2.73856600895095       -3.51116059251659
C           -5.32445037752255       -3.62372233204561       -3.62640398206439
C           -5.53315211498631       -4.55468409855585       -2.62630733448355
C           -4.73402250906445       -4.61436587651590       -1.49160234329648
C           -4.99212648264259       -5.69837643915548       -0.46256502427472
C           -6.42936834095327       -5.54938059896813        0.07168715145866
C           -4.81564741721522       -7.06863642681042       -1.14383125443816
C           -4.03265943077831       -5.60488830783884        0.70794327100883
C           -4.14358541757920       -6.51401760204204        1.75233152806721
C           -3.33161146694552       -6.45428513985327        2.86939524920333
C           -2.39583298833816       -5.44028649744106        2.96862573344771
C           -2.26190903593322       -4.52741178721827        1.94362344031385
C           -3.04967589469957       -4.61340942358806        0.79106411920179
C           -0.49238490516301       -3.18674709497536       -0.17334944124265
C            0.52158967250610       -2.26505367761647       -0.09047312171892
C            0.24506516507011       -0.89663862843063        0.01612199515966
C            1.33568002340734        0.04442178612197        0.09172636786859
N            2.57645160501454       -0.40945655084912        0.08256906041550
C            3.57522831960307        0.48299735421999        0.15492934121561
C            4.91178970735421        0.03524027792755        0.15528165947518
C            5.94562109391500        0.93159713344267        0.23266816563050
N            7.29052266663935        0.50685485398007        0.22076381019740
C            7.85587896014221        0.02484744718992       -0.95898300380605
C            7.06314435398747       -0.14363096702370       -2.09716378980025
C            7.59779781327718       -0.62729261958169       -3.27339560385559
C            8.94218923805571       -0.94441763411593       -3.33802970453921
C            9.73414700574754       -0.75041459094805       -2.22208941011662
C            9.22250704622213       -0.26368693250224       -1.02563233957437
C           10.16405858876781       -0.03418673581786        0.14137029867338
C           11.22072201690161        1.00388938726712       -0.28030193326931
C           10.84208617341659       -1.36887008780892        0.50523349876288
C            9.43301074242155        0.48379203636488        1.36426539064170
C           10.14049284797715        0.72485886309799        2.53473154072458
C            9.52217065311385        1.16177372133808        3.69136756858437
C            8.15097897830080        1.34043812002838        3.69906028549519
C            7.42459182449848        1.10872470795835        2.54958070346431
C            8.05503405975624        0.71346602210829        1.36634910260199
C            5.66336144763593        2.32960027755189        0.31980496866426
C            6.73455132403133        3.24994912328509        0.37306482949900
N            7.59320244606058        4.01025752720447        0.39786125844178
C            4.36751098261338        2.79214590630068        0.32542599816517
C            3.29790822018967        1.88040843815953        0.24404661486461
N            2.03522746486807        2.33295937340065        0.24913534661051
C            1.05865676889966        1.44717888260397        0.17268471760989
C           -5.03421483124473        3.12602297575583       -1.00283671063186
C           -4.49132320669492        2.47648478592768       -2.11637966145748
C           -5.24445480580498        2.25061692643720       -3.24942558881768
C           -6.55667505499831        2.68453571981246       -3.30219599578648
C           -7.08318164097786        3.36498966880753       -2.22040742885372
C           -6.34724765465564        3.60534140023714       -1.06702007368064
H           -8.73572210570870        4.23519825313393        1.33299094415373
H           -7.98551047743986        2.69224856064826        0.92383894849467
H           -8.95476166282504        3.55180220072662       -0.27366213089372
H           -8.03503203987420        5.73098810771074       -1.30986163650397
H           -6.43796930447825        6.30784788269735       -0.83228274127515
H           -7.79077031770407        6.41179684722790        0.29546659368688
H           -7.44565254283802        5.69680752515443        2.36818122168064
H           -6.03322451444077        5.93561052526522        4.34338251326352
H           -3.79502798272603        4.86161967515392        4.38421720091493
H           -3.00029704703517        3.63535362210454        2.43459377006080
H           -2.06424774108759        4.81537085585351        0.21722367027933
H            0.26770175916105        3.95790655039536        0.24047728287853
H           -3.52376184593272        0.82329548374163        0.10559777494407
H           -3.14207688027580       -1.10818797444007       -0.00210605719880
H           -2.62563121642677       -2.09384081842621       -2.33166492446902
H           -4.06566434786673       -2.01998524901470       -4.29170780721820
H           -5.96892465079229       -3.60196530383397       -4.49224477259498
H           -6.34338222316445       -5.25855458697510       -2.74017961882236
H           -6.54613265867555       -4.58192763264980        0.55739425828475
H           -7.15258466336217       -5.61710349821293       -0.73601013485681
H           -6.65660613078776       -6.32629784813938        0.79608907515131
H           -4.99612964211180       -7.87655920784041       -0.44028182575641
H           -3.80061070420800       -7.16567881457340       -1.52567212389243
H           -5.50642025920347       -7.18018558588268       -1.97485801047360
H           -4.88704790458308       -7.29454289672281        1.69826007756070
H           -3.44093576076218       -7.18112987483914        3.66012790859231
H           -1.76996735210989       -5.35409881807043        3.84473549618765
H           -1.54046941917303       -3.73117654673833        2.04183689935972
H           -0.27808959839205       -4.24062033319789       -0.26580317731588
H            1.55567011662166       -2.56998199353775       -0.11752549072062
H            5.10318866559366       -1.02510695911133        0.09289618527646
H            6.01537005549649        0.11326512581982       -2.06703619017898
H            6.96054358843369       -0.75072341643660       -4.13652189210373
H            9.37300116175434       -1.32780316241785       -4.25035588046723
H           10.78586149129242       -0.98120830608155       -2.29156498908742
H           10.73563867221003        1.94546068703698       -0.53223087061610
H           11.92455307181814        1.18710749427738        0.52656659388499
H           11.77676395109756        0.66058308347594       -1.14808035691257
H           11.38552877881758       -1.77155388086798       -0.34447769106697
H           11.54304524058210       -1.23593748808705        1.32406066249187
H           10.09100344331330       -2.09580390959695        0.80970883938106
H           11.20813552897876        0.56912157934793        2.54915244725324
H           10.10426704385068        1.34741836642038        4.58109492406019
H            7.64120980563430        1.65423292612098        4.59793340706157
H            6.35135846394945        1.22912054743323        2.57477856525001
H            4.15154546267334        3.84828631432543        0.38295545340322
H           -3.46221670212159        2.15320821113608       -2.10101763766249
H           -4.79994896496497        1.74098565776918       -4.09158505889863
H           -7.15932535932593        2.51005647032177       -4.18075594233578
H           -8.09942803384494        3.72288121865971       -2.28354359870376

          :  Hamiltonian                  GFN2-xTB          :
         :: gradient norm              0.000102928610 Eh/a0 ::
         :: HOMO-LUMO gap              0.708673454642 eV    ::
         :: SCC energy              -187.905830676472 Eh    ::
         :: -> dispersion             -0.182865078356 Eh    ::
         :: -> Gsolv                  -0.073888586578 Eh    ::
         :: repulsion energy           3.346093088795 Eh    ::

    * Orbital Energies and Occupations

         #    Occupation            Energy/Eh            Energy/eV
      -------------------------------------------------------------
         1        2.0000           -0.6952249             -18.9180
       ...           ...                  ...                  ...
       160        2.0000           -0.4062207             -11.0538
       161        2.0000           -0.4056799             -11.0391
       162        2.0000           -0.4041134             -10.9965
       163        2.0000           -0.4027734             -10.9600
       164        2.0000           -0.3999400             -10.8829
       165        2.0000           -0.3994875             -10.8706
       166        2.0000           -0.3973254             -10.8118
       167        2.0000           -0.3945945             -10.7375
       168        2.0000           -0.3943064             -10.7296
       169        2.0000           -0.3694025             -10.0520
       170        2.0000           -0.3555169              -9.6741
       171        2.0000           -0.3508485              -9.5471
       172        2.0000           -0.3500795              -9.5261 (HOMO)
       173        0.0000           -0.3240362              -8.8175 (LUMO)
       174                         -0.2912123              -7.9243
       175                         -0.2710656              -7.3761
       176                         -0.2633504              -7.1661
       177                         -0.2448015              -6.6614
       178                         -0.2305852              -6.2745
       179                         -0.2271545              -6.1812
       180                         -0.2268250              -6.1722
       181                         -0.2259227              -6.1477
       182                         -0.2253350              -6.1317
       183                         -0.2239430              -6.0938
       ...                                ...                  ...
       338                          1.1487717              31.2597
      -------------------------------------------------------------
                  HL-Gap            0.0260433 Eh            0.7087 eV

     #   Z          covCN         q      C6AA      α(0)
     1   6 C        3.761    -0.104    22.537     6.768
     2   6 C        3.909     0.021    20.159     6.382
     3   6 C        3.761    -0.104    22.529     6.766
     4   6 C        2.979    -0.012    28.311     8.728
     5   6 C        2.928    -0.037    28.919     8.819
     6   6 C        2.917    -0.044    29.105     8.847
     7   6 C        2.919    -0.034    28.852     8.808
     8   6 C        2.924    -0.059    29.465     8.902
     9   6 C        2.927     0.057    26.719     8.477
    10   7 N        2.753    -0.067    22.536     7.051
    11   6 C        2.924     0.074    26.347     8.418
    12   6 C        2.918    -0.037    28.918     8.818
    13   6 C        2.922    -0.026    28.657     8.779
    14   6 C        2.987    -0.008    28.216     8.713
    15   6 C        2.976     0.009    27.815     8.651
    16   6 C        2.925    -0.044    29.097     8.846
    17   6 C        2.975     0.010    27.798     8.648
    18   6 C        2.925    -0.044    29.096     8.846
    19   6 C        2.924     0.074    26.337     8.416
    20   7 N        2.753    -0.066    22.518     7.048
    21   6 C        2.925     0.057    26.725     8.478
    22   6 C        2.924    -0.059    29.476     8.903
    23   6 C        2.920    -0.034    28.840     8.807
    24   6 C        2.917    -0.044    29.099     8.846
    25   6 C        2.928    -0.037    28.915     8.818
    26   6 C        2.979    -0.012    28.307     8.727
    27   6 C        3.909     0.021    20.159     6.382
    28   6 C        3.761    -0.104    22.538     6.768
    29   6 C        3.761    -0.104    22.532     6.767
    30   6 C        2.979    -0.012    28.305     8.727
    31   6 C        2.928    -0.037    28.916     8.819
    32   6 C        2.917    -0.044    29.099     8.846
    33   6 C        2.919    -0.034    28.849     8.808
    34   6 C        2.924    -0.059    29.461     8.901
    35   6 C        2.927     0.057    26.721     8.477
    36   6 C        2.918    -0.037    28.919     8.819
    37   6 C        2.922    -0.026    28.645     8.777
    38   6 C        2.987    -0.008    28.216     8.713
    39   6 C        2.959     0.089    26.023     8.367
    40   7 N        1.848    -0.255    27.483     7.770
    41   6 C        2.963     0.085    26.109     8.381
    42   6 C        2.919    -0.055    29.372     8.887
    43   6 C        2.927     0.079    26.245     8.401
    44   7 N        2.753    -0.079    22.769     7.087
    45   6 C        2.925     0.058    26.708     8.475
    46   6 C        2.924    -0.060    29.480     8.904
    47   6 C        2.920    -0.034    28.839     8.806
    48   6 C        2.917    -0.043    29.077     8.843
    49   6 C        2.929    -0.036    28.899     8.816
    50   6 C        2.979    -0.011    28.283     8.724
    51   6 C        3.909     0.021    20.158     6.382
    52   6 C        3.761    -0.105    22.550     6.769
    53   6 C        3.761    -0.106    22.573     6.773
    54   6 C        2.979    -0.010    28.268     8.721
    55   6 C        2.928    -0.036    28.890     8.815
    56   6 C        2.917    -0.042    29.054     8.839
    57   6 C        2.919    -0.034    28.844     8.807
    58   6 C        2.925    -0.058    29.435     8.897
    59   6 C        2.930     0.059    26.685     8.472
    60   6 C        2.971     0.006    27.875     8.660
    61   6 C        1.913     0.127    27.983     8.543
    62   7 N        0.911    -0.255    26.622     7.462
    63   6 C        2.927    -0.035    28.861     8.810
    64   6 C        2.964     0.080    26.216     8.398
    65   7 N        1.848    -0.254    27.459     7.766
    66   6 C        2.960     0.087    26.067     8.374
    67   6 C        2.925     0.057    26.723     8.478
    68   6 C        2.924    -0.060    29.481     8.904
    69   6 C        2.920    -0.034    28.843     8.807
    70   6 C        2.917    -0.044    29.104     8.847
    71   6 C        2.928    -0.037    28.917     8.819
    72   6 C        2.979    -0.012    28.312     8.728
    73   1 H        0.925     0.043     2.415     2.430
    74   1 H        0.925     0.031     2.576     2.510
    75   1 H        0.925     0.043     2.412     2.429
    76   1 H        0.925     0.042     2.417     2.431
    77   1 H        0.925     0.031     2.579     2.511
    78   1 H        0.925     0.043     2.414     2.430
    79   1 H        0.926     0.035     2.519     2.482
    80   1 H        0.926     0.028     2.620     2.531
    81   1 H        0.926     0.028     2.614     2.528
    82   1 H        0.926     0.026     2.645     2.543
    83   1 H        0.926     0.054     2.271     2.357
    84   1 H        0.926     0.065     2.146     2.291
    85   1 H        0.926     0.056     2.246     2.344
    86   1 H        0.926     0.056     2.245     2.343
    87   1 H        0.926     0.026     2.643     2.542
    88   1 H        0.926     0.028     2.614     2.528
    89   1 H        0.926     0.028     2.615     2.529
    90   1 H        0.926     0.035     2.515     2.480
    91   1 H        0.925     0.031     2.575     2.509
    92   1 H        0.925     0.043     2.411     2.428
    93   1 H        0.925     0.043     2.414     2.430
    94   1 H        0.925     0.043     2.412     2.429
    95   1 H        0.925     0.031     2.575     2.509
    96   1 H        0.925     0.043     2.415     2.430
    97   1 H        0.926     0.035     2.516     2.480
    98   1 H        0.926     0.028     2.616     2.529
    99   1 H        0.926     0.028     2.609     2.526
   100   1 H        0.926     0.026     2.640     2.541
   101   1 H        0.926     0.055     2.262     2.352
   102   1 H        0.926     0.066     2.129     2.282
   103   1 H        0.926     0.068     2.112     2.273
   104   1 H        0.926     0.019     2.748     2.592
   105   1 H        0.926     0.031     2.569     2.507
   106   1 H        0.926     0.033     2.544     2.494
   107   1 H        0.926     0.040     2.445     2.445
   108   1 H        0.925     0.031     2.574     2.509
   109   1 H        0.925     0.046     2.377     2.411
   110   1 H        0.925     0.046     2.376     2.410
   111   1 H        0.925     0.046     2.368     2.407
   112   1 H        0.925     0.046     2.376     2.410
   113   1 H        0.925     0.032     2.553     2.499
   114   1 H        0.926     0.041     2.434     2.440
   115   1 H        0.926     0.034     2.530     2.488
   116   1 H        0.926     0.031     2.576     2.510
   117   1 H        0.926     0.014     2.828     2.630
   118   1 H        0.926     0.064     2.149     2.293
   119   1 H        0.926     0.026     2.646     2.544
   120   1 H        0.926     0.028     2.617     2.530
   121   1 H        0.926     0.028     2.618     2.530
   122   1 H        0.926     0.035     2.518     2.482

molecular dipole:
                 x           y           z       tot (Debye)
 q only:       -2.006      -1.327      -0.145
   full:       -2.266      -1.443      -0.146       6.837

 projected vibrational frequencies (cm⁻¹)
eigval :       -0.00    -0.00    -0.00     0.00     0.00     0.00
eigval :        2.23    10.66    11.52    13.97    17.96    19.58
eigval :       22.48    24.91    30.47    39.99    40.65    45.17
eigval :       55.72    68.76    74.53    83.28    88.90    91.25
eigval :       94.03    97.44   101.43   105.39   109.76   114.91
eigval :      116.72   123.68   125.73   129.78   131.32   146.30
eigval :      147.61   151.30   176.44   190.54   193.71   193.96
eigval :      205.88   211.86   216.46   218.94   223.88   225.63
eigval :      233.32   236.42   239.40   244.28   248.94   260.77
eigval :      293.63   299.59   304.11   305.64   307.58   315.15
eigval :      329.17   331.06   333.28   334.12   339.74   341.53
eigval :      348.19   349.31   352.75   360.24   376.08   377.51
eigval :      379.81   381.20   382.81   391.19   401.80   408.50
eigval :      409.41   412.12   412.99   430.75   437.07   448.43
eigval :      451.18   455.23   456.43   460.40   471.68   485.53
eigval :      495.14   499.37   505.63   511.63   514.75   515.24
eigval :      515.74   534.84   540.40   547.43   547.49   548.23
eigval :      552.16   554.40   559.32   562.36   573.49   585.53
eigval :      586.42   587.90   597.52   600.87   611.26   612.13
eigval :      623.45   646.30   652.06   656.14   660.01   663.61
eigval :      677.77   683.11   683.65   685.18   692.42   694.71
eigval :      695.30   696.24   698.99   705.73   712.74   726.75
eigval :      731.33   733.89   760.44   769.70   774.72   775.95
eigval :      777.93   779.45   779.85   781.30   803.66   823.23
eigval :      823.90   824.10   833.81   836.63   839.50   845.88
eigval :      862.92   864.63   868.64   869.32   870.28   873.15
eigval :      876.77   878.05   886.70   904.39   909.66   912.25
eigval :      913.76   914.26   914.63   914.73   914.99   915.37
eigval :      915.87   918.73   920.68   922.51   922.95   923.15
eigval :      924.99   925.45   929.27   930.17   937.64   937.92
eigval :      939.17   957.51   957.78   958.15   975.05  1001.28
eigval :     1012.74  1014.05  1015.12  1045.73  1061.14  1070.47
eigval :     1075.69  1075.86  1076.12  1084.16  1089.96  1114.21
eigval :     1114.53  1114.81  1119.17  1119.57  1119.92  1135.49
eigval :     1140.09  1140.24  1140.62  1141.48  1147.74  1157.72
eigval :     1157.90  1158.75  1169.44  1170.53  1170.91  1182.98
eigval :     1185.15  1185.61  1185.94  1187.17  1187.51  1188.64
eigval :     1191.68  1192.36  1194.71  1222.91  1224.22  1236.63
eigval :     1242.54  1242.83  1248.96  1249.91  1250.23  1256.61
eigval :     1265.09  1266.27  1267.34  1272.89  1275.86  1278.50
eigval :     1291.50  1293.14  1293.63  1293.84  1306.30  1313.22
eigval :     1318.19  1318.65  1321.78  1323.67  1328.07  1328.91
eigval :     1330.04  1331.49  1331.64  1331.85  1337.53  1351.82
eigval :     1376.17  1399.33  1399.96  1400.12  1400.92  1413.59
eigval :     1418.53  1418.65  1419.21  1428.13  1430.48  1434.04
eigval :     1434.77  1435.13  1436.19  1437.12  1437.66  1444.61
eigval :     1464.75  1473.84  1474.50  1475.09  1475.39  1483.21
eigval :     1483.88  1486.20  1486.28  1487.06  1487.70  1489.25
eigval :     1491.76  1492.05  1492.55  1495.47  1496.86  1499.36
eigval :     1501.57  1502.18  1503.07  1514.07  1536.73  1546.97
eigval :     1570.87  1573.29  1573.49  1575.12  1577.21  1583.28
eigval :     1588.46  1589.12  1590.11  1590.26  1590.60  1591.02
eigval :     1599.50  1599.64  1599.78  2363.41  3021.39  3021.57
eigval :     3023.81  3024.01  3024.50  3027.11  3039.95  3040.06
eigval :     3042.08  3042.12  3042.28  3045.03  3048.71  3048.83
eigval :     3050.12  3053.28  3053.48  3055.45  3073.68  3073.84
eigval :     3074.25  3074.50  3074.89  3076.49  3081.22  3081.26
eigval :     3081.44  3081.78  3081.96  3085.13  3088.04  3092.24
eigval :     3092.51  3092.80  3093.02  3093.53  3094.53  3095.41
eigval :     3097.10  3097.89  3099.85  3099.90  3101.17  3101.83
eigval :     3102.15  3102.36  3107.09  3111.59  3111.96  3117.15

   temp. (K)  partition function   enthalpy   heat capacity  entropy
                                   cal/mol     cal/K/mol   cal/K/mol   J/K/mol
 298.15  VIB  0.224E+29            35902.927    225.476    223.787
         ROT  0.338E+09              888.752      2.981     42.009
         INT  0.757E+37            36791.679    228.457    265.797
         TR   0.273E+29             1481.254      4.968     46.335
         TOT                       38272.9332   233.4253   312.1315  1305.9583

       T/K    H(0)-H(T)+PV         H(T)/Eh          T*S/Eh         G(T)/Eh
   ------------------------------------------------------------------------
    298.15    0.609918E-01    0.101824E+01    0.148304E+00    0.869934E+00
   ------------------------------------------------------------------------

         :::::::::::::::::::::::::::::::::::::::::::::::::::::
         ::                  THERMODYNAMIC                  ::
         :::::::::::::::::::::::::::::::::::::::::::::::::::::
         :: total free energy        -183.689803536678 Eh   ::
         ::.................................................::
         :: total energy             -184.559737582250 Eh   ::
         :: zero point energy           0.957246000675 Eh   ::
         :: G(RRHO) w/o ZPVE           -0.087311955102 Eh   ::
         :: G(RRHO) contrib.            0.869934045572 Eh   ::
         :::::::::::::::::::::::::::::::::::::::::::::::::::::

           -------------------------------------------------
          | TOTAL ENERGY             -184.559737582250 Eh   |
          | TOTAL ENTHALPY           -183.541499780260 Eh   |
          | TOTAL FREE ENERGY        -183.689803536678 Eh   |
          | GRADIENT NORM               0.000102847702 Eh/α |
          | HOMO-LUMO GAP               0.708673903049 eV   |
           -------------------------------------------------

 * finished run on 2025/07/17 at 18:52:07.443
