   * xtb version 6.7.1 (edcfbbe) compiled by 'albert@albert-system' on 2024-07-22

   ID    Z sym.   atoms
    1    6 C      1-9, 11-19, 21-39, 41-43, 45-61, 63, 64, 66-72
    2    7 N      10, 20, 40, 44, 62, 65
    3    1 H      73-122

          program call               : xtb data2507/toluene/3DMAC-BP-CN/3DMAC-BP-CN_toluene_S0_finalOpt.xtbopt.xyz --gfn 2 --uhf 2 --gbsa toluene --ohess vtight --parallel 40 --molden --ceasefiles --namespace data2507/toluene/3DMAC-BP-CN/3DMAC-BP-CN_toluene_T1_preOpt
      * Solvation model:               GBSA
        Solvent                        toluene
        Solvent mass                       9.2140E+01 g/mol
          :  Hamiltonian                  GFN2-xTB          :
 * total energy  :  -184.5145184 Eh     change       -0.4395031E-07 Eh
 * total energy  :  -184.5166388 Eh     change       -0.2120378E-02 Eh
 * total energy  :  -184.5172737 Eh     change       -0.6349129E-03 Eh
 * total energy  :  -184.5173415 Eh     change       -0.6772677E-04 Eh
 * total energy  :  -184.5173891 Eh     change       -0.4762448E-04 Eh
 * total energy  :  -184.5174037 Eh     change       -0.1463054E-04 Eh
 * total energy  :  -184.5174220 Eh     change       -0.1831333E-04 Eh
 * total energy  :  -184.5174326 Eh     change       -0.1062293E-04 Eh
 * total energy  :  -184.5174545 Eh     change       -0.2184091E-04 Eh
 * total energy  :  -184.5174697 Eh     change       -0.1517263E-04 Eh
 * total energy  :  -184.5185991 Eh     change       -0.8904168E-06 Eh
 * total energy  :  -184.5185999 Eh     change       -0.8002405E-06 Eh
 * total energy  :  -184.5186005 Eh     change       -0.6202251E-06 Eh
 * total energy  :  -184.5186011 Eh     change       -0.5905775E-06 Eh
 * total energy  :  -184.5186017 Eh     change       -0.6282011E-06 Eh
 * total energy  :  -184.5186025 Eh     change       -0.7831744E-06 Eh
 * total energy  :  -184.5186034 Eh     change       -0.9323981E-06 Eh
 * total energy  :  -184.5186044 Eh     change       -0.9524803E-06 Eh
 * total energy  :  -184.5186044 Eh     change       -0.4072831E-08 Eh
   *** GEOMETRY OPTIMIZATION CONVERGED AFTER 152 ITERATIONS ***

 final structure:
================
122
 xtb: 6.7.1 (edcfbbe)
C           -8.47442963386107        3.50903475498383        0.09944696270755
C           -7.23605286315247        4.20642438880964        0.69535088568291
C           -7.64060736173545        5.54218189644510        1.34834443133986
C           -6.63690080806912        3.30847837412892        1.75927183081996
C           -7.40014360220813        2.94905410363746        2.86217142082744
C           -6.90069649268461        2.14428819085475        3.86973767808877
C           -5.59617891527359        1.68501727808835        3.78936143641218
C           -4.81504750105495        2.02534951769852        2.70665067234225
C           -5.32234243776971        2.82830009355013        1.67713362076785
N           -4.51662569474149        3.14767479358717        0.59950565068745
C           -3.18061981572013        2.65513955116792        0.56069461447243
C           -2.11880976902157        3.49710809197811        0.91624010714072
C           -0.83741338265794        3.01812564314445        0.85330995068697
C           -0.57325420429804        1.69955405235372        0.44745923984498
C           -1.64234341887281        0.83613806749611        0.10774356911055
C           -2.94207708938018        1.35560766799443        0.16722648150132
C           -1.35894122666843       -0.52249969312974       -0.29844762466369
C           -2.36796655346443       -1.43657153281593       -0.60590051108009
C           -2.09914129783605       -2.73447151289914       -1.02992304827594
N           -3.12225188659661       -3.61439794135201       -1.32372677123468
C           -2.91609719740936       -4.97786167514481       -1.61820475846484
C           -2.09259328136092       -5.36878539018343       -2.66764865158420
C           -1.94343722365984       -6.71094007194147       -2.96375124014973
C           -2.63793577494566       -7.65778718506455       -2.23154482128244
C           -3.49542035375130       -7.26387445570781       -1.21729299476824
C           -3.65032034266162       -5.92447420711114       -0.89513652107984
C           -4.57338300487868       -5.40275070316541        0.19336737168162
C           -5.55712212316697       -6.46474952383496        0.68533284986198
C           -3.72381802005845       -4.94481613153358        1.39727502457940
C           -5.27267494272268       -4.19467498490042       -0.40635816457177
C           -6.62546288737425       -3.92307353224550       -0.26988166004392
C           -7.19016719057046       -2.80306669108607       -0.85774142383540
C           -6.41335561175650       -1.95322887285114       -1.62544094343406
C           -5.06463884216740       -2.21215171022371       -1.78486680333466
C           -4.48791341815472       -3.30656983903510       -1.15017656693533
C           -0.75136935483789       -3.15220020891391       -1.06354467767956
C            0.25216296821399       -2.27858025394097       -0.75531028566450
C           -0.01282058239942       -0.94887936652795       -0.38514371942864
C            1.06200996673105       -0.06952119070365       -0.06659730051617
N            2.33001584960675       -0.48436960919649       -0.17032661996251
C            3.33081167658656        0.33276686478042        0.13314501072482
C            4.66748864993053       -0.08010246570441        0.01763448759184
C            5.70093780551716        0.77175751532788        0.34570880213657
N            7.05427008097561        0.34629599879486        0.21653793201963
C            7.74651329151611        0.67519086182267       -0.93479170002033
C            7.07396501634795        1.30729696470550       -1.98724482638710
C            7.73464498560525        1.64468387950744       -3.14838071097230
C            9.08216556635197        1.35442530418251       -3.28212620843291
C            9.74714841203465        0.72334801545563       -2.24677154461675
C            9.10774293999235        0.37132941202300       -1.06591506421288
C            9.88857309732121       -0.32139583057831        0.03241871260293
C           11.04099489037037        0.60133164427354        0.47341340767590
C           10.44670755311222       -1.64732968177891       -0.52042391033585
C            9.02288242560354       -0.62308173916326        1.23897461989939
C            9.57863380887270       -1.25581783402898        2.34267246763412
C            8.83710316078259       -1.54638399821658        3.47324728633129
C            7.49734100928155       -1.19812473012706        3.51643393522659
C            6.91839711941654       -0.56982376598272        2.43531438153556
C            7.66605306423193       -0.27715045441094        1.28870159304268
C            5.43336653318888        2.07340050631929        0.80819136834857
C            6.49843442772376        2.92109619256415        1.14429929665756
N            7.37918374080942        3.60915624713246        1.42062031254256
C            4.10875052571883        2.51292999681041        0.92642440454967
C            3.05163796650767        1.67221140035411        0.59463446853524
N            1.77872713621578        2.07650639169129        0.69386562557169
C            0.78478507039490        1.25256975442944        0.36939022144759
C           -4.96021845939552        3.95153545104528       -0.43458884996135
C           -4.10962704020248        4.22002406086964       -1.51475543446372
C           -4.51865559404905        5.02573773008009       -2.55486091571841
C           -5.79024356582024        5.57536410580944       -2.54191787536137
C           -6.63910417018041        5.29733496086134       -1.48616419192313
C           -6.25483488386174        4.48894259577030       -0.42460525373775
H           -8.18485695372042        2.56259374023317       -0.35369915862932
H           -8.93668187480295        4.12850447500390       -0.66355648758653
H           -9.21331176788283        3.30937251487598        0.87002033420711
H           -8.35707724783871        5.38033167018841        2.14842171336780
H           -8.09047002377969        6.20865851949372        0.61823361925108
H           -6.76299834145022        6.03209022825111        1.76658022501800
H           -8.41507488952573        3.30613502503082        2.94396031686076
H           -7.52225170491177        1.88322941582277        4.71269023719936
H           -5.18417870263464        1.06386703401263        4.57067985007668
H           -3.79721961942767        1.67181284997687        2.65252855623112
H           -2.32169694468736        4.51080197394217        1.22688678903557
H            0.00584437970293        3.64020164228551        1.11160278768792
H           -3.79091250497814        0.74607409154129       -0.09889454917920
H           -3.39463164678529       -1.14034841554410       -0.48316791686305
H           -1.58671677660192       -4.61926300173922       -3.25811618473142
H           -1.29650405376312       -7.01304741714975       -3.77388155274786
H           -2.52512892296058       -8.70733330079235       -2.45901142694235
H           -4.04166982830644       -8.02016523345138       -0.67783037610174
H           -6.18389652019974       -6.82423070254366       -0.12775703226007
H           -5.01618174000913       -7.30373964801815        1.11546923159156
H           -6.18994394742497       -6.05409588288300        1.46794090136536
H           -4.37103186713131       -4.53489627125182        2.16994638450406
H           -3.00241021982589       -4.18204247358192        1.11717406212751
H           -3.18089912961850       -5.79302248394140        1.80917526318739
H           -7.25782546482443       -4.58296857834025        0.30104881527187
H           -8.24377039733129       -2.60501324060441       -0.72884007908957
H           -6.85660674745561       -1.09729117761872       -2.11255035917163
H           -4.45863990646234       -1.58034142852858       -2.41734223155162
H           -0.50716440561766       -4.17506416883204       -1.29973123894616
H            1.28315936151755       -2.59731249241323       -0.77621713673173
H            4.87389567143000       -1.07873752275119       -0.33522855851056
H            6.02286761964308        1.53312667803910       -1.88830642019901
H            7.19586311502153        2.13412554314979       -3.94595492463093
H            9.61088153435212        1.61638507366451       -4.18577947620288
H           10.79644589008982        0.50311157299078       -2.36724379552729
H           11.63422675836055        0.13284240098822        1.25322970533811
H           11.69440229895890        0.82968638704457       -0.36348096298248
H           10.63844018095911        1.53573711974262        0.86104984712754
H           11.08323580060035       -1.46795410348525       -1.38180143073797
H           11.03087549171450       -2.16438083940401        0.23502504186675
H            9.62681827400296       -2.29488146532042       -0.82628579435546
H           10.62183317857722       -1.53067341718999        2.32610552861330
H            9.30152038957167       -2.03839658775709        4.31412198432993
H            6.90147706070678       -1.41343486504332        4.39083962407976
H            5.87414280150437       -0.29863686491698        2.47273823693843
H            3.89789277114326        3.51235807783632        1.27480651302201
H           -3.12070477069336        3.78918703884981       -1.53243523776624
H           -3.84462514962212        5.22220806801419       -3.37527818757860
H           -6.12005251641650        6.21094369105684       -3.34957572518717
H           -7.62951571038019        5.72548631145218       -1.49576242112736

          :  Hamiltonian                  GFN2-xTB          :
         :: gradient norm              0.000096346493 Eh/a0 ::
         :: HOMO-LUMO gap              0.887335507254 eV    ::
         :: SCC energy              -187.863646102770 Eh    ::
         :: -> dispersion             -0.182829177177 Eh    ::
         :: -> Gsolv                  -0.080161939591 Eh    ::
         :: repulsion energy           3.345041729003 Eh    ::

    * Orbital Energies and Occupations

         #    Occupation            Energy/Eh            Energy/eV
      -------------------------------------------------------------
         1        2.0000           -0.6791859             -18.4816
       ...           ...                  ...                  ...
       161        2.0000           -0.4049556             -11.0194
       162        2.0000           -0.4027090             -10.9583
       163        2.0000           -0.4017521             -10.9322
       164        2.0000           -0.4013073             -10.9201
       165        2.0000           -0.4006972             -10.9035
       166        2.0000           -0.4001567             -10.8888
       167        2.0000           -0.3980557             -10.8316
       168        2.0000           -0.3900773             -10.6145
       169        1.9578           -0.3577204              -9.7341
       170        1.8637           -0.3565088              -9.7011
       171        1.7900           -0.3560134              -9.6876
       172        1.3884           -0.3543233              -9.6416
       173        1.0000           -0.3068377              -8.3495 (HOMO)
       174                         -0.2742287              -7.4621 (LUMO)
       175                         -0.2572103              -6.9990
       176                         -0.2455576              -6.6820
       177                         -0.2339162              -6.3652
       178                         -0.2331002              -6.3430
       179                         -0.2315835              -6.3017
       180                         -0.2308824              -6.2826
       181                         -0.2271711              -6.1816
       182                         -0.2267344              -6.1698
       183                         -0.2263691              -6.1598
       184                         -0.2261760              -6.1546
       ...                                ...                  ...
       338                          1.1621279              31.6231
      -------------------------------------------------------------
                  HL-Gap            0.0326090 Eh            0.8873 eV

     #   Z          covCN         q      C6AA      α(0)
     1   6 C        3.761    -0.106    22.567     6.772
     2   6 C        3.909     0.023    20.136     6.378
     3   6 C        3.761    -0.106    22.565     6.772
     4   6 C        2.978    -0.007    28.199     8.711
     5   6 C        2.926    -0.035    28.870     8.812
     6   6 C        2.917    -0.039    28.961     8.825
     7   6 C        2.918    -0.031    28.774     8.796
     8   6 C        2.923    -0.054    29.332     8.882
     9   6 C        2.928     0.060    26.660     8.468
    10   7 N        2.755    -0.046    22.124     6.986
    11   6 C        2.926     0.061    26.642     8.465
    12   6 C        2.917    -0.042    29.041     8.837
    13   6 C        2.924    -0.029    28.722     8.789
    14   6 C        2.987    -0.011    28.282     8.724
    15   6 C        2.977    -0.000    28.026     8.684
    16   6 C        2.923    -0.044    29.102     8.847
    17   6 C        2.976    -0.001    28.052     8.688
    18   6 C        2.926    -0.067    29.659     8.931
    19   6 C        2.908     0.068    26.477     8.437
    20   7 N        2.754    -0.064    22.483     7.042
    21   6 C        2.951     0.055    26.759     8.484
    22   6 C        2.920    -0.046    29.146     8.853
    23   6 C        2.919    -0.034    28.840     8.807
    24   6 C        2.919    -0.037    28.916     8.818
    25   6 C        2.923    -0.038    28.952     8.824
    26   6 C        2.987    -0.006    28.162     8.705
    27   6 C        3.911     0.023    20.128     6.377
    28   6 C        3.759    -0.109    22.636     6.783
    29   6 C        3.761    -0.099    22.440     6.753
    30   6 C        2.987    -0.005    28.151     8.703
    31   6 C        2.923    -0.038    28.945     8.823
    32   6 C        2.919    -0.037    28.913     8.818
    33   6 C        2.919    -0.034    28.849     8.808
    34   6 C        2.920    -0.047    29.162     8.856
    35   6 C        2.950     0.055    26.769     8.486
    36   6 C        2.919    -0.056    29.379     8.888
    37   6 C        2.920    -0.030    28.752     8.793
    38   6 C        2.986    -0.019    28.468     8.752
    39   6 C        2.946     0.079    26.238     8.401
    40   7 N        1.849    -0.263    27.699     7.800
    41   6 C        2.945     0.093    25.942     8.354
    42   6 C        2.919    -0.074    29.844     8.958
    43   6 C        2.931     0.067    26.499     8.442
    44   7 N        2.755    -0.063    22.455     7.038
    45   6 C        2.929     0.063    26.590     8.457
    46   6 C        2.924    -0.054    29.330     8.881
    47   6 C        2.919    -0.032    28.794     8.799
    48   6 C        2.917    -0.039    28.973     8.827
    49   6 C        2.927    -0.035    28.880     8.813
    50   6 C        2.979    -0.008    28.207     8.712
    51   6 C        3.909     0.022    20.141     6.379
    52   6 C        3.761    -0.106    22.568     6.772
    53   6 C        3.761    -0.107    22.587     6.775
    54   6 C        2.979    -0.008    28.210     8.712
    55   6 C        2.927    -0.035    28.880     8.813
    56   6 C        2.917    -0.039    28.975     8.827
    57   6 C        2.919    -0.032    28.792     8.799
    58   6 C        2.923    -0.054    29.335     8.882
    59   6 C        2.929     0.063    26.596     8.457
    60   6 C        2.969    -0.015    28.380     8.738
    61   6 C        1.913     0.119    28.177     8.573
    62   7 N        0.911    -0.305    27.840     7.631
    63   6 C        2.924    -0.063    29.572     8.918
    64   6 C        2.942     0.083    26.160     8.388
    65   7 N        1.849    -0.270    27.858     7.822
    66   6 C        2.945     0.080    26.208     8.396
    67   6 C        2.929     0.060    26.657     8.467
    68   6 C        2.923    -0.053    29.327     8.881
    69   6 C        2.918    -0.031    28.776     8.797
    70   6 C        2.917    -0.039    28.962     8.825
    71   6 C        2.926    -0.035    28.871     8.812
    72   6 C        2.978    -0.007    28.198     8.710
    73   1 H        0.925     0.034     2.528     2.486
    74   1 H        0.925     0.047     2.360     2.402
    75   1 H        0.925     0.047     2.355     2.400
    76   1 H        0.925     0.047     2.360     2.402
    77   1 H        0.925     0.047     2.361     2.403
    78   1 H        0.925     0.033     2.545     2.495
    79   1 H        0.926     0.042     2.420     2.433
    80   1 H        0.926     0.035     2.511     2.478
    81   1 H        0.926     0.034     2.530     2.487
    82   1 H        0.926     0.031     2.568     2.506
    83   1 H        0.926     0.045     2.379     2.412
    84   1 H        0.926     0.052     2.297     2.370
    85   1 H        0.926     0.049     2.337     2.390
    86   1 H        0.926     0.044     2.395     2.420
    87   1 H        0.926     0.039     2.463     2.454
    88   1 H        0.926     0.036     2.503     2.474
    89   1 H        0.926     0.036     2.499     2.472
    90   1 H        0.926     0.047     2.363     2.404
    91   1 H        0.925     0.041     2.434     2.440
    92   1 H        0.925     0.045     2.383     2.414
    93   1 H        0.925     0.045     2.379     2.412
    94   1 H        0.925     0.042     2.421     2.433
    95   1 H        0.925     0.033     2.539     2.492
    96   1 H        0.925     0.041     2.429     2.437
    97   1 H        0.926     0.047     2.357     2.401
    98   1 H        0.926     0.037     2.488     2.466
    99   1 H        0.926     0.036     2.505     2.475
   100   1 H        0.926     0.039     2.464     2.455
   101   1 H        0.926     0.043     2.409     2.427
   102   1 H        0.926     0.045     2.383     2.414
   103   1 H        0.926     0.047     2.354     2.399
   104   1 H        0.926     0.021     2.720     2.579
   105   1 H        0.926     0.035     2.521     2.483
   106   1 H        0.926     0.039     2.466     2.456
   107   1 H        0.926     0.045     2.379     2.412
   108   1 H        0.925     0.049     2.337     2.391
   109   1 H        0.925     0.049     2.337     2.391
   110   1 H        0.925     0.033     2.549     2.497
   111   1 H        0.925     0.049     2.332     2.388
   112   1 H        0.925     0.049     2.330     2.387
   113   1 H        0.925     0.034     2.530     2.487
   114   1 H        0.926     0.045     2.380     2.413
   115   1 H        0.926     0.039     2.467     2.456
   116   1 H        0.926     0.035     2.517     2.481
   117   1 H        0.926     0.022     2.707     2.573
   118   1 H        0.926     0.038     2.477     2.461
   119   1 H        0.926     0.031     2.572     2.508
   120   1 H        0.926     0.033     2.538     2.491
   121   1 H        0.926     0.035     2.516     2.480
   122   1 H        0.926     0.042     2.421     2.433

molecular dipole:
                 x           y           z       tot (Debye)
 q only:       -4.531      -2.170      -0.534
   full:       -4.708      -2.232      -0.617      13.336

 projected vibrational frequencies (cm⁻¹)
eigval :       -0.00    -0.00    -0.00     0.00     0.00     0.00
eigval :        4.91     7.11     9.40    10.66    15.96    18.76
eigval :       20.68    27.40    33.20    35.10    40.47    50.60
eigval :       61.87    66.43    70.49    77.05    87.31    90.50
eigval :       91.84    97.62   100.98   102.59   113.34   118.75
eigval :      119.52   131.36   132.79   133.72   137.60   141.07
eigval :      160.62   173.05   177.59   182.30   193.28   195.15
eigval :      196.46   199.62   212.84   218.22   219.41   226.89
eigval :      228.48   234.47   236.78   241.94   280.56   284.43
eigval :      289.67   300.63   303.13   304.28   309.85   319.28
eigval :      325.43   328.32   329.02   329.75   340.90   344.91
eigval :      347.81   350.59   356.76   363.17   374.60   377.72
eigval :      383.17   385.66   387.06   393.11   403.56   408.58
eigval :      411.01   411.57   421.67   427.03   431.51   434.01
eigval :      448.26   450.33   456.90   464.47   470.68   481.53
eigval :      492.91   498.82   499.72   507.44   509.72   510.21
eigval :      523.29   532.42   535.10   544.29   544.97   550.10
eigval :      552.18   559.57   562.81   565.87   570.18   573.61
eigval :      584.57   585.95   586.15   593.28   597.14   605.66
eigval :      627.10   628.74   636.26   645.66   651.05   662.59
eigval :      664.90   681.41   682.13   684.81   686.74   692.98
eigval :      694.96   696.92   698.62   699.34   709.16   719.01
eigval :      724.62   724.93   727.90   747.60   770.09   772.59
eigval :      772.71   775.57   777.79   781.61   783.10   800.14
eigval :      802.29   809.42   815.36   820.57   825.25   829.58
eigval :      835.34   846.46   859.94   862.72   865.33   866.91
eigval :      870.41   885.11   886.68   899.94   906.55   909.88
eigval :      911.51   912.30   912.86   912.97   914.12   914.77
eigval :      916.69   917.06   919.21   919.51   919.69   920.95
eigval :      922.04   925.79   935.91   936.74   937.87   941.72
eigval :      943.38   956.79   958.80   959.30   967.23   999.66
eigval :     1008.94  1012.58  1014.67  1041.57  1062.33  1069.80
eigval :     1072.30  1075.03  1075.91  1081.16  1087.94  1098.61
eigval :     1105.90  1108.03  1108.67  1114.84  1115.12  1134.30
eigval :     1135.66  1138.32  1138.61  1143.71  1150.16  1152.59
eigval :     1153.69  1158.24  1167.11  1171.64  1175.56  1180.10
eigval :     1182.14  1183.06  1184.48  1185.47  1187.07  1189.32
eigval :     1190.11  1190.92  1193.19  1219.95  1226.49  1229.80
eigval :     1234.76  1240.46  1245.12  1246.45  1248.46  1253.99
eigval :     1260.98  1261.65  1266.15  1272.11  1273.16  1275.31
eigval :     1283.26  1292.13  1292.70  1292.98  1295.46  1298.49
eigval :     1304.30  1312.48  1319.29  1320.67  1322.49  1324.81
eigval :     1328.19  1329.21  1329.71  1332.36  1333.73  1340.99
eigval :     1352.63  1374.18  1392.84  1395.43  1397.33  1398.63
eigval :     1406.90  1412.74  1416.22  1417.26  1417.86  1427.19
eigval :     1428.41  1429.91  1431.99  1432.27  1436.47  1437.22
eigval :     1450.57  1457.68  1460.86  1463.05  1468.50  1474.78
eigval :     1477.38  1480.49  1482.64  1483.76  1483.95  1484.56
eigval :     1485.21  1488.55  1489.29  1491.29  1492.82  1494.00
eigval :     1499.03  1499.68  1503.67  1509.24  1518.29  1518.53
eigval :     1532.49  1560.91  1562.84  1568.59  1572.72  1574.62
eigval :     1576.63  1580.43  1581.54  1582.81  1582.83  1585.82
eigval :     1592.01  1593.51  1596.49  2325.43  3023.65  3023.92
eigval :     3025.56  3025.78  3027.69  3027.98  3031.62  3033.59
eigval :     3044.10  3045.72  3045.94  3046.15  3047.80  3051.33
eigval :     3051.78  3052.75  3055.38  3056.52  3074.84  3076.52
eigval :     3078.07  3078.60  3079.01  3079.32  3082.71  3083.04
eigval :     3085.23  3086.05  3086.15  3086.24  3088.46  3091.01
eigval :     3092.56  3092.64  3092.89  3093.44  3093.80  3096.11
eigval :     3096.34  3096.50  3099.18  3099.51  3100.15  3102.92
eigval :     3103.42  3105.02  3111.84  3112.13  3113.23  3137.33

   temp. (K)  partition function   enthalpy   heat capacity  entropy
                                   cal/mol     cal/K/mol   cal/K/mol   J/K/mol
 298.15  VIB  0.238E+29            35985.789    226.621    224.065
         ROT  0.331E+09              888.752      2.981     41.966
         INT  0.788E+37            36874.541    229.602    266.031
         TR   0.273E+29             1481.254      4.968     46.335
         TOT                       38355.7951   234.5705   312.3665  1306.9413

       T/K    H(0)-H(T)+PV         H(T)/Eh          T*S/Eh         G(T)/Eh
   ------------------------------------------------------------------------
    298.15    0.611239E-01    0.101579E+01    0.148415E+00    0.867375E+00
   ------------------------------------------------------------------------

         :::::::::::::::::::::::::::::::::::::::::::::::::::::
         ::                  THERMODYNAMIC                  ::
         :::::::::::::::::::::::::::::::::::::::::::::::::::::
         :: total free energy        -183.651229252880 Eh   ::
         ::.................................................::
         :: total energy             -184.518604369198 Eh   ::
         :: zero point energy           0.954666654232 Eh   ::
         :: G(RRHO) w/o ZPVE           -0.087291537914 Eh   ::
         :: G(RRHO) contrib.            0.867375116318 Eh   ::
         :::::::::::::::::::::::::::::::::::::::::::::::::::::

           -------------------------------------------------
          | TOTAL ENERGY             -184.518604369198 Eh   |
          | TOTAL ENTHALPY           -183.502813864803 Eh   |
          | TOTAL FREE ENERGY        -183.651229252880 Eh   |
          | GRADIENT NORM               0.000096639355 Eh/α |
          | HOMO-LUMO GAP               0.887335751800 eV   |
           -------------------------------------------------

 * finished run on 2025/07/17 at 19:06:34.270
