   * xtb version 6.7.1 (edcfbbe) compiled by 'albert@albert-system' on 2024-07-22

   ID    Z sym.   atoms
    1    6 C      1-9, 11-19, 21-39, 41-43, 45-61, 63, 64, 66-72
    2    7 N      10, 20, 40, 44, 62, 65
    3    1 H      73-122

          program call               : xtb data2507/toluene/3DMAC-BP-CN/3DMAC-BP-CN_toluene_S0_crest.xyz --gfn 2 --gbsa toluene --ohess vtight --parallel 40 --molden --ceasefiles --namespace data2507/toluene/3DMAC-BP-CN/3DMAC-BP-CN_toluene_S0_finalOpt
      * Solvation model:               GBSA
        Solvent                        toluene
        Solvent mass                       9.2140E+01 g/mol
          :  Hamiltonian                  GFN2-xTB          :
 * total energy  :  -184.5587792 Eh     change       -0.1487678E-08 Eh
 * total energy  :  -184.5589425 Eh     change       -0.1632324E-03 Eh
 * total energy  :  -184.5590989 Eh     change       -0.1564500E-03 Eh
 * total energy  :  -184.5592010 Eh     change       -0.1020656E-03 Eh
 * total energy  :  -184.5593715 Eh     change       -0.1705662E-03 Eh
 * total energy  :  -184.5595651 Eh     change       -0.1935563E-03 Eh
 * total energy  :  -184.5597232 Eh     change       -0.1580585E-03 Eh
 * total energy  :  -184.5598505 Eh     change       -0.1273381E-03 Eh
 * total energy  :  -184.5600002 Eh     change       -0.1497095E-03 Eh
 * total energy  :  -184.5601010 Eh     change       -0.1007844E-03 Eh
 * total energy  :  -184.5606307 Eh     change       -0.2838512E-06 Eh
 * total energy  :  -184.5606310 Eh     change       -0.3126844E-06 Eh
 * total energy  :  -184.5606313 Eh     change       -0.3418224E-06 Eh
 * total energy  :  -184.5606315 Eh     change       -0.2259402E-06 Eh
 * total energy  :  -184.5606317 Eh     change       -0.1448871E-06 Eh
 * total energy  :  -184.5606318 Eh     change       -0.1427579E-06 Eh
 * total energy  :  -184.5606320 Eh     change       -0.1494582E-06 Eh
 * total energy  :  -184.5606321 Eh     change       -0.1057985E-06 Eh
 * total energy  :  -184.5606322 Eh     change       -0.9364214E-07 Eh
   *** GEOMETRY OPTIMIZATION CONVERGED AFTER 91 ITERATIONS ***

 final structure:
================
122
 xtb: 6.7.1 (edcfbbe)
C           -8.27650308057057        3.65072796018604       -0.81721054368586
C           -7.25061657187307        4.12559560123495        0.22962982252360
C           -7.89225615287605        5.15824414559603        1.17539517600571
C           -6.80092071224945        2.93625314603522        1.05552039756574
C           -7.74581788310499        2.21829782650573        1.77802982898294
C           -7.39982895811396        1.15696685667071        2.59259974652126
C           -6.06457790382757        0.82198302979866        2.72763573176152
C           -5.10684694051324        1.51953448757081        2.02226185733509
C           -5.45854757483582        2.55335756295142        1.14739890361830
N           -4.47330167810758        3.21025352667338        0.41392192232719
C           -3.14858607590206        2.71857065063983        0.44798619294337
C           -2.09676498031344        3.51494353481878        0.91119258809707
C           -0.81291687689823        3.02447437863912        0.88213394807809
C           -0.54622039324233        1.72409209824164        0.43895286589313
C           -1.60796200152179        0.88531756572667        0.04628563826345
C           -2.89324418094200        1.42548753159027        0.01992057624010
C           -1.34321695667634       -0.49870493721605       -0.32164071093954
C           -2.37568445991846       -1.40510318207394       -0.51900881681422
C           -2.14814391151792       -2.73246747015391       -0.89371333537721
N           -3.19676859938130       -3.60435252205468       -1.05396068764302
C           -3.03138605376146       -4.98617264300210       -1.29371446392344
C           -2.33550126704152       -5.43846376861475       -2.40771148879002
C           -2.23048744247683       -6.79597675756730       -2.64850966320729
C           -2.84148077698016       -7.69433221680416       -1.79146782445872
C           -3.56755457241449       -7.23905600908619       -0.70307052815420
C           -3.67674911469880       -5.88270592559943       -0.43612184072228
C           -4.45435014950410       -5.29464222515219        0.73013732414397
C           -5.37980093837255       -6.31737505195117        1.39009393262108
C           -3.45695658959090       -4.79543596384146        1.79644532085926
C           -5.21322534191593       -4.10403531937596        0.16772083965257
C           -6.52774001404775       -3.79221400339881        0.48199584860477
C           -7.15309831985663       -2.69149398162704       -0.07978565077913
C           -6.48596257941870       -1.90699325502118       -1.00379444162162
C           -5.17969812198580       -2.20874210306650       -1.34253051430068
C           -4.53245625640838       -3.27399860239556       -0.72781615748063
C           -0.81057075971568       -3.16002142170559       -1.01457420328481
C            0.21966660353907       -2.28684597235881       -0.79042814321958
C           -0.01143017593133       -0.94833808517300       -0.44233923603150
C            1.08177738091789       -0.07139737561781       -0.14040142116516
N            2.32352952557699       -0.50741808592214       -0.28812561234583
C            3.32505474381956        0.31717298607153        0.05007958807465
C            4.66071598836912       -0.10623039256787       -0.11068611311078
C            5.69756608329673        0.71506649249314        0.24382938418329
N            7.04258811362676        0.30438232683879        0.09493172273395
C            7.82068140443094        0.93170577535778       -0.87264917555904
C            7.21423000116057        1.79428275645515       -1.78988947585780
C            7.95708759935166        2.44343892887651       -2.75398016864155
C            9.32108632874978        2.22928930507412       -2.82890086321562
C            9.91578772633526        1.34539288566562       -1.94763915196829
C            9.19174674960322        0.67916027319499       -0.96795397313806
C            9.89812877143413       -0.30467412186657       -0.05562051856464
C           10.99507783949695        0.44411870078807        0.72400163150896
C           10.52134959929631       -1.41518644081086       -0.92273667489228
C            8.94475031500744       -0.93811828092534        0.93997470376582
C            9.43240480531329       -1.86552917018768        1.85179436270793
C            8.62544348106617       -2.45445455072669        2.80727481697750
C            7.28997125895025       -2.10160690373342        2.87244542955019
C            6.77850477194166       -1.18510445548409        1.97704528546027
C            7.58694819007097       -0.60782930281892        0.99438303449666
C            5.42607202820099        2.00936315749724        0.77976461665754
C            6.50352879497441        2.83367558848370        1.16956984704507
N            7.37315489597070        3.50388355581363        1.50375860405510
C            4.13010922400826        2.45113661687891        0.93565554114322
C            3.05861495085442        1.61940831032484        0.56903225173635
N            1.79547944067193        2.06144017221215        0.70422642457948
C            0.81639882598535        1.25251074611917        0.35309588920512
C           -4.78311704837834        4.28342965545362       -0.41747586014273
C           -3.79010294733166        4.85961957713762       -1.21653008357116
C           -4.06092307732467        5.94544920678058       -2.02257187394209
C           -5.33850407405644        6.47424282867811       -2.06007808269308
C           -6.33495579232369        5.87381987840673       -1.31406082714646
C           -6.09060736124296        4.77503384694713       -0.49991675528123
H           -7.81498277840534        2.92600471284052       -1.48601638394185
H           -8.63712344596271        4.48435518363373       -1.41303807651861
H           -9.13112792126979        3.18140252762541       -0.33832735751846
H           -8.74224945559878        4.72897797276471        1.69843528377380
H           -8.23617633591533        6.02868408214925        0.62375825619163
H           -7.16399988869314        5.48608654041299        1.91542579183633
H           -8.78665979946668        2.49516796292361        1.70806425686068
H           -8.16128953526371        0.61361132599341        3.13137885352455
H           -5.76238363476049        0.02074589480831        3.38585816735281
H           -4.06809483744608        1.26212741444148        2.15885545116212
H           -2.29867506788238        4.51231008570652        1.27170419562904
H            0.02007255392348        3.63001364641408        1.20314681495680
H           -3.72589682323692        0.84431087942081       -0.34217142216793
H           -3.38753346243965       -1.09251322000664       -0.33297115500677
H           -1.89377109707646       -4.72524311914166       -3.08778863926826
H           -1.68397182614094       -7.14808421740230       -3.51057653756602
H           -2.76412615905560       -8.75545529303273       -1.97575241856976
H           -4.04845298094921       -7.96039793421700       -0.06307373057372
H           -6.10974575269635       -6.69994116423354        0.68030729035977
H           -4.79897457868547       -7.14663700766273        1.78543388111328
H           -5.90276953531589       -5.86300181349473        2.22758198464472
H           -3.99868540697550       -4.33693641330958        2.62115732404322
H           -2.76591038497061       -4.06051221260648        1.39275886132115
H           -2.87829773528138       -5.63266847136653        2.18103331021613
H           -7.08066825608273       -4.40453979297948        1.17511115189090
H           -8.17094444990595       -2.45690862938109        0.19308505743034
H           -6.98242898932977       -1.06820452536977       -1.46834446188713
H           -4.66204522614647       -1.63024676347364       -2.09363839745377
H           -0.59128577955258       -4.19077835747244       -1.24094383589180
H            1.24378087415761       -2.61911512089610       -0.85782933069605
H            4.84766357919416       -1.08970601045535       -0.51424053633101
H            6.14652445074154        1.95414020428630       -1.75372508916314
H            7.46536028979591        3.11171955351239       -3.44544848284758
H            9.91563815631446        2.73586118388676       -3.57382246835996
H           10.97799842369626        1.17362564775736       -2.02965157137676
H           11.53038089981002       -0.23085104100575        1.38573702894312
H           11.71193307961546        0.89577663287139        0.04423548117145
H           10.54816341752780        1.23405597664896        1.32547631106504
H           11.21835209986911       -0.99732745162500       -1.64334461711261
H           11.05657844142355       -2.13232541005658       -0.30712497841368
H            9.73972578800356       -1.94312559082126       -1.46652248306086
H           10.47655089426446       -2.13646383582115        1.82251170918048
H            9.03852411583738       -3.17269457730230        3.49909449490358
H            6.64162368582400       -2.53392220138652        3.62030009277604
H            5.73679215202766       -0.91012334300721        2.04528795118210
H            3.91938583640946        3.42988045317513        1.33988873320053
H           -2.79305176687184        4.44810135762141       -1.21534087026898
H           -3.27108325992093        6.37283447544412       -2.62284647286081
H           -5.56193942519082        7.33167998033724       -2.67683816566124
H           -7.33514876647545        6.27480884877588       -1.37558557208176

          :  Hamiltonian                  GFN2-xTB          :
         :: gradient norm              0.000044751221 Eh/a0 ::
         :: HOMO-LUMO gap              0.901698819572 eV    ::
         :: SCC energy              -187.907225813455 Eh    ::
         :: -> dispersion             -0.185189134495 Eh    ::
         :: -> Gsolv                  -0.075914607257 Eh    ::
         :: repulsion energy           3.346593627290 Eh    ::

    * Orbital Energies and Occupations

         #    Occupation            Energy/Eh            Energy/eV
      -------------------------------------------------------------
         1        2.0000           -0.6891293             -18.7522
       ...           ...                  ...                  ...
       160        2.0000           -0.4061664             -11.0524
       161        2.0000           -0.4045350             -11.0080
       162        2.0000           -0.4034901             -10.9795
       163        2.0000           -0.4027394             -10.9591
       164        2.0000           -0.4010163             -10.9122
       165        2.0000           -0.3998018             -10.8792
       166        2.0000           -0.3980180             -10.8306
       167        2.0000           -0.3955857             -10.7644
       168        2.0000           -0.3938113             -10.7162
       169        2.0000           -0.3628060              -9.8725
       170        2.0000           -0.3625952              -9.8667
       171        2.0000           -0.3526824              -9.5970
       172        2.0000           -0.3495563              -9.5119 (HOMO)
       173                         -0.3164195              -8.6102 (LUMO)
       174                         -0.2847229              -7.7477
       175                         -0.2631340              -7.1602
       176                         -0.2546084              -6.9282
       177                         -0.2399414              -6.5291
       178                         -0.2330508              -6.3416
       179                         -0.2300254              -6.2593
       180                         -0.2281014              -6.2070
       181                         -0.2280157              -6.2046
       182                         -0.2267063              -6.1690
       183                         -0.2251925              -6.1278
       ...                                ...                  ...
       338                          1.1524465              31.3597
      -------------------------------------------------------------
                  HL-Gap            0.0331368 Eh            0.9017 eV

     #   Z          covCN         q      C6AA      α(0)
     1   6 C        3.761    -0.104    22.531     6.767
     2   6 C        3.909     0.021    20.159     6.382
     3   6 C        3.761    -0.104    22.531     6.767
     4   6 C        2.980    -0.012    28.310     8.728
     5   6 C        2.928    -0.037    28.922     8.819
     6   6 C        2.917    -0.044    29.097     8.846
     7   6 C        2.920    -0.034    28.851     8.808
     8   6 C        2.924    -0.059    29.463     8.901
     9   6 C        2.925     0.057    26.719     8.477
    10   7 N        2.752    -0.067    22.534     7.050
    11   6 C        2.924     0.072    26.390     8.424
    12   6 C        2.918    -0.040    28.984     8.828
    13   6 C        2.922    -0.028    28.690     8.784
    14   6 C        2.987    -0.010    28.266     8.721
    15   6 C        2.978     0.007    27.861     8.658
    16   6 C        2.927    -0.046    29.149     8.854
    17   6 C        2.977     0.007    27.870     8.660
    18   6 C        2.928    -0.065    29.630     8.927
    19   6 C        2.910     0.075    26.334     8.415
    20   7 N        2.754    -0.059    22.372     7.025
    21   6 C        2.950     0.054    26.796     8.490
    22   6 C        2.920    -0.045    29.128     8.850
    23   6 C        2.920    -0.033    28.820     8.803
    24   6 C        2.919    -0.036    28.888     8.814
    25   6 C        2.923    -0.038    28.933     8.821
    26   6 C        2.986    -0.005    28.136     8.701
    27   6 C        3.910     0.023    20.125     6.376
    28   6 C        3.759    -0.110    22.644     6.784
    29   6 C        3.761    -0.099    22.440     6.753
    30   6 C        2.986    -0.004    28.121     8.699
    31   6 C        2.923    -0.037    28.920     8.819
    32   6 C        2.919    -0.035    28.864     8.810
    33   6 C        2.919    -0.033    28.815     8.803
    34   6 C        2.920    -0.046    29.138     8.852
    35   6 C        2.950     0.053    26.805     8.492
    36   6 C        2.919    -0.055    29.359     8.885
    37   6 C        2.920    -0.027    28.665     8.780
    38   6 C        2.986    -0.021    28.523     8.761
    39   6 C        2.957     0.090    26.006     8.364
    40   7 N        1.848    -0.269    27.834     7.819
    41   6 C        2.962     0.086    26.078     8.376
    42   6 C        2.920    -0.056    29.399     8.891
    43   6 C        2.928     0.078    26.256     8.403
    44   7 N        2.753    -0.083    22.854     7.100
    45   6 C        2.929     0.060    26.661     8.468
    46   6 C        2.924    -0.058    29.451     8.900
    47   6 C        2.919    -0.034    28.857     8.809
    48   6 C        2.917    -0.044    29.088     8.844
    49   6 C        2.928    -0.036    28.907     8.817
    50   6 C        2.979    -0.011    28.296     8.726
    51   6 C        3.909     0.021    20.162     6.382
    52   6 C        3.761    -0.105    22.547     6.769
    53   6 C        3.761    -0.106    22.564     6.772
    54   6 C        2.979    -0.012    28.309     8.728
    55   6 C        2.928    -0.037    28.913     8.818
    56   6 C        2.917    -0.044    29.103     8.847
    57   6 C        2.920    -0.034    28.851     8.808
    58   6 C        2.924    -0.060    29.483     8.904
    59   6 C        2.925     0.059    26.683     8.471
    60   6 C        2.971     0.002    27.975     8.676
    61   6 C        1.913     0.127    27.995     8.545
    62   7 N        0.911    -0.263    26.824     7.491
    63   6 C        2.927    -0.036    28.904     8.817
    64   6 C        2.964     0.078    26.264     8.406
    65   7 N        1.848    -0.263    27.688     7.799
    66   6 C        2.959     0.088    26.030     8.368
    67   6 C        2.925     0.058    26.709     8.475
    68   6 C        2.924    -0.059    29.475     8.903
    69   6 C        2.920    -0.034    28.857     8.809
    70   6 C        2.917    -0.045    29.110     8.848
    71   6 C        2.928    -0.037    28.926     8.820
    72   6 C        2.980    -0.012    28.316     8.729
    73   1 H        0.925     0.031     2.578     2.511
    74   1 H        0.925     0.042     2.421     2.433
    75   1 H        0.925     0.043     2.405     2.425
    76   1 H        0.925     0.043     2.414     2.430
    77   1 H        0.925     0.042     2.418     2.432
    78   1 H        0.925     0.030     2.582     2.513
    79   1 H        0.926     0.035     2.513     2.479
    80   1 H        0.926     0.029     2.606     2.524
    81   1 H        0.926     0.028     2.614     2.528
    82   1 H        0.926     0.026     2.645     2.543
    83   1 H        0.926     0.051     2.303     2.373
    84   1 H        0.926     0.060     2.201     2.320
    85   1 H        0.926     0.053     2.281     2.362
    86   1 H        0.926     0.051     2.313     2.378
    87   1 H        0.926     0.041     2.441     2.443
    88   1 H        0.926     0.038     2.479     2.462
    89   1 H        0.926     0.038     2.480     2.463
    90   1 H        0.926     0.048     2.347     2.396
    91   1 H        0.925     0.042     2.427     2.436
    92   1 H        0.925     0.046     2.374     2.409
    93   1 H        0.925     0.046     2.374     2.409
    94   1 H        0.925     0.042     2.416     2.431
    95   1 H        0.925     0.033     2.550     2.497
    96   1 H        0.925     0.043     2.414     2.430
    97   1 H        0.926     0.048     2.339     2.392
    98   1 H        0.926     0.039     2.468     2.457
    99   1 H        0.926     0.037     2.493     2.469
   100   1 H        0.926     0.040     2.452     2.449
   101   1 H        0.926     0.047     2.352     2.398
   102   1 H        0.926     0.055     2.263     2.353
   103   1 H        0.926     0.063     2.163     2.300
   104   1 H        0.926     0.012     2.855     2.642
   105   1 H        0.926     0.029     2.597     2.520
   106   1 H        0.926     0.033     2.549     2.497
   107   1 H        0.926     0.040     2.451     2.448
   108   1 H        0.925     0.045     2.382     2.414
   109   1 H        0.925     0.045     2.383     2.414
   110   1 H        0.925     0.030     2.580     2.512
   111   1 H        0.925     0.045     2.382     2.414
   112   1 H        0.925     0.046     2.374     2.410
   113   1 H        0.925     0.032     2.562     2.503
   114   1 H        0.926     0.039     2.459     2.452
   115   1 H        0.926     0.032     2.557     2.500
   116   1 H        0.926     0.030     2.587     2.515
   117   1 H        0.926     0.016     2.791     2.612
   118   1 H        0.926     0.059     2.206     2.322
   119   1 H        0.926     0.026     2.637     2.539
   120   1 H        0.926     0.027     2.627     2.535
   121   1 H        0.926     0.027     2.626     2.534
   122   1 H        0.926     0.035     2.519     2.482

molecular dipole:
                 x           y           z       tot (Debye)
 q only:       -3.822      -2.650      -0.404
   full:       -4.039      -2.683      -0.504      12.392

 projected vibrational frequencies (cm⁻¹)
eigval :       -0.00    -0.00    -0.00     0.00     0.00     0.00
eigval :        5.53     7.76    10.00    10.96    16.19    19.47
eigval :       22.10    30.19    33.83    38.94    42.54    50.80
eigval :       62.38    67.83    70.78    80.01    84.09    87.31
eigval :       95.48    97.84   104.58   109.20   115.85   118.00
eigval :      123.39   127.77   130.47   132.33   137.19   141.12
eigval :      162.93   176.40   183.64   186.24   189.65   194.18
eigval :      195.01   209.95   216.95   219.01   220.90   229.02
eigval :      232.79   239.47   242.13   250.32   279.33   283.11
eigval :      296.16   301.25   304.20   306.03   313.57   317.65
eigval :      325.99   329.74   330.77   333.33   341.85   347.72
eigval :      348.50   351.60   360.87   373.85   375.63   378.52
eigval :      383.32   384.54   387.47   397.47   403.04   409.00
eigval :      411.25   413.54   420.22   431.00   436.40   446.28
eigval :      450.19   455.66   457.76   458.03   473.23   481.44
eigval :      489.65   498.61   500.45   507.27   514.07   515.53
eigval :      525.51   536.24   540.41   547.31   547.91   553.02
eigval :      556.92   559.97   566.19   571.27   574.59   578.34
eigval :      587.21   587.85   595.00   597.79   599.48   608.21
eigval :      627.47   639.87   647.51   651.03   656.32   664.19
eigval :      681.96   682.54   684.03   688.55   691.01   693.91
eigval :      694.37   695.21   705.71   711.45   724.99   727.23
eigval :      727.44   733.42   758.66   766.43   775.05   775.38
eigval :      776.96   777.11   778.26   781.89   804.26   810.27
eigval :      822.79   824.16   824.24   835.96   840.21   848.41
eigval :      854.78   865.01   866.04   867.92   872.76   877.77
eigval :      882.13   883.35   888.99   903.68   906.53   910.28
eigval :      910.81   911.71   911.81   912.93   913.52   914.69
eigval :      915.08   918.99   919.15   920.41   921.32   921.82
eigval :      923.72   935.04   936.21   937.09   938.33   938.74
eigval :      944.13   956.21   957.62   966.62   974.18  1002.65
eigval :     1010.35  1012.99  1013.93  1049.76  1061.80  1070.53
eigval :     1073.06  1075.40  1076.15  1081.55  1088.37  1098.78
eigval :     1106.17  1113.39  1115.12  1118.71  1119.93  1135.60
eigval :     1138.74  1139.79  1140.38  1141.18  1150.82  1157.57
eigval :     1159.06  1159.45  1170.33  1171.36  1173.65  1180.09
eigval :     1183.06  1185.39  1185.78  1186.64  1187.49  1188.42
eigval :     1192.18  1193.33  1195.65  1227.62  1228.11  1231.73
eigval :     1236.59  1244.61  1248.83  1250.39  1254.20  1260.23
eigval :     1265.55  1266.88  1267.75  1271.48  1273.81  1276.88
eigval :     1283.25  1289.24  1293.47  1293.54  1294.21  1311.74
eigval :     1316.18  1321.20  1322.77  1324.03  1324.62  1328.86
eigval :     1331.33  1331.56  1332.60  1338.91  1346.83  1357.43
eigval :     1381.20  1397.33  1399.52  1399.57  1409.69  1414.50
eigval :     1415.38  1418.07  1418.31  1428.28  1433.58  1434.89
eigval :     1435.50  1436.79  1437.05  1437.83  1442.84  1447.56
eigval :     1452.57  1468.02  1471.06  1473.64  1476.56  1477.91
eigval :     1485.19  1485.99  1486.63  1486.92  1489.14  1490.49
eigval :     1492.23  1493.01  1493.89  1495.25  1496.30  1501.79
eigval :     1502.07  1503.81  1513.09  1520.39  1531.85  1545.10
eigval :     1571.54  1573.35  1574.55  1575.49  1578.37  1582.56
eigval :     1585.87  1587.22  1588.78  1590.25  1590.99  1591.21
eigval :     1597.73  1599.86  1600.37  2360.18  3020.56  3022.80
eigval :     3023.07  3026.49  3026.77  3030.25  3033.91  3034.29
eigval :     3039.93  3041.15  3042.53  3043.90  3048.71  3049.34
eigval :     3049.36  3053.55  3053.94  3054.07  3071.32  3073.55
eigval :     3074.32  3074.54  3077.02  3078.11  3079.91  3080.86
eigval :     3081.26  3082.69  3083.42  3084.23  3085.99  3090.28
eigval :     3091.86  3092.16  3092.56  3093.12  3093.83  3094.28
eigval :     3096.43  3097.80  3099.87  3100.65  3102.67  3103.63
eigval :     3108.90  3109.84  3113.96  3114.27  3114.52  3142.54

   temp. (K)  partition function   enthalpy   heat capacity  entropy
                                   cal/mol     cal/K/mol   cal/K/mol   J/K/mol
 298.15  VIB  0.842E+28            35736.637    225.509    222.134
         ROT  0.325E+09              888.752      2.981     41.928
         INT  0.273E+37            36625.389    228.490    264.062
         TR   0.273E+29             1481.254      4.968     46.335
         TOT                       38106.6433   233.4584   310.3969  1298.7008

       T/K    H(0)-H(T)+PV         H(T)/Eh          T*S/Eh         G(T)/Eh
   ------------------------------------------------------------------------
    298.15    0.607268E-01    0.101843E+01    0.147480E+00    0.870952E+00
   ------------------------------------------------------------------------

         :::::::::::::::::::::::::::::::::::::::::::::::::::::
         ::                  THERMODYNAMIC                  ::
         :::::::::::::::::::::::::::::::::::::::::::::::::::::
         :: total free energy        -183.689680601500 Eh   ::
         ::.................................................::
         :: total energy             -184.560632185448 Eh   ::
         :: zero point energy           0.957704381946 Eh   ::
         :: G(RRHO) w/o ZPVE           -0.086752797998 Eh   ::
         :: G(RRHO) contrib.            0.870951583948 Eh   ::
         :::::::::::::::::::::::::::::::::::::::::::::::::::::

           -------------------------------------------------
          | TOTAL ENERGY             -184.560632185448 Eh   |
          | TOTAL ENTHALPY           -183.542201001906 Eh   |
          | TOTAL FREE ENERGY        -183.689680601500 Eh   |
          | GRADIENT NORM               0.000044784345 Eh/α |
          | HOMO-LUMO GAP               0.901698766431 eV   |
           -------------------------------------------------

 * finished run on 2025/07/17 at 19:05:51.323
