   * xtb version 6.7.1 (edcfbbe) compiled by 'albert@albert-system' on 2024-07-22

   ID    Z sym.   atoms
    1    7 N      1, 5, 20, 35
    2    6 C      2-4, 6-19, 21-34, 36-47
    3    1 H      48-73

          program call               : xtb data2507/gas/3CzBN/3CzBN_gas_S0_finalOpt.xtbopt.xyz --gfn 2 --spinpol --tblite --uhf 2 --ohess vtight --parallel 40 --molden --ceasefiles --namespace data2507/gas/3CzBN/3CzBN_gas_T1_preOpt
 * total energy  :  -117.0059048 Eh     change       -0.6067938E-07 Eh
 * total energy  :  -117.0102363 Eh     change       -0.4331411E-02 Eh
 * total energy  :  -117.0117783 Eh     change       -0.1542037E-02 Eh
 * total energy  :  -117.0118980 Eh     change       -0.1196780E-03 Eh
 * total energy  :  -117.0119882 Eh     change       -0.9023317E-04 Eh
 * total energy  :  -117.0120109 Eh     change       -0.2270264E-04 Eh
 * total energy  :  -117.0120354 Eh     change       -0.2445833E-04 Eh
 * total energy  :  -117.0120435 Eh     change       -0.8154061E-05 Eh
 * total energy  :  -117.0120479 Eh     change       -0.4420801E-05 Eh
 * total energy  :  -117.0120516 Eh     change       -0.3625962E-05 Eh
 * total energy  :  -117.0120686 Eh     change       -0.5854752E-05 Eh
 * total energy  :  -117.0120734 Eh     change       -0.4796081E-05 Eh
 * total energy  :  -117.0120758 Eh     change       -0.2380984E-05 Eh
 * total energy  :  -117.0120768 Eh     change       -0.1013251E-05 Eh
 * total energy  :  -117.0120773 Eh     change       -0.4985672E-06 Eh
 * total energy  :  -117.0120776 Eh     change       -0.3145040E-06 Eh
 * total energy  :  -117.0120778 Eh     change       -0.1965751E-06 Eh
 * total energy  :  -117.0120780 Eh     change       -0.2384268E-06 Eh
 * total energy  :  -117.0120780 Eh     change       -0.1498805E-08 Eh
   *** GEOMETRY OPTIMIZATION CONVERGED AFTER 22 ITERATIONS ***

 final structure:
================
73
 xtb: 6.7.1 (edcfbbe)
N           -3.61200080639607       -0.78389246015560       -0.92260353463906
C           -2.52228065585465       -0.53467860954499       -0.59901972876097
C           -1.24822387767910       -0.24887957053269       -0.17247066073934
C           -0.74805720139817        1.11794896046667       -0.14258947955250
N           -1.65589758423611        2.15859783979423       -0.35984226681960
C           -1.53889179024978        3.14269937164545       -1.31940816769747
C           -0.54426230713472        3.33854919655347       -2.26769990505453
C           -0.68273034336719        4.40447384007716       -3.13702703035199
C           -1.78348498305693        5.25482252462504       -3.07305722268547
C           -2.78921135680039        5.05075428794360       -2.14489153586866
C           -2.67322934399055        3.98757856965274       -1.26335729138501
C           -3.50952283543932        3.47703608947947       -0.21022837646809
C           -4.72381090188058        3.87651554798061        0.32490555284001
C           -5.25079147717679        3.15436998057358        1.38098308676558
C           -4.57237911677676        2.06110813209515        1.91339593305286
C           -3.35811351633249        1.64889311539608        1.40004010599400
C           -2.84129215392591        2.34757939803089        0.31797077534763
C            0.58298973703192        1.36587690118387        0.01337677023659
C            1.51630833363838        0.31073461295275        0.16696505252025
N            2.85865441248158        0.58682051476801        0.40123895031486
C            3.93342327928422       -0.02901758892513       -0.20914242186905
C            3.95104641645569       -0.98714220349479       -1.21383424539079
C            5.17838669323875       -1.42381587995445       -1.67410125102032
C            6.36907046668572       -0.91505662417634       -1.15791982104529
C            6.36081356188128        0.06285479628792       -0.18039112448105
C            5.14020214523090        0.51705288383529        0.29621435485169
C            4.76315664076469        1.51379587646766        1.25813797808282
C            5.48264100597407        2.37001319852720        2.07795344063985
C            4.78970955962294        3.20511144682247        2.93514676195234
C            3.39727508495387        3.17844804735813        2.99368868303970
C            2.65837848438786        2.33605429782693        2.18485296628086
C            3.34575231006764        1.51816917117862        1.29696307973413
C            1.05205697816140       -1.02852490131308        0.16822137333878
C           -0.27507862533508       -1.31065545801250        0.03628825752410
N           -0.73297931270441       -2.63119802517646        0.05312374617280
C           -0.26474802040433       -3.66264748663215       -0.73313972052689
C            0.70959304648342       -3.64739724855770       -1.72074555057986
C            0.97561944323348       -4.82906305078382       -2.38622362913590
C            0.28604663536626       -6.00056514543005       -2.08460971529001
C           -0.70554575890524       -6.01626392480335       -1.11959471434510
C           -0.98950254717559       -4.84244720575936       -0.43958379649286
C           -1.94103308720249       -4.49137726749297        0.58071094304223
C           -2.90668321653185       -5.20339592864596        1.27408220765208
C           -3.65396009777508       -4.54295975439784        2.23337688084905
C           -3.43375500789589       -3.19731705543907        2.51567825319178
C           -2.47257245639316       -2.46964073608933        1.84141735111986
C           -1.74410996331683       -3.11746083160824        0.85389688133474
H            0.30344555854986        2.67379959270477       -2.33603489174608
H            0.07791911083438        4.57910329037324       -3.88325236249574
H           -1.85457575423978        6.07908859576439       -3.76673954243193
H           -3.65038780777354        5.70041556815112       -2.10928791821270
H           -5.24374170946196        4.73396140606019       -0.07464133928360
H           -6.19877465462233        3.44588798966636        1.80760904561995
H           -5.00190284167564        1.52690356252826        2.74736029619353
H           -2.83124821078663        0.81180972074169        1.82976442962460
H            0.94210230930475        2.38390007710791       -0.00027251794995
H            3.03608853696738       -1.36984892348007       -1.63738648276014
H            5.21571253081251       -2.17034683715036       -2.45315778640998
H            7.30941972071812       -1.28368937075380       -1.53922762867953
H            7.28372488469672        0.47147617236659        0.20231593289273
H            6.56166325215720        2.37747533998078        2.04890178916315
H            5.33195573790925        3.87967079222487        3.58052847150552
H            2.88507714915112        3.82447783387758        3.69078197170784
H            1.58224459661547        2.30448365975794        2.25857891817734
H            1.75375302889184       -1.82885027279363        0.34982075892873
H            1.23101960425540       -2.73745583693497       -1.97434028056221
H            1.73079159439214       -4.84307560654139       -3.15787607094038
H            0.52378094047993       -6.90599896288937       -2.62243882614557
H           -1.25309326804278       -6.92083812315121       -0.90311234764393
H           -3.06935629877753       -6.25054946453664        1.06879568811463
H           -4.41482861173701       -5.07904886959710        2.78049131324462
H           -4.02249860069699       -2.71420830886611        3.28078628464806
H           -2.29275133385453       -1.43316301586025        2.07928793201584

 projected vibrational frequencies (cm⁻¹)
eigval :       -0.00    -0.00     0.00     0.00     0.00     0.00
eigval :       16.66    20.11    20.84    23.87    24.94    28.46
eigval :       51.26    58.36    68.15    86.71    96.42   100.78
eigval :      102.56   119.44   131.27   137.58   140.78   146.32
eigval :      147.08   149.79   191.79   208.53   221.68   246.41
eigval :      256.03   269.07   269.42   271.13   276.52   282.69
eigval :      290.65   322.52   348.91   366.41   378.81   388.62
eigval :      392.71   394.25   415.43   417.47   419.28   427.76
eigval :      433.48   433.91   436.20   469.52   472.90   514.64
eigval :      515.33   515.83   531.38   531.97   533.74   535.90
eigval :      536.59   539.76   549.68   579.88   581.20   583.01
eigval :      588.25   589.49   605.50   617.61   623.77   646.00
eigval :      663.61   669.76   672.25   672.49   697.25   705.45
eigval :      707.78   708.32   746.58   752.71   755.08   761.02
eigval :      763.64   765.12   766.10   772.64   773.83   775.75
eigval :      784.30   847.40   855.14   858.74   860.23   865.30
eigval :      869.69   876.19   884.05   885.26   891.58   894.96
eigval :      897.60   898.63   898.77   900.72   902.49   904.34
eigval :      906.07   915.79   916.69   918.12   918.69   919.45
eigval :      920.97   990.19  1007.63  1010.73  1014.38  1017.44
eigval :     1063.78  1065.57  1068.36  1068.86  1069.46  1071.69
eigval :     1085.66  1105.49  1114.03  1139.04  1141.44  1144.04
eigval :     1158.39  1158.96  1174.02  1175.88  1177.25  1177.85
eigval :     1178.77  1180.02  1193.15  1215.41  1225.74  1228.58
eigval :     1229.79  1230.57  1235.29  1235.87  1265.06  1273.49
eigval :     1282.94  1286.65  1287.96  1290.62  1297.18  1304.04
eigval :     1323.79  1342.65  1343.06  1343.82  1352.93  1356.30
eigval :     1364.18  1365.68  1366.07  1389.01  1409.08  1411.39
eigval :     1412.64  1420.28  1427.11  1442.98  1460.21  1462.64
eigval :     1463.34  1482.47  1482.97  1483.48  1502.92  1558.92
eigval :     1560.76  1565.73  1566.55  1572.46  1575.19  1579.54
eigval :     1580.37  1581.07  1581.88  1590.33  1600.45  1602.10
eigval :     2172.92  3080.57  3081.09  3081.40  3082.08  3082.23
eigval :     3082.52  3085.54  3086.28  3086.64  3088.06  3088.23
eigval :     3088.89  3090.72  3091.51  3092.99  3093.93  3094.39
eigval :     3095.61  3096.41  3096.96  3098.81  3099.08  3100.13
eigval :     3100.88  3102.89  3103.79

   temp. (K)  partition function   enthalpy   heat capacity  entropy
                                   cal/mol     cal/K/mol   cal/K/mol   J/K/mol
 298.15  VIB  0.331E+16            20959.176    135.463    127.955
         ROT  0.635E+08              888.752      2.981     38.685
         INT  0.210E+24            21847.928    138.443    166.640
         TR   0.142E+29             1481.254      4.968     45.032
         TOT                       23329.1824   143.4116   211.6716   885.6340

       T/K    H(0)-H(T)+PV         H(T)/Eh          T*S/Eh         G(T)/Eh
   ------------------------------------------------------------------------
    298.15    0.371774E-01    0.584220E+00    0.100572E+00    0.483648E+00
   ------------------------------------------------------------------------

         :::::::::::::::::::::::::::::::::::::::::::::::::::::
         ::                  THERMODYNAMIC                  ::
         :::::::::::::::::::::::::::::::::::::::::::::::::::::
         :: total free energy        -116.528430446527 Eh   ::
         ::.................................................::
         :: total energy             -117.012078029861 Eh   ::
         :: zero point energy           0.547042178285 Eh   ::
         :: G(RRHO) w/o ZPVE           -0.063394594951 Eh   ::
         :: G(RRHO) contrib.            0.483647583334 Eh   ::
         :::::::::::::::::::::::::::::::::::::::::::::::::::::

           -------------------------------------------------
          | TOTAL ENERGY             -117.012078029861 Eh   |
          | TOTAL ENTHALPY           -116.427858432970 Eh   |
          | TOTAL FREE ENERGY        -116.528430446527 Eh   |
          | GRADIENT NORM               0.000042487990 Eh/α |
           -------------------------------------------------

 * finished run on 2025/08/30 at 19:55:40.962
