   * xtb version 6.7.1 (edcfbbe) compiled by 'albert@albert-system' on 2024-07-22

   ID    Z sym.   atoms
    1    7 N      1, 5, 20, 35
    2    6 C      2-4, 6-19, 21-34, 36-47
    3    1 H      48-73

          program call               : xtb data2507/gas/3CzBN/3CzBN_gas_S0_crest.xyz --gfn 2 --ohess vtight --parallel 40 --molden --ceasefiles --namespace data2507/gas/3CzBN/3CzBN_gas_S0_finalOpt
          :  Hamiltonian                  GFN2-xTB          :
 * total energy  :  -117.1040079 Eh     change       -0.2340542E-08 Eh
 * total energy  :  -117.1040083 Eh     change       -0.3631064E-06 Eh
 * total energy  :  -117.1040086 Eh     change       -0.2808550E-06 Eh
 * total energy  :  -117.1040090 Eh     change       -0.4643356E-06 Eh
 * total energy  :  -117.1040093 Eh     change       -0.3009100E-06 Eh
 * total energy  :  -117.1040095 Eh     change       -0.2228354E-06 Eh
 * total energy  :  -117.1040098 Eh     change       -0.2470935E-06 Eh
 * total energy  :  -117.1040101 Eh     change       -0.3453146E-06 Eh
 * total energy  :  -117.1040105 Eh     change       -0.3474430E-06 Eh
 * total energy  :  -117.1040107 Eh     change       -0.2387275E-06 Eh
 * total energy  :  -117.1040107 Eh     change        0.2012229E-07 Eh
 * total energy  :  -117.1040109 Eh     change       -0.1581681E-06 Eh
 * total energy  :  -117.1040109 Eh     change       -0.1817867E-08 Eh
   *** GEOMETRY OPTIMIZATION CONVERGED AFTER 13 ITERATIONS ***

 final structure:
================
73
 xtb: 6.7.1 (edcfbbe)
N           -3.64205712305275       -0.79396257692523       -0.84017797735167
C           -2.56986468177800       -0.54971750871659       -0.51467393430199
C           -1.22932235834836       -0.25758224954234       -0.18317144628425
C           -0.77444439513672        1.07348458669626       -0.17286843200009
N           -1.66546142294673        2.12499895877417       -0.37584977598968
C           -1.51931619620214        3.13050937930632       -1.31759243177347
C           -0.52128964017449        3.31885974116112       -2.26095376087490
C           -0.63545939064961        4.40261233221612       -3.11182179631172
C           -1.71823834987710        5.27444888259719       -3.03676098101903
C           -2.72688286473153        5.07630152676144       -2.11460389155357
C           -2.63337145777108        3.99545860382729       -1.24858308123590
C           -3.48351828042700        3.49007923498879       -0.20564032449402
C           -4.68627798704127        3.92222840473257        0.33616687554975
C           -5.23491678813939        3.20708813648101        1.38195902752798
C           -4.58921217528037        2.08824867661658        1.90065342169108
C           -3.39033531470557        1.64212779639711        1.37843176749587
C           -2.85386925483100        2.33454824465358        0.30500162880959
C            0.57553329921011        1.33790140169316        0.00907759840194
C            1.48309741996240        0.29701586300107        0.19302381452498
N            2.83020941900517        0.58253206000751        0.40477430435660
C            3.90404619612004       -0.03358950500238       -0.21685647567920
C            3.91785536656573       -0.99855668949619       -1.21196153869211
C            5.14449104703034       -1.42295500979071       -1.68694618426842
C            6.33537147046930       -0.89394443565184       -1.19701465796894
C            6.32798819493385        0.08961770035298       -0.22790449755686
C            5.10679670563367        0.52879364715144        0.26490397885416
C            4.73625045604643        1.52528014177935        1.23169137605640
C            5.46942648365314        2.37836392705867        2.04523695353886
C            4.79000666904852        3.21504386373645        2.90809963590065
C            3.39972878174954        3.19240988122748        2.97816481755638
C            2.64926089996916        2.35121841894106        2.17789844412197
C            3.32489467206062        1.53091159969025        1.28679152606727
C            1.03325534539189       -1.02183219003956        0.20194151057732
C           -0.31308769558104       -1.30536427124516        0.02230146670664
N           -0.75757340828931       -2.62670352548464        0.04627446828762
C           -0.25629975729556       -3.66138651390096       -0.72440106113606
C            0.72714683879509       -3.63786785144752       -1.70008303896835
C            1.02297085197352       -4.82180743305733       -2.34897282196771
C            0.34892692655727       -6.00175986685808       -2.04643996433655
C           -0.65303545049008       -6.02393666127822       -1.09626002921879
C           -0.96497124851251       -4.84674778311581       -0.42997089236229
C           -1.93588539903631       -4.50616838848905        0.57344048335973
C           -2.88980045134146       -5.24064911296903        1.26457701965192
C           -3.66140306790187       -4.59694169117480        2.21124721540955
C           -3.47670121179659       -3.24488449357487        2.48655479889253
C           -2.53139761710393       -2.49558702475430        1.81290906977027
C           -1.77874328804746       -3.12831692359863        0.83698766262716
H            0.31388754076822        2.63925964826097       -2.34294922705911
H            0.13108467461459        4.57305544225827       -3.85310208022244
H           -1.77050626195944        6.11038542104622       -3.71803963118462
H           -3.57542370532047        5.74158747622076       -2.06764423771142
H           -5.17542395576502        4.80222341336978       -0.05289268661883
H           -6.17253468231704        3.52260911235756        1.81424585409614
H           -5.03167928062857        1.55820206839507        2.73058760897983
H           -2.89249106428555        0.78486765373416        1.80489588546230
H            0.92049162963775        2.35981491005554        0.00275579439271
H            3.00367127902922       -1.40108640970145       -1.61879963082990
H            5.17785262372677       -2.17830834881878       -2.45782212116940
H            7.27419640506525       -1.25254061445394       -1.59130576036715
H            7.24948618010552        0.51541019375911        0.13876744284885
H            6.54793937677974        2.37898945290009        2.00405984523448
H            5.34009455914168        3.88878012118424        3.54759339457062
H            2.89451090242687        3.84283554492623        3.67649940161825
H            1.57337051399025        2.32986089398236        2.26255675392399
H            1.72447489654816       -1.82831556902556        0.39102203104388
H            1.23618476300221       -2.72265606357503       -1.96129607198800
H            1.78895342853900       -4.82935098035738       -3.11015243872517
H            0.60869748313839       -6.90740412382702       -2.57365770806851
H           -1.18993714120504       -6.93410291099730       -0.87675350346445
H           -3.01831296625754       -6.29355076368480        1.06479680124397
H           -4.41301289350981       -5.14819334093629        2.75600446828256
H           -4.08227941196585       -2.77096378059620        3.24436607464499
H           -2.38531163868631       -1.45335828121261        2.05209055717602

          :  Hamiltonian                  GFN2-xTB          :
         :: gradient norm              0.000154131269 Eh/a0 ::
         :: HOMO-LUMO gap              2.341527290020 eV    ::
         :: SCC energy              -119.348593883569 Eh    ::
         :: -> dispersion             -0.110358751512 Eh    ::
         :: repulsion energy           2.244583023939 Eh    ::

    * Orbital Energies and Occupations

         #    Occupation            Energy/Eh            Energy/eV
      -------------------------------------------------------------
         1        2.0000           -0.6968540             -18.9624
       ...           ...                  ...                  ...
        97        2.0000           -0.4231582             -11.5147
        98        2.0000           -0.4226816             -11.5018
        99        2.0000           -0.4217318             -11.4759
       100        2.0000           -0.4204291             -11.4405
       101        2.0000           -0.4150452             -11.2940
       102        2.0000           -0.4097361             -11.1495
       103        2.0000           -0.4094587             -11.1419
       104        2.0000           -0.3884878             -10.5713
       105        2.0000           -0.3830849             -10.4243
       106        2.0000           -0.3830343             -10.4229
       107        2.0000           -0.3760961             -10.2341
       108        2.0000           -0.3730036             -10.1499
       109        2.0000           -0.3699455             -10.0667 (HOMO)
       110                         -0.2838959              -7.7252 (LUMO)
       111                         -0.2611292              -7.1057
       112                         -0.2540703              -6.9136
       113                         -0.2490536              -6.7771
       114                         -0.2475463              -6.7361
       115                         -0.2316727              -6.3041
       116                         -0.2263248              -6.1586
       117                         -0.2262334              -6.1561
       118                         -0.2106504              -5.7321
       119                         -0.2101125              -5.7175
       120                         -0.1991786              -5.4199
       ...                                ...                  ...
       214                          1.1673176              31.7643
      -------------------------------------------------------------
                  HL-Gap            0.0860495 Eh            2.3415 eV

     #   Z          covCN         q      C6AA      α(0)
     1   7 N        0.911    -0.236    26.183     7.401
     2   6 C        1.909     0.120    28.153     8.569
     3   6 C        2.975    -0.018    28.452     8.749
     4   6 C        2.915     0.075    26.333     8.415
     5   7 N        2.803    -0.046    22.133     6.987
     6   6 C        3.070     0.047    26.869     8.499
     7   6 C        2.910    -0.050    29.247     8.868
     8   6 C        2.925    -0.032    28.801     8.801
     9   6 C        2.920    -0.039    28.961     8.825
    10   6 C        2.913    -0.031    28.777     8.796
    11   6 C        3.067    -0.013    28.271     8.719
    12   6 C        3.067    -0.013    28.278     8.720
    13   6 C        2.913    -0.031    28.764     8.794
    14   6 C        2.920    -0.037    28.923     8.819
    15   6 C        2.925    -0.029    28.728     8.790
    16   6 C        2.911    -0.044    29.085     8.843
    17   6 C        3.069     0.049    26.824     8.492
    18   6 C        2.925    -0.066    29.639     8.928
    19   6 C        2.909     0.073    26.378     8.422
    20   7 N        2.802    -0.042    22.042     6.973
    21   6 C        3.069     0.047    26.887     8.502
    22   6 C        2.911    -0.049    29.223     8.864
    23   6 C        2.924    -0.032    28.792     8.799
    24   6 C        2.920    -0.038    28.955     8.824
    25   6 C        2.913    -0.031    28.784     8.798
    26   6 C        3.067    -0.014    28.304     8.724
    27   6 C        3.067    -0.014    28.298     8.723
    28   6 C        2.913    -0.032    28.786     8.798
    29   6 C        2.920    -0.038    28.952     8.824
    30   6 C        2.924    -0.032    28.793     8.800
    31   6 C        2.910    -0.050    29.240     8.867
    32   6 C        3.069     0.046    26.891     8.503
    33   6 C        2.923    -0.064    29.605     8.923
    34   6 C        2.916     0.075    26.332     8.415
    35   7 N        2.803    -0.046    22.136     6.988
    36   6 C        3.071     0.048    26.860     8.498
    37   6 C        2.910    -0.049    29.218     8.863
    38   6 C        2.924    -0.032    28.801     8.801
    39   6 C        2.920    -0.039    28.965     8.826
    40   6 C        2.913    -0.031    28.773     8.796
    41   6 C        3.067    -0.013    28.274     8.719
    42   6 C        3.068    -0.013    28.276     8.719
    43   6 C        2.913    -0.031    28.762     8.794
    44   6 C        2.920    -0.037    28.926     8.820
    45   6 C        2.925    -0.029    28.730     8.790
    46   6 C        2.911    -0.044    29.086     8.843
    47   6 C        3.071     0.049    26.818     8.491
    48   1 H        0.926     0.025     2.657     2.549
    49   1 H        0.926     0.032     2.559     2.502
    50   1 H        0.926     0.032     2.561     2.503
    51   1 H        0.926     0.035     2.515     2.480
    52   1 H        0.926     0.035     2.515     2.480
    53   1 H        0.926     0.033     2.540     2.492
    54   1 H        0.926     0.035     2.520     2.483
    55   1 H        0.926     0.020     2.726     2.582
    56   1 H        0.926     0.058     2.227     2.334
    57   1 H        0.926     0.027     2.633     2.538
    58   1 H        0.926     0.033     2.541     2.493
    59   1 H        0.926     0.032     2.555     2.500
    60   1 H        0.926     0.035     2.523     2.484
    61   1 H        0.926     0.035     2.520     2.482
    62   1 H        0.926     0.032     2.554     2.499
    63   1 H        0.926     0.033     2.543     2.494
    64   1 H        0.926     0.028     2.616     2.529
    65   1 H        0.926     0.057     2.238     2.340
    66   1 H        0.926     0.022     2.703     2.571
    67   1 H        0.926     0.032     2.562     2.503
    68   1 H        0.926     0.032     2.563     2.503
    69   1 H        0.926     0.035     2.517     2.481
    70   1 H        0.926     0.035     2.515     2.480
    71   1 H        0.926     0.033     2.541     2.493
    72   1 H        0.926     0.034     2.525     2.485
    73   1 H        0.926     0.020     2.737     2.587

molecular dipole:
                 x           y           z       tot (Debye)
 q only:        1.037       0.258       0.385
   full:        1.459       0.345       0.472       3.995

 projected vibrational frequencies (cm⁻¹)
eigval :       -0.00     0.00     0.00     0.00     0.00     0.00
eigval :       17.78    20.33    21.75    23.15    25.54    30.78
eigval :       50.08    61.51    69.81    92.26    97.48   103.76
eigval :      106.14   122.69   133.66   139.48   145.22   148.93
eigval :      150.40   155.38   197.57   212.17   229.47   255.01
eigval :      261.84   271.01   271.17   272.69   282.41   286.24
eigval :      289.88   323.36   348.08   363.24   392.33   395.11
eigval :      396.75   419.19   420.38   422.25   430.01   435.50
eigval :      436.27   438.72   487.59   508.08   517.66   518.94
eigval :      519.94   526.22   529.99   531.97   540.45   540.85
eigval :      541.31   553.29   561.42   586.05   587.64   589.08
eigval :      597.75   608.41   623.76   642.09   661.00   664.85
eigval :      672.31   672.85   673.58   684.58   705.50   706.90
eigval :      708.42   711.05   749.70   755.27   756.62   763.84
eigval :      767.30   768.94   770.66   777.45   779.38   781.09
eigval :      800.89   856.10   859.53   861.74   866.70   869.93
eigval :      873.34   883.06   894.12   895.49   897.58   899.33
eigval :      900.21   900.87   901.34   902.27   904.03   906.57
eigval :      911.58   919.88   920.67   921.67   922.96   924.06
eigval :      926.58  1010.37  1011.73  1012.95  1030.76  1045.34
eigval :     1067.76  1070.29  1072.52  1073.79  1075.07  1076.08
eigval :     1099.38  1122.09  1147.48  1150.11  1152.46  1154.01
eigval :     1165.34  1176.82  1178.60  1179.07  1181.01  1181.55
eigval :     1183.11  1191.50  1196.30  1220.18  1231.01  1231.96
eigval :     1235.00  1236.46  1237.18  1256.90  1289.01  1295.65
eigval :     1298.10  1299.11  1299.51  1301.93  1306.36  1330.15
eigval :     1337.99  1357.85  1358.50  1359.34  1360.80  1361.79
eigval :     1362.52  1401.22  1413.94  1418.27  1426.27  1427.26
eigval :     1428.08  1445.52  1452.40  1465.79  1474.68  1475.29
eigval :     1477.39  1486.92  1487.45  1487.82  1524.94  1558.57
eigval :     1576.70  1577.50  1578.01  1590.13  1591.52  1592.54
eigval :     1599.73  1600.89  1601.75  1613.97  1614.35  1615.93
eigval :     2362.76  3077.39  3078.74  3079.95  3080.32  3081.30
eigval :     3081.76  3083.08  3083.86  3084.66  3085.26  3085.48
eigval :     3087.90  3090.33  3090.90  3092.37  3092.47  3093.11
eigval :     3096.68  3098.45  3098.68  3099.73  3100.14  3100.59
eigval :     3102.33  3108.44  3111.39

   temp. (K)  partition function   enthalpy   heat capacity  entropy
                                   cal/mol     cal/K/mol   cal/K/mol   J/K/mol
 298.15  VIB  0.152E+16            20613.191    133.757    125.595
         ROT  0.633E+08              888.752      2.981     38.677
         INT  0.963E+23            21501.943    136.738    164.272
         TR   0.142E+29             1481.254      4.968     45.032
         TOT                       22983.1971   141.7057   209.3041   875.7285

       T/K    H(0)-H(T)+PV         H(T)/Eh          T*S/Eh         G(T)/Eh
   ------------------------------------------------------------------------
    298.15    0.366261E-01    0.588026E+00    0.994472E-01    0.488579E+00
   ------------------------------------------------------------------------

         :::::::::::::::::::::::::::::::::::::::::::::::::::::
         ::                  THERMODYNAMIC                  ::
         :::::::::::::::::::::::::::::::::::::::::::::::::::::
         :: total free energy        -116.615431595807 Eh   ::
         ::.................................................::
         :: total energy             -117.104010859625 Eh   ::
         :: zero point energy           0.551400358126 Eh   ::
         :: G(RRHO) w/o ZPVE           -0.062821094309 Eh   ::
         :: G(RRHO) contrib.            0.488579263817 Eh   ::
         :::::::::::::::::::::::::::::::::::::::::::::::::::::

           -------------------------------------------------
          | TOTAL ENERGY             -117.104010859625 Eh   |
          | TOTAL ENTHALPY           -116.515984445578 Eh   |
          | TOTAL FREE ENERGY        -116.615431595807 Eh   |
          | GRADIENT NORM               0.000154019418 Eh/α |
          | HOMO-LUMO GAP               2.341526422787 eV   |
           -------------------------------------------------

 * finished run on 2025/08/30 at 19:55:33.173
