   * xtb version 6.7.1 (edcfbbe) compiled by 'albert@albert-system' on 2024-07-22

   ID    Z sym.   atoms
    1    7 N      1, 5, 20, 35
    2    6 C      2-4, 6-19, 21-34, 36-47
    3    1 H      48-73

          program call               : xtb data2507/gas/3CzBN/3CzBN_gas_T1_crest.xyz --gfn 2 --spinpol --tblite --uhf 2 --ohess vtight --parallel 40 --molden --ceasefiles --namespace data2507/gas/3CzBN/3CzBN_gas_T1_finalOpt
 * total energy  :  -117.0120974 Eh     change       -0.3328012E-08 Eh
 * total energy  :  -117.0121485 Eh     change       -0.5102711E-04 Eh
 * total energy  :  -117.0121653 Eh     change       -0.1683254E-04 Eh
 * total energy  :  -117.0121653 Eh     change       -0.6708021E-08 Eh
 * total energy  :  -117.0121674 Eh     change       -0.2139848E-05 Eh
 * total energy  :  -117.0121681 Eh     change       -0.7004506E-06 Eh
 * total energy  :  -117.0121689 Eh     change       -0.7102659E-06 Eh
 * total energy  :  -117.0121696 Eh     change       -0.7266412E-06 Eh
 * total energy  :  -117.0121700 Eh     change       -0.4388958E-06 Eh
 * total energy  :  -117.0121703 Eh     change       -0.3287523E-06 Eh
 * total energy  :  -117.0121718 Eh     change       -0.3137475E-06 Eh
 * total energy  :  -117.0121722 Eh     change       -0.4248375E-06 Eh
 * total energy  :  -117.0121725 Eh     change       -0.3023622E-06 Eh
 * total energy  :  -117.0121727 Eh     change       -0.1538893E-06 Eh
 * total energy  :  -117.0121729 Eh     change       -0.2560750E-06 Eh
 * total energy  :  -117.0121731 Eh     change       -0.1774357E-06 Eh
 * total energy  :  -117.0121733 Eh     change       -0.1844128E-06 Eh
 * total energy  :  -117.0121735 Eh     change       -0.1513849E-06 Eh
 * total energy  :  -117.0121735 Eh     change       -0.4217100E-07 Eh
   *** GEOMETRY OPTIMIZATION CONVERGED AFTER 22 ITERATIONS ***

 final structure:
================
73
 xtb: 6.7.1 (edcfbbe)
N            1.46299305242955       -3.54528242339268       -0.05905689404573
C            1.01938548295717       -2.46911496285560       -0.04252065874397
C            0.49601502657842       -1.19992540406454       -0.02289565003148
C           -0.91632651016714       -0.95806102255765        0.22535004100654
N           -1.74454641853668       -2.06541746713391        0.44190728762168
C           -2.84920932060998       -2.40664728351519       -0.30780184852599
C           -3.37805798383995       -1.78514630223946       -1.42970353499228
C           -4.49710447841190       -2.34820153117427       -2.01363642585220
C           -5.07567659147071       -3.50591889667424       -1.49999169024354
C           -4.53867772611714       -4.14342635141536       -0.39508387400664
C           -3.41614865599808       -3.59707606068463        0.20663923628194
C           -2.60066283732517       -3.98246791252947        1.32791439993172
C           -2.65235199128403       -5.03043130540347        2.23298240595652
C           -1.69723918998598       -5.08728773032161        3.23286080801469
C           -0.71290106935041       -4.10859194328396        3.34471495423636
C           -0.64398766225270       -3.05174919576578        2.45755197080794
C           -1.58130990044072       -3.00716591275484        1.43461108835472
C           -1.42922590518638        0.30379475367164        0.19942282504838
C           -0.59264722882653        1.43004197846905       -0.00107052657183
N           -1.12517929707536        2.71385436497257        0.00666337703917
C           -2.25622767796091        3.12533769728066       -0.67119091005474
C           -3.07644214283207        2.41522603018911       -1.53756342236605
C           -4.14846155316172        3.07559700335180       -2.10650352198340
C           -4.40091490065676        4.41877788393209       -1.83204496597530
C           -3.57127745164947        5.14247869446163       -0.99536876121000
C           -2.48758914463985        4.50060351130093       -0.41495691310878
C           -1.43208123336561        4.93430384047417        0.45561365220769
C           -1.12195002201130        6.14901323303572        1.04849872627599
C           -0.01943577537594        6.21913921395525        1.88011948387962
C            0.75838701144942        5.09125208620598        2.13699343758032
C            0.46959387706665        3.87156267856664        1.55558125656188
C           -0.61713014597664        3.79872468331345        0.69451178478243
C            0.79513393620111        1.22789441721674       -0.20603867908669
C            1.32404498087677       -0.02667977955682       -0.25025195591040
N            2.69469684443929       -0.22009843113679       -0.46031140398269
C            3.25544506877882       -0.97580255408084       -1.46666217859386
C            2.63479865739587       -1.64272101700545       -2.51399899467580
C            3.44007300202476       -2.31823952431878       -3.41060539766143
C            4.82687320315336       -2.31833137666969       -3.28358134956395
C            5.45158794142562       -1.63040781505227       -2.25803500999308
C            4.66465824244674       -0.94940125202080       -1.34314317244044
C            4.95686852909455       -0.13162675674048       -0.19562669880091
C            6.13006490204773        0.25665707582332        0.43171915706423
C            6.04657760651325        1.05582055297949        1.55866640779127
C            4.81329809930637        1.45327004349628        2.06852618397138
C            3.63053951300445        1.07909112481222        1.45913657654970
C            3.70886844587304        0.29706717280858        0.31595282820882
H           -2.92034152922600       -0.89905890010483       -1.84222831647517
H           -4.92930352094927       -1.88289059729823       -2.88694625057872
H           -5.95180206106877       -3.91519140868845       -1.98015097057888
H           -4.97977835274594       -5.05049477715344       -0.01090238135647
H           -3.42248351007383       -5.78309666596358        2.15813015330577
H           -1.71720416128184       -5.89891929157031        3.94461361642480
H            0.01019145596453       -4.17501023591648        4.14339682547262
H            0.11503543645622       -2.29147676825128        2.55700546700454
H           -2.47914672139641        0.45670160953174        0.40100211443081
H           -2.87672659559649        1.38267161043173       -1.77558001997083
H           -4.80035153667976        2.54184490284712       -2.78159298848353
H           -5.25068147693978        4.90052669756105       -2.29180080490599
H           -3.75686450535642        6.18771473780691       -0.79982251918428
H           -1.73467853096043        7.01880714205616        0.86623003232455
H            0.23910604896596        7.15639868423527        2.34943485436446
H            1.60034880541595        5.17073096267669        2.80809709113102
H            1.06449991941821        3.00069935713392        1.77998331194710
H            1.43028632587276        2.08088408622530       -0.39379063381325
H            1.56155891554421       -1.63867435466987       -2.62422085580023
H            2.98424078514959       -2.85502559987829       -4.22867705118985
H            5.42231204964548       -2.85956662753625       -4.00348734961346
H            6.52749070407290       -1.62136303343551       -2.17099153546997
H            7.08757044597109       -0.06373504327208        0.05030754009755
H            6.95000829326052        1.37031886684461        2.05923357076806
H            4.78019128919379        2.06296988764511        2.95912677279578
H            2.67550548148824        1.37194359647388        1.86803210480275

 projected vibrational frequencies (cm⁻¹)
eigval :       -0.00    -0.00    -0.00     0.00     0.00     0.00
eigval :       10.68    19.18    23.21    24.25    25.88    30.19
eigval :       48.27    54.06    69.38    80.91    96.70    98.38
eigval :      106.16   124.38   130.89   136.19   145.42   147.24
eigval :      148.30   148.82   199.08   202.47   219.79   250.55
eigval :      253.25   268.89   269.44   270.31   275.23   281.90
eigval :      284.12   326.34   354.32   367.17   377.63   387.82
eigval :      392.12   394.37   414.78   418.94   419.08   424.64
eigval :      432.17   435.14   435.30   469.23   470.31   514.54
eigval :      515.13   515.46   531.77   532.49   533.34   536.16
eigval :      536.32   536.91   552.56   575.48   580.33   584.60
eigval :      587.25   592.78   612.84   618.10   619.93   645.90
eigval :      663.70   669.18   672.40   672.88   695.66   704.78
eigval :      708.23   708.72   747.29   751.81   754.74   761.86
eigval :      764.10   765.22   767.04   771.12   774.60   775.27
eigval :      783.74   847.44   858.28   861.21   862.62   864.99
eigval :      865.14   874.68   879.98   887.53   891.95   895.49
eigval :      897.11   898.80   899.04   901.18   901.30   903.73
eigval :      904.42   915.18   916.05   918.32   918.45   919.46
eigval :      919.67   990.32  1008.24  1010.77  1013.47  1017.35
eigval :     1063.27  1064.10  1067.70  1068.08  1069.63  1071.11
eigval :     1082.58  1108.94  1114.12  1137.52  1140.90  1143.12
eigval :     1158.71  1161.65  1174.46  1175.67  1175.80  1178.51
eigval :     1178.86  1178.89  1193.13  1220.62  1225.34  1226.16
eigval :     1229.78  1230.43  1236.48  1237.99  1265.77  1271.74
eigval :     1282.19  1286.16  1287.80  1290.15  1296.90  1303.34
eigval :     1325.30  1341.85  1342.24  1342.36  1352.01  1355.64
eigval :     1364.85  1364.99  1366.57  1388.93  1407.89  1411.68
eigval :     1411.92  1421.87  1426.11  1442.50  1459.89  1462.55
eigval :     1462.99  1482.47  1482.83  1483.38  1506.15  1558.05
eigval :     1560.80  1566.13  1566.66  1572.09  1578.50  1579.58
eigval :     1581.18  1581.48  1587.26  1590.09  1600.37  1601.88
eigval :     2171.58  3080.07  3080.42  3081.65  3082.30  3082.38
eigval :     3082.43  3085.13  3085.60  3087.27  3088.30  3088.50
eigval :     3088.79  3089.12  3089.88  3092.17  3092.57  3095.10
eigval :     3095.19  3096.33  3097.67  3098.71  3099.04  3101.27
eigval :     3101.48  3104.72  3105.36

   temp. (K)  partition function   enthalpy   heat capacity  entropy
                                   cal/mol     cal/K/mol   cal/K/mol   J/K/mol
 298.15  VIB  0.482E+16            20970.044    135.376    128.294
         ROT  0.636E+08              888.752      2.981     38.690
         INT  0.307E+24            21858.796    138.357    166.983
         TR   0.142E+29             1481.254      4.968     45.032
         TOT                       23340.0498   143.3253   212.0154   887.0723

       T/K    H(0)-H(T)+PV         H(T)/Eh          T*S/Eh         G(T)/Eh
   ------------------------------------------------------------------------
    298.15    0.371947E-01    0.584208E+00    0.100735E+00    0.483472E+00
   ------------------------------------------------------------------------

         :::::::::::::::::::::::::::::::::::::::::::::::::::::
         ::                  THERMODYNAMIC                  ::
         :::::::::::::::::::::::::::::::::::::::::::::::::::::
         :: total free energy        -116.528701206517 Eh   ::
         ::.................................................::
         :: total energy             -117.012173493757 Eh   ::
         :: zero point energy           0.547012898543 Eh   ::
         :: G(RRHO) w/o ZPVE           -0.063540611303 Eh   ::
         :: G(RRHO) contrib.            0.483472287240 Eh   ::
         :::::::::::::::::::::::::::::::::::::::::::::::::::::

           -------------------------------------------------
          | TOTAL ENERGY             -117.012173493757 Eh   |
          | TOTAL ENTHALPY           -116.427965858339 Eh   |
          | TOTAL FREE ENERGY        -116.528701206517 Eh   |
          | GRADIENT NORM               0.000050784027 Eh/α |
           -------------------------------------------------

 * finished run on 2025/08/30 at 20:00:21.164
