   * xtb version 6.7.1 (edcfbbe) compiled by 'albert@albert-system' on 2024-07-22

   ID    Z sym.   atoms
    1    7 N      1, 5, 20, 35
    2    6 C      2-4, 6-19, 21-34, 36-47
    3    1 H      48-73

          program call               : xtb data2507/gas/3CzBN/3CzBN.xyz --gfn 2 --ohess vtight --parallel 40 --molden --ceasefiles --namespace data2507/gas/3CzBN/3CzBN_gas_S0_preOpt
          :  Hamiltonian                  GFN2-xTB          :
 * total energy  :  -117.0808484 Eh     change       -0.2599435E-08 Eh
 * total energy  :  -117.0973334 Eh     change       -0.1648495E-01 Eh
 * total energy  :  -117.1007485 Eh     change       -0.3415115E-02 Eh
 * total energy  :  -117.1012831 Eh     change       -0.5345642E-03 Eh
 * total energy  :  -117.1016816 Eh     change       -0.3984853E-03 Eh
 * total energy  :  -117.1018391 Eh     change       -0.1575179E-03 Eh
 * total energy  :  -117.1019526 Eh     change       -0.1135591E-03 Eh
 * total energy  :  -117.1020270 Eh     change       -0.7440262E-04 Eh
 * total energy  :  -117.1021045 Eh     change       -0.7743521E-04 Eh
 * total energy  :  -117.1021914 Eh     change       -0.8689450E-04 Eh
 * total energy  :  -117.1028951 Eh     change       -0.1515646E-06 Eh
 * total energy  :  -117.1028953 Eh     change       -0.1486072E-06 Eh
 * total energy  :  -117.1028955 Eh     change       -0.2108242E-06 Eh
 * total energy  :  -117.1028958 Eh     change       -0.2919048E-06 Eh
 * total energy  :  -117.1028962 Eh     change       -0.3993032E-06 Eh
 * total energy  :  -117.1028966 Eh     change       -0.4612690E-06 Eh
 * total energy  :  -117.1028971 Eh     change       -0.4448096E-06 Eh
 * total energy  :  -117.1028974 Eh     change       -0.3424660E-06 Eh
 * total energy  :  -117.1028974 Eh     change       -0.7009362E-09 Eh
   *** GEOMETRY OPTIMIZATION CONVERGED AFTER 44 ITERATIONS ***

 final structure:
================
73
 xtb: 6.7.1 (edcfbbe)
N           -0.00405065081680       -3.93911912704562        0.00024119141414
C           -0.00287480860559       -2.79220600075029        0.00012469411844
C           -0.00142926950524       -1.38029896740848        0.00004751951386
C            1.21126235678698       -0.67154036416368        0.07910946746429
N            2.42489376589189       -1.35437705374841        0.15153214335333
C            3.38742353265050       -1.17757604426946        1.13030500285266
C            3.36730957691442       -0.35784441244659        2.24787500991899
C            4.46073674256687       -0.39597646520599        3.09309236975223
C            5.54405970148510       -1.23362771542919        2.84146787064458
C            5.55814775459858       -2.06686666856834        1.74015101030426
C            4.47236632323297       -2.04493499219686        0.87545302435681
C            4.15076822003839       -2.76313563305243       -0.32744883818186
C            4.82777147885685       -3.71262099432916       -1.08074310390226
C            4.23673967077155       -4.18235663990543       -2.23658563782006
C            2.99776726229887       -3.70354923358371       -2.65389159950489
C            2.30565712531891       -2.75799039074897       -1.92139438170842
C            2.87977396403646       -2.30992719951539       -0.74235398351622
C            1.20179096444865        0.71555624854168        0.09551733106713
C            0.00146403495839        1.41584066983838       -0.00004051482429
N            0.00290238349495        2.80820488854672       -0.00008749727415
C           -0.82755582796765        3.62057122094568        0.75556755402768
C           -1.77964541982078        3.27731139617242        1.70373101512737
C           -2.45085448968431        4.30189361027206        2.34488342621321
C           -2.17897506259717        5.63802207838740        2.06346981136407
C           -1.21070045123335        5.98565237842889        1.14255662573377
C           -0.52427986290236        4.97344133107689        0.48577090564741
C            0.53454315607741        4.97231900220322       -0.48608691381832
C            1.22304823290519        5.98307227075968       -1.14293578372389
C            2.19061174179110        5.63338990182968       -2.06381970369175
C            2.45973989031949        4.29668610930517       -2.34514633615440
C            1.78641589644892        3.27352923427555       -1.70393455814492
C            0.83503204919227        3.61880945793544       -0.75579625270902
C           -1.20030853303731        0.71803462972623       -0.09556177281642
C           -1.21265313643087       -0.66903884546701       -0.07906306630140
N           -2.42769680382067       -1.34936532210401       -0.15144032361071
C           -2.88455842615591       -2.30390355909941        0.74251627259707
C           -2.31138686418212       -2.75304592295505        1.92160596866612
C           -3.00545082578436       -3.69712289277225        2.65416576989280
C           -4.24539303954505       -4.17342346402589        2.23687128902781
C           -4.83544025627844       -3.70256387172540        1.08098296844409
C           -4.15647436649434       -2.75453151404332        0.32762494335280
C           -4.47656788485615       -2.03577764168088       -0.87534785217550
C           -5.56236938548885       -2.05555798553062       -1.74007263397367
C           -5.54655379246132       -1.22242938109719       -2.84144962123041
C           -4.46151619404287       -0.38701063099526       -3.09310940021642
C           -3.36802809219314       -0.35105933912099       -2.24787540908688
C           -3.38984459533171       -1.17066294468465       -1.13024340889671
H            2.52526540181600        0.28417812152225        2.46105720580881
H            4.47210330690639        0.23567553687596        3.96892190180287
H            6.37982585497673       -1.23397556198837        3.52500318030761
H            6.39164346963986       -2.72664367637908        1.55346741854412
H            5.79752300742627       -4.06829009401590       -0.76741733020524
H            4.74386019284769       -4.92441196826406       -2.83477733360139
H            2.56776778520861       -4.07599887973357       -3.57138878156938
H            1.35252731230907       -2.38522420004413       -2.26562391584763
H            2.13493863254951        1.24975885054229        0.18183841510602
H           -1.98662452846858        2.24700210337478        1.95065872129433
H           -3.19991755031591        4.05847185365292        3.08352819833646
H           -2.72729160281885        6.40914352640347        2.58327491822475
H           -0.98414926238574        7.02086995744407        0.93791898549895
H            0.99862228405874        7.01876716021513       -0.93837218892551
H            2.74050280411817        6.40334728299765       -2.58368702922364
H            3.20829575702359        4.05167504047261       -3.08377976844525
H            1.99127855641438        2.24278033293712       -1.95079213426318
H           -2.13234782810209        1.25416352766717       -0.18191863133485
H           -1.35750098192932       -2.38220843448236        2.26582393792749
H           -2.57623128899072       -4.07038603772871        3.57169751074637
H           -4.75404587866668       -4.91438999747663        2.83511170083125
H           -5.80591473026170       -4.05626566679275        0.76766827761316
H           -6.39723209792557       -2.71359071899940       -1.55334096241503
H           -6.38230040535556       -1.22112383864930       -3.52500757662261
H           -4.47155717068802        0.24457387252045       -3.96900381369856
H           -2.52465982522938        0.28921069734634       -2.46109449745284

          :  Hamiltonian                  GFN2-xTB          :
         :: gradient norm              0.000063462705 Eh/a0 ::
         :: HOMO-LUMO gap              2.341293139249 eV    ::
         :: SCC energy              -119.346097544391 Eh    ::
         :: -> dispersion             -0.108446492037 Eh    ::
         :: repulsion energy           2.243200141892 Eh    ::

    * Orbital Energies and Occupations

         #    Occupation            Energy/Eh            Energy/eV
      -------------------------------------------------------------
         1        2.0000           -0.6973855             -18.9768
       ...           ...                  ...                  ...
        97        2.0000           -0.4232571             -11.5174
        98        2.0000           -0.4215973             -11.4722
        99        2.0000           -0.4214109             -11.4672
       100        2.0000           -0.4210643             -11.4577
       101        2.0000           -0.4152252             -11.2989
       102        2.0000           -0.4091540             -11.1336
       103        2.0000           -0.4086203             -11.1191
       104        2.0000           -0.3886959             -10.5770
       105        2.0000           -0.3823846             -10.4052
       106        2.0000           -0.3823748             -10.4049
       107        2.0000           -0.3764298             -10.2432
       108        2.0000           -0.3712134             -10.1012
       109        2.0000           -0.3705718             -10.0838 (HOMO)
       110                         -0.2845309              -7.7425 (LUMO)
       111                         -0.2613850              -7.1126
       112                         -0.2542719              -6.9191
       113                         -0.2484357              -6.7603
       114                         -0.2470198              -6.7218
       115                         -0.2319011              -6.3104
       116                         -0.2257335              -6.1425
       117                         -0.2255550              -6.1377
       118                         -0.2113296              -5.7506
       119                         -0.2100084              -5.7146
       120                         -0.1978156              -5.3828
       ...                                ...                  ...
       214                          1.1669882              31.7554
      -------------------------------------------------------------
                  HL-Gap            0.0860409 Eh            2.3413 eV

     #   Z          covCN         q      C6AA      α(0)
     1   7 N        0.911    -0.235    26.153     7.396
     2   6 C        1.908     0.120    28.145     8.568
     3   6 C        2.974    -0.018    28.442     8.748
     4   6 C        2.915     0.075    26.329     8.414
     5   7 N        2.804    -0.048    22.165     6.992
     6   6 C        3.070     0.047    26.869     8.499
     7   6 C        2.910    -0.051    29.256     8.869
     8   6 C        2.925    -0.032    28.807     8.802
     9   6 C        2.920    -0.039    28.969     8.826
    10   6 C        2.913    -0.031    28.779     8.797
    11   6 C        3.067    -0.013    28.280     8.720
    12   6 C        3.068    -0.014    28.286     8.721
    13   6 C        2.913    -0.031    28.770     8.795
    14   6 C        2.920    -0.037    28.925     8.820
    15   6 C        2.925    -0.029    28.720     8.789
    16   6 C        2.910    -0.044    29.101     8.846
    17   6 C        3.070     0.049    26.827     8.493
    18   6 C        2.925    -0.065    29.612     8.924
    19   6 C        2.909     0.073    26.375     8.421
    20   7 N        2.803    -0.041    22.039     6.972
    21   6 C        3.068     0.046    26.891     8.503
    22   6 C        2.910    -0.050    29.241     8.867
    23   6 C        2.924    -0.032    28.792     8.800
    24   6 C        2.920    -0.038    28.952     8.824
    25   6 C        2.913    -0.031    28.784     8.798
    26   6 C        3.067    -0.014    28.299     8.723
    27   6 C        3.067    -0.014    28.299     8.723
    28   6 C        2.913    -0.031    28.784     8.798
    29   6 C        2.920    -0.038    28.952     8.824
    30   6 C        2.924    -0.032    28.792     8.800
    31   6 C        2.910    -0.050    29.241     8.867
    32   6 C        3.068     0.046    26.891     8.503
    33   6 C        2.925    -0.065    29.612     8.924
    34   6 C        2.915     0.075    26.329     8.414
    35   7 N        2.804    -0.048    22.165     6.992
    36   6 C        3.070     0.049    26.827     8.493
    37   6 C        2.910    -0.044    29.101     8.846
    38   6 C        2.925    -0.029    28.720     8.789
    39   6 C        2.920    -0.037    28.925     8.820
    40   6 C        2.913    -0.031    28.770     8.795
    41   6 C        3.068    -0.014    28.286     8.721
    42   6 C        3.067    -0.013    28.280     8.720
    43   6 C        2.913    -0.031    28.779     8.797
    44   6 C        2.920    -0.039    28.969     8.826
    45   6 C        2.925    -0.032    28.807     8.802
    46   6 C        2.910    -0.051    29.256     8.869
    47   6 C        3.070     0.047    26.869     8.499
    48   1 H        0.926     0.024     2.676     2.558
    49   1 H        0.926     0.031     2.566     2.505
    50   1 H        0.926     0.031     2.567     2.505
    51   1 H        0.926     0.035     2.520     2.482
    52   1 H        0.926     0.035     2.519     2.482
    53   1 H        0.926     0.033     2.542     2.493
    54   1 H        0.926     0.035     2.515     2.480
    55   1 H        0.926     0.023     2.695     2.567
    56   1 H        0.926     0.058     2.227     2.334
    57   1 H        0.926     0.028     2.615     2.529
    58   1 H        0.926     0.033     2.541     2.493
    59   1 H        0.926     0.032     2.552     2.498
    60   1 H        0.926     0.035     2.519     2.482
    61   1 H        0.926     0.035     2.519     2.482
    62   1 H        0.926     0.032     2.552     2.498
    63   1 H        0.926     0.033     2.541     2.493
    64   1 H        0.926     0.028     2.615     2.529
    65   1 H        0.926     0.058     2.227     2.334
    66   1 H        0.926     0.023     2.695     2.567
    67   1 H        0.926     0.035     2.515     2.480
    68   1 H        0.926     0.033     2.542     2.493
    69   1 H        0.926     0.035     2.519     2.482
    70   1 H        0.926     0.035     2.520     2.482
    71   1 H        0.926     0.031     2.567     2.505
    72   1 H        0.926     0.031     2.566     2.505
    73   1 H        0.926     0.024     2.676     2.558

molecular dipole:
                 x           y           z       tot (Debye)
 q only:        0.001       1.139      -0.000
   full:        0.002       1.587      -0.000       4.034

 projected vibrational frequencies (cm⁻¹)
eigval :       -0.00    -0.00    -0.00     0.00     0.00     0.00
eigval :       16.33    19.75    21.70    23.18    23.96    27.71
eigval :       53.77    59.76    70.90    88.84    97.99   100.23
eigval :      109.98   129.35   133.17   141.57   147.53   150.48
eigval :      154.30   158.11   204.04   215.72   220.40   253.28
eigval :      261.00   270.66   271.47   272.30   280.77   284.91
eigval :      290.77   323.59   346.44   362.20   395.41   396.25
eigval :      396.71   420.98   421.64   422.25   432.82   436.46
eigval :      437.23   438.47   487.54   507.26   517.26   518.35
eigval :      519.86   526.10   530.26   530.50   540.89   541.30
eigval :      541.37   554.02   555.76   583.32   588.02   588.77
eigval :      589.63   619.88   636.87   637.58   650.50   664.24
eigval :      672.57   672.83   673.69   697.31   700.82   707.03
eigval :      708.21   709.51   749.89   755.04   755.44   768.70
eigval :      768.91   770.11   770.88   780.36   780.40   781.77
eigval :      800.14   857.17   866.59   870.57   870.74   872.99
eigval :      873.55   885.45   892.23   895.24   898.86   899.70
eigval :      901.27   902.65   902.85   903.81   903.98   907.65
eigval :      911.69   922.11   922.15   922.81   922.83   925.12
eigval :      926.65  1009.80  1010.93  1012.76  1031.39  1045.66
eigval :     1071.24  1071.42  1072.68  1074.77  1075.31  1075.83
eigval :     1100.06  1122.02  1149.43  1152.85  1153.18  1153.69
eigval :     1165.36  1178.36  1180.24  1180.91  1181.01  1181.68
eigval :     1183.17  1192.94  1195.37  1220.20  1233.86  1235.96
eigval :     1236.14  1236.28  1236.85  1257.13  1289.71  1295.82
eigval :     1298.10  1299.52  1300.95  1301.54  1306.42  1330.97
eigval :     1338.59  1357.45  1357.89  1358.56  1360.54  1361.60
eigval :     1362.24  1401.22  1414.37  1418.89  1426.69  1428.01
eigval :     1428.23  1446.00  1451.63  1467.00  1474.59  1475.10
eigval :     1477.13  1486.59  1487.30  1487.35  1525.74  1560.10
eigval :     1576.61  1577.18  1577.56  1589.70  1591.23  1591.78
eigval :     1599.26  1600.55  1600.80  1613.48  1613.99  1615.08
eigval :     2361.56  3075.37  3075.38  3078.74  3078.78  3080.04
eigval :     3080.40  3082.07  3082.08  3083.07  3083.11  3084.64
eigval :     3085.63  3089.61  3089.65  3091.40  3091.87  3091.88
eigval :     3093.06  3098.15  3098.16  3099.04  3099.88  3100.02
eigval :     3100.58  3110.10  3110.56

   temp. (K)  partition function   enthalpy   heat capacity  entropy
                                   cal/mol     cal/K/mol   cal/K/mol   J/K/mol
 298.15  VIB  0.176E+16            20591.687    133.633    125.520
         ROT  0.317E+08              888.752      2.981     37.307
         INT  0.559E+23            21480.440    136.614    162.827
         TR   0.142E+29             1481.254      4.968     45.032
         TOT                       22961.6936   141.5817   207.8586   869.6802

       T/K    H(0)-H(T)+PV         H(T)/Eh          T*S/Eh         G(T)/Eh
   ------------------------------------------------------------------------
    298.15    0.365918E-01    0.588119E+00    0.987603E-01    0.489358E+00
   ------------------------------------------------------------------------

         :::::::::::::::::::::::::::::::::::::::::::::::::::::
         ::                  THERMODYNAMIC                  ::
         :::::::::::::::::::::::::::::::::::::::::::::::::::::
         :: total free energy        -116.613539105947 Eh   ::
         ::.................................................::
         :: total energy             -117.102897402500 Eh   ::
         :: zero point energy           0.551526815635 Eh   ::
         :: G(RRHO) w/o ZPVE           -0.062168519083 Eh   ::
         :: G(RRHO) contrib.            0.489358296552 Eh   ::
         :::::::::::::::::::::::::::::::::::::::::::::::::::::

           -------------------------------------------------
          | TOTAL ENERGY             -117.102897402500 Eh   |
          | TOTAL ENTHALPY           -116.514778798941 Eh   |
          | TOTAL FREE ENERGY        -116.613539105947 Eh   |
          | GRADIENT NORM               0.000063395465 Eh/α |
          | HOMO-LUMO GAP               2.341293360960 eV   |
           -------------------------------------------------

 * finished run on 2025/08/30 at 19:51:57.559
