   * xtb version 6.7.1 (edcfbbe) compiled by 'albert@albert-system' on 2024-07-22

   ID    Z sym.   atoms
    1    6 C      1-13, 15-19, 21-36, 38-57, 59-64
    2    7 N      14, 37, 58
    3    5 B      20
    4    1 H      65-130

          program call               : xtb data2507/toluene/TMAB/TMAB.xyz --gfn 2 --gbsa toluene --ohess vtight --parallel 40 --molden --ceasefiles --namespace data2507/toluene/TMAB/TMAB_toluene_S0_preOpt
      * Solvation model:               GBSA
        Solvent                        toluene
        Solvent mass                       9.2140E+01 g/mol
          :  Hamiltonian                  GFN2-xTB          :
 * total energy  :  -171.9782379 Eh     change       -0.5089333E-08 Eh
 * total energy  :  -172.0403549 Eh     change       -0.6211707E-01 Eh
 * total energy  :  -172.0616373 Eh     change       -0.2128232E-01 Eh
 * total energy  :  -172.0679051 Eh     change       -0.6267812E-02 Eh
 * total energy  :  -172.0710074 Eh     change       -0.3102350E-02 Eh
 * total energy  :  -172.0729321 Eh     change       -0.1924726E-02 Eh
 * total energy  :  -172.0744245 Eh     change       -0.1492408E-02 Eh
 * total energy  :  -172.0756102 Eh     change       -0.1185667E-02 Eh
 * total energy  :  -172.0765341 Eh     change       -0.9239349E-03 Eh
 * total energy  :  -172.0772635 Eh     change       -0.7293724E-03 Eh
 * total energy  :  -172.0899289 Eh     change       -0.3975954E-06 Eh
 * total energy  :  -172.0899293 Eh     change       -0.3918114E-06 Eh
 * total energy  :  -172.0899296 Eh     change       -0.3418164E-06 Eh
 * total energy  :  -172.0899300 Eh     change       -0.3777773E-06 Eh
 * total energy  :  -172.0899304 Eh     change       -0.4094800E-06 Eh
 * total energy  :  -172.0899307 Eh     change       -0.3323430E-06 Eh
 * total energy  :  -172.0899310 Eh     change       -0.2222510E-06 Eh
 * total energy  :  -172.0899311 Eh     change       -0.1882463E-06 Eh
 * total energy  :  -172.0899311 Eh     change       -0.2492442E-08 Eh
   *** GEOMETRY OPTIMIZATION CONVERGED AFTER 340 ITERATIONS ***

 final structure:
================
130
 xtb: 6.7.1 (edcfbbe)
C            2.66144344208453       -3.33047109274609        5.69897372491401
C            2.48529208019462       -2.17305844826188        4.76085268958066
C            3.11864313261898       -0.97166280001657        5.03149886320592
C            2.98421375824565        0.12553204660374        4.19529421209479
C            3.68741383096003        1.40742701031440        4.53617708116341
C            2.18864587674833        0.01012589092135        3.05714171904858
C            2.01155499128999        1.22903588937108        2.17803053119859
C            3.16908299628147        1.39311425490119        1.31949882157722
C            4.14870674261646        1.47714609670113        0.62527055141646
C            5.28507636424730        1.57971911580135       -0.20916892582327
C            5.17895551172466        2.07540770443495       -1.50839433074068
C            6.28316123353783        2.16697023273891       -2.32625094078818
C            7.55464320263941        1.76355720141936       -1.88739214317517
N            8.65128407540916        1.81807886364370       -2.71436518748766
C            9.96961896933023        1.58148325365072       -2.17502622501748
C            8.55364476858431        2.47417999761285       -3.99657847489636
C            7.65153909942874        1.27193582368008       -0.57602349556196
C            6.54444453772196        1.18209398705250        0.23932083154708
C            1.54539585058906       -1.19910441960807        2.73746925926193
B            0.70243067196511       -1.32838285077188        1.40200913011133
C           -0.77430463431078       -1.89439033677802        1.41331195711660
C           -1.15689049232913       -2.89873775374080        0.50382276014715
C           -0.16661164432208       -3.53288617881061       -0.43054558817839
C           -2.47084741491802       -3.36465489359019        0.46716680350098
C           -2.89467004198737       -4.41966208463621       -0.51075825810101
C           -3.40118796294442       -2.83808650685802        1.34660135664724
C           -3.05870246343728       -1.86394191714857        2.26874474952613
C           -4.10793080941582       -1.33324583313645        3.20304631103117
C           -1.74383583894570       -1.39942988256189        2.30490382494729
C           -1.41577610981509       -0.29585702941265        3.28828502172582
C           -1.94356780287388        0.96771097772090        2.80785148814754
C           -2.40219449975760        1.98775256390598        2.36067093613507
C           -2.95766611349555        3.16894189458487        1.81700449427068
C           -3.47178587974410        3.17066990624334        0.51939422682846
C           -4.03403912415394        4.30691147276515       -0.01833958168911
C           -4.10906410806626        5.50317561330002        0.71395701273080
N           -4.64245557895550        6.64391170294791        0.16448106500772
C           -4.81598909031578        7.82453845986600        0.97638791147785
C           -5.36660548490176        6.56793260607168       -1.08282041721912
C           -3.59055496160604        5.48854290431702        2.01871709037391
C           -3.02760255663905        4.35053937183596        2.55399635799127
C            1.35995336583313       -0.89946643513501        0.02797026728643
C            2.62482910137982       -1.37760363779426       -0.35704768559031
C            3.40571090309755       -2.32991802645040        0.50262162306536
C            3.18578143657709       -1.00284136447425       -1.57865294056954
C            4.54050421518407       -1.49465586204704       -1.99335997580104
C            2.47705066245500       -0.16477106900314       -2.42162354193684
C            1.22911938906538        0.32638070266955       -2.07547973932125
C            0.50564888354162        1.24247214425198       -3.02038664242294
C            0.68112847122347       -0.03374451703163       -0.84592360935784
C           -0.65475183327553        0.56419503738977       -0.46222308056261
C           -1.74637069815459       -0.11325966616032       -1.13390240082110
C           -2.64613651609219       -0.69613648559286       -1.68107257471619
C           -3.72118761322767       -1.37746734876917       -2.29596818767777
C           -4.97573078391206       -1.42104377324845       -1.68808800877010
C           -6.02780158974958       -2.08693835837919       -2.27658764732373
C           -5.87824584527721       -2.75041804209781       -3.50516216369843
N           -6.91713083541397       -3.45056900336532       -4.07233262044136
C           -8.25046393663429       -3.31388736878154       -3.53466641393339
C           -6.78251365684344       -3.97747515155293       -5.40978778520240
C           -4.61364200570288       -2.69412023838910       -4.11187578045645
C           -3.56357716929920       -2.02599986006584       -3.52035926085967
C            1.69906960269399       -2.29035861420284        3.61242233183786
C            1.06877234184610       -3.62438811632291        3.33012969904749
H            3.14234117437101       -4.16791899740091        5.19318901315657
H            1.69842516351516       -3.67800860871798        6.07198771435810
H            3.27734751458079       -3.04299452860314        6.54806232923907
H            3.73383461771216       -0.88653881599276        5.91762076847816
H            4.24455907917342        1.78226906907993        3.67871051752929
H            2.97042356392468        2.17440081216839        4.83420763190725
H            4.37852194348611        1.25247902832382        5.36186875511243
H            1.12067936371171        1.13168023769848        1.55829063641096
H            1.89172302200566        2.12469568301776        2.79612238297541
H            4.21108947376749        2.38880941265588       -1.87357536129525
H            6.14749196588561        2.56109730898808       -3.32038368623901
H           10.21626575341064        2.28229257171551       -1.36832405919873
H           10.70817325693774        1.69463736813548       -2.96483404277413
H           10.04651113016402        0.56239837853129       -1.78791479487200
H            9.51139484060411        2.41125736113417       -4.50759368717226
H            7.80776600348312        1.97755918698983       -4.62158303685711
H            8.28171850715843        3.53245811865070       -3.90008781298048
H            8.60172888592425        0.95307633289964       -0.17938990910325
H            6.65215037079319        0.79655079960587        1.24468392097338
H            0.85261309491039       -3.26402590363521       -0.18401337254089
H           -0.36686777421277       -3.21252674890472       -1.45351341970887
H           -0.25578657649865       -4.61826256464954       -0.39842426832802
H           -2.64894696152543       -4.11846697778499       -1.52785288247557
H           -3.96815175159521       -4.58315883314616       -0.45135141991597
H           -2.39115062336981       -5.36562345547551       -0.30815735259017
H           -4.42170667808137       -3.19599385599269        1.31049625834120
H           -3.87354308563426       -1.58884428044863        4.23746161021974
H           -5.07916783968404       -1.75941198440489        2.96130814838228
H           -4.17594990619406       -0.24825052157280        3.13078808782147
H           -1.85795450783058       -0.51847544614417        4.26417273698505
H           -0.33785333447780       -0.20635476771739        3.42184821002169
H           -3.42843520951690        2.26271467169578       -0.06707002633427
H           -4.41798315345834        4.25519224892291       -1.02415796045147
H           -3.85662754916273        8.14593171505997        1.38777542600642
H           -5.51574244196721        7.65899500319345        1.80498616632023
H           -5.20020750960438        8.63256538629525        0.35830037323568
H           -5.77147724370904        7.54713629127764       -1.32579997952770
H           -4.70033443248480        6.26783252712637       -1.89588672859098
H           -6.19710784842148        5.85425722759568       -1.03052757252252
H           -3.62833950612125        6.37335522897725        2.63304327132352
H           -2.63925000910297        4.36982199858332        3.56346588633579
H            2.82490571529431       -2.68435753222437        1.34440648268505
H            3.73160042613321       -3.19053457822455       -0.08135056659934
H            4.29706107896393       -1.83248055138081        0.88638477836984
H            4.84167604388205       -1.03357424467549       -2.93102462847084
H            4.53898567760040       -2.57702992574902       -2.12680917512051
H            5.28435542522665       -1.25025782249803       -1.23650867754371
H            2.91141942634440        0.11787108559956       -3.37178743308232
H            1.01745797507059        1.27802345260726       -3.97983725187733
H           -0.51744571314486        0.90508222646428       -3.18098139827382
H            0.46642436910035        2.25697558196979       -2.61938423059498
H           -0.82632457694015        0.49437332224905        0.61266893259675
H           -0.67715841724830        1.62610390742596       -0.73024052358533
H           -5.11730747183034       -0.92265155936038       -0.73907963195663
H           -6.97736777126636       -2.08799513881297       -1.76637718149639
H           -8.59487363143814       -2.27270572485981       -3.54601430298514
H           -8.94080046846260       -3.90993004026728       -4.12652400132600
H           -8.28652350281168       -3.68222092157752       -2.50656442812289
H           -5.95291002119524       -4.68639051635830       -5.45605226989719
H           -7.69105257024022       -4.51053246130370       -5.67974626097793
H           -6.61093411409085       -3.18716161125470       -6.15110866469661
H           -4.43929581150927       -3.17448931331766       -5.06091988353745
H           -2.60056411030307       -2.00104414783225       -4.01334373988038
H            0.39056518619138       -3.89925331354724        4.13829931605038
H            0.50858685207907       -3.61666599337135        2.40326901743512
H            1.83441781053743       -4.39860561825716        3.26781717621359

          :  Hamiltonian                  GFN2-xTB          :
         :: gradient norm              0.000071749020 Eh/a0 ::
         :: HOMO-LUMO gap              2.092175675672 eV    ::
         :: SCC energy              -175.243663800581 Eh    ::
         :: -> dispersion             -0.176530058091 Eh    ::
         :: -> Gsolv                  -0.066250301917 Eh    ::
         :: repulsion energy           3.153732658397 Eh    ::

    * Orbital Energies and Occupations

         #    Occupation            Energy/Eh            Energy/eV
      -------------------------------------------------------------
         1        2.0000           -0.6486989             -17.6520
       ...           ...                  ...                  ...
       150        2.0000           -0.3807135             -10.3597
       151        2.0000           -0.3789602             -10.3120
       152        2.0000           -0.3775608             -10.2740
       153        2.0000           -0.3746795             -10.1955
       154        2.0000           -0.3733092             -10.1583
       155        2.0000           -0.3666318              -9.9766
       156        2.0000           -0.3629890              -9.8774
       157        2.0000           -0.3623489              -9.8600
       158        2.0000           -0.3609065              -9.8208
       159        2.0000           -0.3598970              -9.7933
       160        2.0000           -0.3343424              -9.0979
       161        2.0000           -0.3335067              -9.0752
       162        2.0000           -0.3334112              -9.0726 (HOMO)
       163                         -0.2565251              -6.9804 (LUMO)
       164                         -0.2129117              -5.7936
       165                         -0.2119184              -5.7666
       166                         -0.2114432              -5.7537
       167                         -0.2064901              -5.6189
       168                         -0.2060223              -5.6062
       169                         -0.2057495              -5.5987
       170                         -0.2036818              -5.5425
       171                         -0.2017696              -5.4904
       172                         -0.2010039              -5.4696
       173                         -0.1978106              -5.3827
       ...                                ...                  ...
       322                          1.4427088              39.2581
      -------------------------------------------------------------
                  HL-Gap            0.0768861 Eh            2.0922 eV

     #   Z          covCN         q      C6AA      α(0)
     1   6 C        3.758    -0.105    22.553     6.771
     2   6 C        2.966    -0.003    28.086     8.693
     3   6 C        2.929    -0.055    29.356     8.885
     4   6 C        2.964    -0.002    28.063     8.689
     5   6 C        3.757    -0.103    22.516     6.765
     6   6 C        2.983    -0.000    28.030     8.685
     7   6 C        3.810    -0.046    21.394     6.584
     8   6 C        1.972    -0.051    32.439     9.198
     9   6 C        1.979    -0.068    32.915     9.265
    10   6 C        2.969     0.015    27.683     8.630
    11   6 C        2.926    -0.033    28.812     8.803
    12   6 C        2.922    -0.064    29.605     8.923
    13   6 C        2.913     0.060    26.651     8.465
    14   7 N        2.734    -0.097    23.131     7.143
    15   6 C        3.696    -0.043    21.514     6.635
    16   6 C        3.696    -0.042    21.509     6.634
    17   6 C        2.922    -0.066    29.652     8.930
    18   6 C        2.926    -0.036    28.898     8.816
    19   6 C        2.883    -0.082    30.049     8.987
    20   5 B        2.703     0.263    17.547     7.027
    21   6 C        2.883    -0.081    30.026     8.983
    22   6 C        2.972     0.001    28.011     8.681
    23   6 C        3.759    -0.111    22.682     6.790
    24   6 C        2.966    -0.001    28.043     8.686
    25   6 C        3.758    -0.101    22.476     6.759
    26   6 C        2.930    -0.051    29.271     8.873
    27   6 C        2.965    -0.001    28.061     8.689
    28   6 C        3.757    -0.102    22.498     6.763
    29   6 C        2.982    -0.000    28.026     8.684
    30   6 C        3.810    -0.051    21.477     6.597
    31   6 C        1.972    -0.056    32.564     9.216
    32   6 C        1.979    -0.070    32.966     9.272
    33   6 C        2.969     0.012    27.749     8.641
    34   6 C        2.926    -0.036    28.886     8.814
    35   6 C        2.922    -0.065    29.625     8.926
    36   6 C        2.913     0.060    26.653     8.466
    37   7 N        2.734    -0.096    23.117     7.141
    38   6 C        3.696    -0.043    21.520     6.636
    39   6 C        3.696    -0.043    21.519     6.636
    40   6 C        2.922    -0.066    29.656     8.930
    41   6 C        2.924    -0.037    28.917     8.819
    42   6 C        2.883    -0.079    29.984     8.977
    43   6 C        2.972     0.000    28.014     8.682
    44   6 C        3.759    -0.110    22.661     6.787
    45   6 C        2.967    -0.001    28.054     8.688
    46   6 C        3.758    -0.100    22.469     6.758
    47   6 C        2.930    -0.052    29.291     8.876
    48   6 C        2.965    -0.002    28.083     8.692
    49   6 C        3.757    -0.101    22.472     6.759
    50   6 C        2.981     0.000    28.014     8.682
    51   6 C        3.810    -0.044    21.353     6.578
    52   6 C        1.969    -0.051    32.430     9.196
    53   6 C        1.979    -0.070    32.955     9.271
    54   6 C        2.969     0.015    27.668     8.628
    55   6 C        2.926    -0.033    28.816     8.803
    56   6 C        2.922    -0.065    29.608     8.923
    57   6 C        2.913     0.060    26.650     8.465
    58   7 N        2.733    -0.098    23.149     7.146
    59   6 C        3.696    -0.042    21.507     6.634
    60   6 C        3.696    -0.043    21.512     6.635
    61   6 C        2.922    -0.066    29.643     8.928
    62   6 C        2.925    -0.036    28.888     8.814
    63   6 C        2.970    -0.003    28.088     8.693
    64   6 C        3.758    -0.113    22.713     6.795
    65   1 H        0.925     0.042     2.426     2.436
    66   1 H        0.925     0.043     2.413     2.429
    67   1 H        0.925     0.035     2.516     2.481
    68   1 H        0.925     0.019     2.749     2.593
    69   1 H        0.925     0.044     2.402     2.423
    70   1 H        0.924     0.038     2.473     2.459
    71   1 H        0.925     0.034     2.524     2.484
    72   1 H        0.925     0.055     2.259     2.350
    73   1 H        0.924     0.053     2.288     2.365
    74   1 H        0.926     0.018     2.771     2.603
    75   1 H        0.926     0.022     2.697     2.568
    76   1 H        0.924     0.039     2.466     2.456
    77   1 H        0.925     0.054     2.272     2.357
    78   1 H        0.924     0.048     2.339     2.392
    79   1 H        0.925     0.054     2.274     2.358
    80   1 H        0.924     0.049     2.338     2.391
    81   1 H        0.924     0.038     2.472     2.459
    82   1 H        0.926     0.022     2.695     2.567
    83   1 H        0.925     0.014     2.824     2.628
    84   1 H        0.925     0.047     2.352     2.398
    85   1 H        0.924     0.038     2.474     2.460
    86   1 H        0.925     0.042     2.429     2.437
    87   1 H        0.925     0.041     2.440     2.443
    88   1 H        0.925     0.033     2.546     2.495
    89   1 H        0.924     0.040     2.444     2.445
    90   1 H        0.925     0.017     2.772     2.604
    91   1 H        0.924     0.039     2.468     2.457
    92   1 H        0.925     0.033     2.548     2.496
    93   1 H        0.925     0.043     2.411     2.428
    94   1 H        0.924     0.053     2.284     2.363
    95   1 H        0.925     0.062     2.180     2.309
    96   1 H        0.925     0.019     2.752     2.594
    97   1 H        0.926     0.023     2.692     2.566
    98   1 H        0.924     0.050     2.324     2.384
    99   1 H        0.924     0.039     2.468     2.457
   100   1 H        0.925     0.054     2.269     2.356
   101   1 H        0.925     0.055     2.264     2.353
   102   1 H        0.924     0.048     2.350     2.397
   103   1 H        0.924     0.040     2.453     2.449
   104   1 H        0.926     0.023     2.685     2.563
   105   1 H        0.925     0.017     2.779     2.607
   106   1 H        0.925     0.046     2.366     2.405
   107   1 H        0.925     0.040     2.453     2.449
   108   1 H        0.924     0.038     2.471     2.458
   109   1 H        0.925     0.033     2.548     2.496
   110   1 H        0.924     0.040     2.453     2.449
   111   1 H        0.925     0.040     2.444     2.445
   112   1 H        0.925     0.017     2.778     2.607
   113   1 H        0.925     0.033     2.539     2.492
   114   1 H        0.925     0.042     2.417     2.431
   115   1 H        0.924     0.036     2.504     2.474
   116   1 H        0.924     0.055     2.260     2.351
   117   1 H        0.924     0.050     2.325     2.384
   118   1 H        0.925     0.016     2.791     2.612
   119   1 H        0.926     0.022     2.697     2.568
   120   1 H        0.924     0.038     2.472     2.459
   121   1 H        0.925     0.054     2.272     2.357
   122   1 H        0.924     0.048     2.344     2.394
   123   1 H        0.924     0.049     2.327     2.386
   124   1 H        0.925     0.054     2.274     2.358
   125   1 H        0.924     0.038     2.478     2.462
   126   1 H        0.926     0.023     2.692     2.566
   127   1 H        0.925     0.014     2.829     2.630
   128   1 H        0.924     0.041     2.434     2.440
   129   1 H        0.925     0.048     2.350     2.397
   130   1 H        0.924     0.040     2.451     2.448

molecular dipole:
                 x           y           z       tot (Debye)
 q only:       -0.334       0.209      -1.340
   full:       -0.421       0.386      -1.415       3.879

 projected vibrational frequencies (cm⁻¹)
eigval :       -0.00    -0.00    -0.00    -0.00     0.00     0.00
eigval :        6.51     8.59    10.60    14.84    16.11    16.90
eigval :       23.34    24.06    27.88    30.21    33.00    35.31
eigval :       35.84    39.23    40.32    41.77    45.23    52.59
eigval :       55.91    56.41    59.95    62.22    66.19    70.21
eigval :       83.96    85.32    93.38    93.74    95.19   100.81
eigval :      108.83   111.19   112.89   117.20   121.53   129.65
eigval :      134.21   140.79   147.11   162.62   165.48   167.79
eigval :      170.69   174.27   175.05   178.69   180.68   184.17
eigval :      187.45   187.79   189.32   209.94   211.93   219.00
eigval :      221.05   222.85   224.15   245.59   247.60   250.11
eigval :      264.75   268.90   269.70   277.40   283.95   287.58
eigval :      289.70   290.15   292.06   306.08   308.15   314.82
eigval :      331.18   340.68   342.31   351.86   360.92   364.03
eigval :      365.50   368.36   373.51   380.70   383.52   383.93
eigval :      390.88   392.48   394.17   401.83   404.53   406.51
eigval :      422.98   423.36   423.38   438.59   442.17   446.38
eigval :      461.57   475.62   477.53   477.89   478.82   479.68
eigval :      481.79   491.12   493.04   500.68   501.39   503.33
eigval :      512.49   514.78   516.48   530.29   540.64   543.54
eigval :      580.41   582.53   582.92   612.94   613.41   613.43
eigval :      614.50   642.49   643.84   647.23   658.35   664.01
eigval :      664.09   664.67   671.13   681.86   694.29   716.60
eigval :      726.00   740.34   749.79   782.54   785.84   786.72
eigval :      786.94   788.18   789.47   839.96   842.75   844.29
eigval :      847.17   860.19   860.63   863.30   865.01   866.18
eigval :      867.29   897.27   898.61   902.22   913.59   914.60
eigval :      916.25   918.08   919.78   940.12   963.09   963.26
eigval :      964.25   980.80   983.88   998.56   998.84   999.26
eigval :     1011.80  1012.52  1013.32  1020.23  1020.69  1020.85
eigval :     1024.84  1027.73  1028.56  1029.35  1034.94  1035.19
eigval :     1036.28  1036.64  1037.38  1039.72  1040.41  1041.08
eigval :     1042.26  1051.60  1052.60  1054.65  1075.51  1076.42
eigval :     1088.08  1089.22  1089.99  1094.49  1096.51  1097.70
eigval :     1102.81  1105.87  1106.86  1133.78  1140.45  1149.62
eigval :     1156.14  1156.78  1156.89  1172.26  1172.69  1173.21
eigval :     1191.82  1200.48  1202.13  1213.60  1214.59  1214.74
eigval :     1242.06  1242.37  1242.80  1258.17  1266.46  1269.95
eigval :     1270.81  1271.27  1271.65  1288.57  1288.63  1288.98
eigval :     1297.36  1298.79  1301.54  1306.33  1308.96  1310.28
eigval :     1325.05  1326.98  1329.74  1330.83  1331.00  1331.22
eigval :     1369.95  1370.56  1371.38  1395.22  1396.81  1398.29
eigval :     1401.34  1401.38  1401.84  1405.34  1405.77  1406.25
eigval :     1406.71  1407.61  1408.34  1413.15  1414.27  1416.96
eigval :     1418.03  1418.89  1419.30  1433.28  1434.48  1435.06
eigval :     1436.43  1438.16  1443.74  1445.75  1446.51  1450.09
eigval :     1469.58  1470.21  1470.49  1471.32  1472.42  1478.06
eigval :     1478.78  1479.11  1479.74  1481.14  1482.11  1485.47
eigval :     1486.61  1487.68  1488.13  1489.80  1491.06  1493.59
eigval :     1494.34  1494.84  1495.19  1495.98  1496.37  1496.79
eigval :     1497.46  1497.59  1498.46  1508.03  1508.86  1509.18
eigval :     1511.13  1511.84  1512.43  1541.71  1542.44  1542.63
eigval :     1562.18  1564.43  1568.21  1584.99  1586.49  1588.33
eigval :     1604.31  1605.20  1605.44  2356.30  2361.96  2362.29
eigval :     2901.68  2901.92  2903.64  2906.25  2907.23  2912.91
eigval :     2924.65  2932.75  2938.70  2959.91  2963.84  2965.59
eigval :     2967.75  2971.82  2972.28  2977.46  2978.92  2983.20
eigval :     2984.43  2985.80  2985.85  2988.95  2991.32  2991.92
eigval :     2995.88  3001.93  3003.48  3007.39  3007.83  3009.18
eigval :     3010.88  3012.39  3013.96  3014.71  3015.79  3016.80
eigval :     3029.09  3032.05  3032.14  3032.26  3032.56  3033.26
eigval :     3034.68  3036.59  3036.79  3039.73  3040.13  3040.59
eigval :     3048.97  3051.46  3052.39  3058.34  3058.56  3061.74
eigval :     3066.68  3070.53  3074.07  3100.35  3103.86  3104.45
eigval :     3105.20  3105.38  3107.61  3108.14  3108.97  3110.46

   temp. (K)  partition function   enthalpy   heat capacity  entropy
                                   cal/mol     cal/K/mol   cal/K/mol   J/K/mol
 298.15  VIB  0.878E+36            42037.581    236.765    271.210
         ROT  0.193E+09              888.752      2.981     40.899
         INT  0.170E+45            42926.334    239.746    312.108
         TR   0.236E+29             1481.254      4.968     46.041
         TOT                       44407.5875   244.7141   358.1494  1498.4970

       T/K    H(0)-H(T)+PV         H(T)/Eh          T*S/Eh         G(T)/Eh
   ------------------------------------------------------------------------
    298.15    0.707680E-01    0.114490E+01    0.170168E+00    0.974731E+00
   ------------------------------------------------------------------------

         :::::::::::::::::::::::::::::::::::::::::::::::::::::
         ::                  THERMODYNAMIC                  ::
         :::::::::::::::::::::::::::::::::::::::::::::::::::::
         :: total free energy        -171.115199711857 Eh   ::
         ::.................................................::
         :: total energy             -172.089931137932 Eh   ::
         :: zero point energy           1.074131761832 Eh   ::
         :: G(RRHO) w/o ZPVE           -0.099400335756 Eh   ::
         :: G(RRHO) contrib.            0.974731426076 Eh   ::
         :::::::::::::::::::::::::::::::::::::::::::::::::::::

           -------------------------------------------------
          | TOTAL ENERGY             -172.089931137932 Eh   |
          | TOTAL ENTHALPY           -170.945031380847 Eh   |
          | TOTAL FREE ENERGY        -171.115199711857 Eh   |
          | GRADIENT NORM               0.000071748918 Eh/α |
          | HOMO-LUMO GAP               2.092177364342 eV   |
           -------------------------------------------------

 * finished run on 2025/08/29 at 16:27:36.466
