   * xtb version 6.7.1 (edcfbbe) compiled by 'albert@albert-system' on 2024-07-22

   ID    Z sym.   atoms
    1    6 C      1-13, 15-19, 21-36, 38-57, 59-64
    2    7 N      14, 37, 58
    3    5 B      20
    4    1 H      65-130

          program call               : xtb data2507/toluene/TMAB/TMAB_toluene_S0_crest.xyz --gfn 2 --gbsa toluene --ohess vtight --parallel 40 --molden --ceasefiles --namespace data2507/toluene/TMAB/TMAB_toluene_S0_finalOpt
      * Solvation model:               GBSA
        Solvent                        toluene
        Solvent mass                       9.2140E+01 g/mol
          :  Hamiltonian                  GFN2-xTB          :
 * total energy  :  -172.0907510 Eh     change       -0.1015167E-08 Eh
 * total energy  :  -172.0909524 Eh     change       -0.2013890E-03 Eh
 * total energy  :  -172.0910660 Eh     change       -0.1136472E-03 Eh
 * total energy  :  -172.0911200 Eh     change       -0.5397068E-04 Eh
 * total energy  :  -172.0912011 Eh     change       -0.8106744E-04 Eh
 * total energy  :  -172.0912551 Eh     change       -0.5401314E-04 Eh
 * total energy  :  -172.0912969 Eh     change       -0.4185555E-04 Eh
 * total energy  :  -172.0913328 Eh     change       -0.3589625E-04 Eh
 * total energy  :  -172.0913514 Eh     change       -0.1854561E-04 Eh
 * total energy  :  -172.0913868 Eh     change       -0.3538402E-04 Eh
 * total energy  :  -172.0917531 Eh     change       -0.3214292E-06 Eh
 * total energy  :  -172.0917534 Eh     change       -0.2848875E-06 Eh
 * total energy  :  -172.0917537 Eh     change       -0.3037653E-06 Eh
 * total energy  :  -172.0917541 Eh     change       -0.3634042E-06 Eh
 * total energy  :  -172.0917545 Eh     change       -0.4025437E-06 Eh
 * total energy  :  -172.0917549 Eh     change       -0.4172519E-06 Eh
 * total energy  :  -172.0917551 Eh     change       -0.1512414E-06 Eh
 * total energy  :  -172.0917554 Eh     change       -0.3612637E-06 Eh
 * total energy  :  -172.0917555 Eh     change       -0.7309424E-07 Eh
   *** GEOMETRY OPTIMIZATION CONVERGED AFTER 96 ITERATIONS ***

 final structure:
================
130
 xtb: 6.7.1 (edcfbbe)
C            5.44900868943295       -2.30884851919620        4.30777603664601
C            4.27636710814687       -1.70864938104885        3.58998929778845
C            3.37348792865771       -0.92453228401002        4.28882887820844
C            2.25973184568766       -0.37295887336566        3.67382987660584
C            1.29419781021462        0.44767126360885        4.47871543627167
C            2.06126021136639       -0.60283753023019        2.31481012640532
C            0.79622393007819       -0.09205971558902        1.66284485241665
C            0.90272929292391        1.31256819232895        1.32295752765482
C            1.01354365547251        2.47883728047733        1.04767095446310
C            1.12625789161277        3.84192044156361        0.69188139929883
C            0.35275942429255        4.37314449173130       -0.33982501665321
C            0.45947345069703        5.69903842971487       -0.69696722954965
C            1.35026243553059        6.56417431518813       -0.04136415604990
N            1.48811250280106        7.87795516569704       -0.42654780840093
C            2.28505799871827        8.77974293588894        0.37107224839753
C            0.53769595059011        8.45682681987594       -1.34701265658950
C            2.11590125992181        6.02173989014508        1.00228146159538
C            2.00640702581551        4.69448422003528        1.35660594601862
C            2.98533632025860       -1.34605433495130        1.56125196069853
B            2.79951471504066       -1.45769677383881       -0.00714430094986
C            2.78179057704304       -2.85199497541574       -0.75547686680806
C            3.54156935863793       -3.04397531722508       -1.92657737717838
C            4.52475037842913       -2.01305193352146       -2.40290394964339
C            3.43355281007348       -4.22585912614433       -2.66013652305585
C            4.22550069369921       -4.43534359062882       -3.91710802597878
C            2.57396784285565       -5.22009390494172       -2.22214122433502
C            1.84338188795138       -5.08515839531811       -1.05326596399328
C            0.94347738185010       -6.20356077166098       -0.61329264106529
C            1.96327717696704       -3.90939099519401       -0.31124772709320
C            1.15085596656658       -3.79400480188988        0.95900895931366
C           -0.24177169061425       -3.49522074962267        0.67894366870813
C           -1.39445346024543       -3.24855927919872        0.43319814867827
C           -2.76098373757757       -2.97911615231569        0.19081169403076
C           -3.57874505429220       -2.47111580447398        1.19959898139509
C           -4.91484169089053       -2.22597818492684        0.97714801096472
C           -5.50305698640674       -2.47140513939491       -0.27274768340883
N           -6.82933484723381       -2.20060993117361       -0.50443170881051
C           -7.44486442193597       -2.61954995314747       -1.74037325668231
C           -7.69107019312410       -1.84066513579448        0.59651198963491
C           -4.67220301986177       -2.98569817650230       -1.28031750439375
C           -3.33602626942005       -3.23009585202392       -1.05380318891152
C            2.65952466338508       -0.11564109899795       -0.83648202838118
C            3.57999234110732        0.93497623069252       -0.65789609837119
C            4.75326373661027        0.80878719925687        0.27273460490745
C            3.45182366726942        2.12594024280920       -1.37160186116818
C            4.40454393054130        3.26638815775545       -1.16561512462654
C            2.42997718817850        2.25474719988952       -2.29600489544109
C            1.52056897499158        1.23599527890377       -2.51767637293540
C            0.45686439508105        1.41798455004789       -3.56121497715370
C            1.62631333961086        0.05999332203353       -1.77348931540631
C            0.55877154194691       -0.99313059575551       -1.97873509050890
C           -0.72475933880239       -0.52484777523617       -1.48969880028296
C           -1.77699007547861       -0.11062348392686       -1.07681577469664
C           -3.02391462530939        0.36445197205190       -0.61209189929037
C           -3.16216663652435        0.87611209981256        0.67648005296996
C           -4.38073068894700        1.32847611496103        1.13305858487741
C           -5.52444501102977        1.29200287915266        0.32234980978401
N           -6.76370756619965        1.68100468251036        0.79622590500888
C           -7.81342702908403        1.97891193145859       -0.15410223134914
C           -6.85218032874504        2.34991482196786        2.07439814615476
C           -5.36765706422437        0.79986253468973       -0.98141536851811
C           -4.14993095096758        0.34316189398456       -1.43355468703357
C            4.08507486777081       -1.92024778261901        2.22255585496411
C            5.09817626520972       -2.75160800037893        1.48738362908331
H            5.43501775706002       -3.39587132281441        4.23058759733419
H            5.43078492473210       -2.03823553540006        5.36099948005011
H            6.38711291501408       -1.95806405236633        3.87772801888134
H            3.53404293542849       -0.74712939171568        5.34419795803101
H            0.35342473384155       -0.08842565555156        4.61632240180065
H            1.70670253912319        0.66381658500861        5.46192331283242
H            1.07442287318667        1.38810521973924        3.97484656745944
H            0.57236382911139       -0.65720586925251        0.75645156178705
H           -0.04945314226210       -0.22900330992933        2.34499263248237
H           -0.33979300515768        3.72752919323271       -0.86183904732755
H           -0.16226146780577        6.05974561673916       -1.50040289313430
H            3.31795579688134        8.42826601489732        0.42139689521442
H            1.89872106107092        8.88211998757670        1.39278331778760
H            2.29053538636274        9.76256863149141       -0.09429234554102
H           -0.49090870638193        8.39447173369921       -0.97151814501840
H            0.78202331144756        9.50425465469232       -1.50640544236211
H            0.58702780184817        7.95032701148971       -2.31394076981323
H            2.80845672128750        6.63860603256326        1.55163484922808
H            2.60979071496340        4.30668157870821        2.16683648098014
H            4.65964097596187       -1.22033923039487       -1.67822091502175
H            4.18396932443898       -1.56571363462769       -3.33717423375992
H            5.49229890546760       -2.47724705890600       -2.59280603391940
H            5.29264112452130       -4.48393555190409       -3.69814841819816
H            4.06708193104395       -3.61574232803852       -4.61677987285025
H            3.93409533539122       -5.36537913895438       -4.40007813733380
H            2.47828240430152       -6.12889441686737       -2.80159051699609
H           -0.06254475754774       -5.83513839843951       -0.41566298147170
H            1.31863293438610       -6.66672328733335        0.30057102831398
H            0.88928825389931       -6.97070701269814       -1.38263945751276
H            1.20102716210553       -4.73725423954360        1.51244846674889
H            1.55442893813925       -3.00994916549413        1.59891620715507
H           -3.15437166623524       -2.27153924840103        2.17429234718620
H           -5.50169042682419       -1.83142884715826        1.79006658374461
H           -6.95668529840400       -2.13844970973132       -2.59134237010648
H           -8.49111784100449       -2.32274996281896       -1.74206792552889
H           -7.39507865591442       -3.70653213209834       -1.87918559703747
H           -8.70075760012322       -1.67912661290193        0.22657852238404
H           -7.72688354893783       -2.62472393613473        1.36259152402071
H           -7.34527110234683       -0.91324724218912        1.05727582422228
H           -5.06791276439656       -3.19923341998279       -2.26012096939606
H           -2.71987029001409       -3.62243778660812       -1.85168104771570
H            5.66003171866557        1.17564286228713       -0.20675209564841
H            4.58458615798635        1.40873012538506        1.16772379886921
H            4.91808138242831       -0.21586015095479        0.57801361268743
H            4.08483470275015        4.13403553764540       -1.73806246840239
H            5.41245188033999        2.99819430431656       -1.48487314652164
H            4.44655530385364        3.54444414854577       -0.11388543525292
H            2.33889452029713        3.17545428328160       -2.85705384821130
H           -0.53500228262004        1.29320558602729       -3.12928349704081
H            0.52543810127237        2.41060710178937       -4.00111593418989
H            0.56866963870074        0.68211101116446       -4.35893868569377
H            0.46499755133745       -1.22729818080720       -3.04481452845347
H            0.80978622072671       -1.91482188376527       -1.45437175809437
H           -2.29447912937634        0.92581538419273        1.31924069810227
H           -4.42948059655054        1.71996183805660        2.13638294275516
H           -7.52625434119699        2.77170583322970       -0.85574828187981
H           -8.07143188217521        1.08498922371151       -0.72229847204518
H           -8.70210342001069        2.29986690081841        0.38464858610124
H           -7.89946845892444        2.52611497345384        2.31157462080970
H           -6.43596998852044        1.71525643432857        2.85791511721694
H           -6.32533948212698        3.31276912773534        2.08567350827246
H           -6.20567818803521        0.76320572927065       -1.65726392539210
H           -4.05999982900563       -0.03794372484851       -2.44162549894641
H            6.08988110981730       -2.30395569474879        1.56390919832551
H            5.15541430236696       -3.74758348196128        1.92706764755937
H            4.84374626429274       -2.85548618378520        0.43901025607827

          :  Hamiltonian                  GFN2-xTB          :
         :: gradient norm              0.000072802098 Eh/a0 ::
         :: HOMO-LUMO gap              1.995795818368 eV    ::
         :: SCC energy              -175.245996791326 Eh    ::
         :: -> dispersion             -0.185775839062 Eh    ::
         :: -> Gsolv                  -0.063023254381 Eh    ::
         :: repulsion energy           3.154241286045 Eh    ::

    * Orbital Energies and Occupations

         #    Occupation            Energy/Eh            Energy/eV
      -------------------------------------------------------------
         1        2.0000           -0.6478411             -17.6287
       ...           ...                  ...                  ...
       150        2.0000           -0.3793776             -10.3234
       151        2.0000           -0.3779583             -10.2848
       152        2.0000           -0.3761537             -10.2357
       153        2.0000           -0.3745279             -10.1914
       154        2.0000           -0.3712692             -10.1027
       155        2.0000           -0.3671553              -9.9908
       156        2.0000           -0.3664726              -9.9722
       157        2.0000           -0.3631011              -9.8805
       158        2.0000           -0.3619526              -9.8492
       159        2.0000           -0.3592213              -9.7749
       160        2.0000           -0.3344183              -9.1000
       161        2.0000           -0.3326596              -9.0521
       162        2.0000           -0.3303811              -8.9901 (HOMO)
       163                         -0.2570368              -6.9943 (LUMO)
       164                         -0.2130372              -5.7970
       165                         -0.2100833              -5.7167
       166                         -0.2085877              -5.6760
       167                         -0.2058758              -5.6022
       168                         -0.2048941              -5.5755
       169                         -0.2043946              -5.5619
       170                         -0.2026418              -5.5142
       171                         -0.2022388              -5.5032
       172                         -0.2017950              -5.4911
       173                         -0.2003786              -5.4526
       ...                                ...                  ...
       322                          1.4456400              39.3379
      -------------------------------------------------------------
                  HL-Gap            0.0733443 Eh            1.9958 eV

     #   Z          covCN         q      C6AA      α(0)
     1   6 C        3.758    -0.105    22.553     6.771
     2   6 C        2.966    -0.003    28.093     8.694
     3   6 C        2.929    -0.055    29.371     8.888
     4   6 C        2.964    -0.002    28.076     8.691
     5   6 C        3.757    -0.101    22.486     6.761
     6   6 C        2.981    -0.000    28.028     8.684
     7   6 C        3.810    -0.043    21.331     6.574
     8   6 C        1.969    -0.051    32.430     9.196
     9   6 C        1.979    -0.069    32.925     9.266
    10   6 C        2.969     0.016    27.656     8.626
    11   6 C        2.926    -0.032    28.808     8.802
    12   6 C        2.922    -0.064    29.603     8.922
    13   6 C        2.913     0.060    26.653     8.466
    14   7 N        2.733    -0.099    23.172     7.149
    15   6 C        3.696    -0.042    21.509     6.634
    16   6 C        3.696    -0.042    21.502     6.633
    17   6 C        2.922    -0.066    29.641     8.928
    18   6 C        2.925    -0.034    28.857     8.810
    19   6 C        2.884    -0.081    30.028     8.984
    20   5 B        2.703     0.264    17.531     7.024
    21   6 C        2.882    -0.084    30.088     8.993
    22   6 C        2.971    -0.002    28.064     8.690
    23   6 C        3.759    -0.113    22.721     6.796
    24   6 C        2.966    -0.002    28.076     8.691
    25   6 C        3.758    -0.105    22.557     6.771
    26   6 C        2.929    -0.054    29.329     8.881
    27   6 C        2.965    -0.001    28.055     8.688
    28   6 C        3.757    -0.103    22.522     6.766
    29   6 C        2.978    -0.000    28.026     8.684
    30   6 C        3.810    -0.052    21.502     6.600
    31   6 C        1.969    -0.059    32.648     9.227
    32   6 C        1.979    -0.069    32.927     9.267
    33   6 C        2.969     0.013    27.721     8.636
    34   6 C        2.927    -0.034    28.844     8.808
    35   6 C        2.923    -0.064    29.580     8.919
    36   6 C        2.914     0.063    26.596     8.457
    37   7 N        2.734    -0.096    23.126     7.142
    38   6 C        3.696    -0.041    21.476     6.629
    39   6 C        3.696    -0.045    21.551     6.641
    40   6 C        2.923    -0.065    29.610     8.924
    41   6 C        2.926    -0.034    28.855     8.809
    42   6 C        2.882    -0.080    29.985     8.977
    43   6 C        2.972    -0.001    28.038     8.685
    44   6 C        3.759    -0.111    22.677     6.789
    45   6 C        2.967    -0.002    28.068     8.690
    46   6 C        3.758    -0.101    22.480     6.760
    47   6 C        2.930    -0.051    29.261     8.871
    48   6 C        2.965    -0.001    28.046     8.687
    49   6 C        3.758    -0.102    22.492     6.762
    50   6 C        2.981     0.002    27.981     8.677
    51   6 C        3.810    -0.046    21.383     6.582
    52   6 C        1.970    -0.052    32.463     9.201
    53   6 C        1.980    -0.068    32.897     9.262
    54   6 C        2.969     0.016    27.647     8.625
    55   6 C        2.926    -0.033    28.817     8.803
    56   6 C        2.923    -0.064    29.581     8.919
    57   6 C        2.914     0.061    26.624     8.461
    58   7 N        2.733    -0.107    23.346     7.176
    59   6 C        3.698    -0.043    21.520     6.635
    60   6 C        3.698    -0.040    21.468     6.627
    61   6 C        2.923    -0.062    29.530     8.911
    62   6 C        2.927    -0.033    28.831     8.806
    63   6 C        2.970    -0.003    28.104     8.696
    64   6 C        3.758    -0.112    22.699     6.793
    65   1 H        0.925     0.043     2.414     2.430
    66   1 H        0.925     0.035     2.520     2.482
    67   1 H        0.925     0.042     2.420     2.433
    68   1 H        0.925     0.019     2.756     2.596
    69   1 H        0.924     0.037     2.492     2.469
    70   1 H        0.925     0.035     2.522     2.483
    71   1 H        0.925     0.042     2.424     2.435
    72   1 H        0.924     0.058     2.225     2.333
    73   1 H        0.924     0.048     2.341     2.393
    74   1 H        0.926     0.015     2.805     2.619
    75   1 H        0.926     0.022     2.704     2.571
    76   1 H        0.924     0.049     2.327     2.386
    77   1 H        0.924     0.038     2.482     2.464
    78   1 H        0.925     0.054     2.276     2.359
    79   1 H        0.924     0.038     2.479     2.462
    80   1 H        0.925     0.054     2.273     2.358
    81   1 H        0.924     0.048     2.349     2.397
    82   1 H        0.926     0.023     2.687     2.563
    83   1 H        0.925     0.014     2.829     2.630
    84   1 H        0.925     0.048     2.341     2.393
    85   1 H        0.924     0.040     2.450     2.448
    86   1 H        0.925     0.043     2.406     2.426
    87   1 H        0.924     0.042     2.423     2.434
    88   1 H        0.925     0.043     2.410     2.428
    89   1 H        0.925     0.035     2.511     2.478
    90   1 H        0.925     0.019     2.741     2.589
    91   1 H        0.925     0.044     2.398     2.421
    92   1 H        0.924     0.039     2.460     2.453
    93   1 H        0.925     0.034     2.530     2.487
    94   1 H        0.924     0.054     2.275     2.359
    95   1 H        0.925     0.063     2.160     2.298
    96   1 H        0.925     0.013     2.847     2.638
    97   1 H        0.926     0.021     2.713     2.576
    98   1 H        0.924     0.047     2.358     2.401
    99   1 H        0.925     0.053     2.277     2.360
   100   1 H        0.924     0.037     2.485     2.465
   101   1 H        0.925     0.054     2.276     2.359
   102   1 H        0.924     0.037     2.490     2.468
   103   1 H        0.924     0.056     2.247     2.344
   104   1 H        0.926     0.021     2.715     2.577
   105   1 H        0.925     0.014     2.823     2.628
   106   1 H        0.925     0.041     2.435     2.440
   107   1 H        0.924     0.037     2.491     2.468
   108   1 H        0.925     0.048     2.349     2.397
   109   1 H        0.925     0.033     2.547     2.496
   110   1 H        0.924     0.041     2.442     2.444
   111   1 H        0.925     0.041     2.438     2.442
   112   1 H        0.925     0.016     2.793     2.614
   113   1 H        0.925     0.042     2.416     2.431
   114   1 H        0.925     0.033     2.549     2.497
   115   1 H        0.924     0.037     2.487     2.466
   116   1 H        0.924     0.049     2.336     2.390
   117   1 H        0.925     0.057     2.233     2.337
   118   1 H        0.926     0.015     2.804     2.619
   119   1 H        0.926     0.022     2.709     2.574
   120   1 H        0.924     0.035     2.522     2.483
   121   1 H        0.925     0.054     2.269     2.356
   122   1 H        0.925     0.053     2.281     2.362
   123   1 H        0.925     0.053     2.288     2.366
   124   1 H        0.924     0.048     2.344     2.394
   125   1 H        0.924     0.033     2.544     2.495
   126   1 H        0.926     0.027     2.625     2.534
   127   1 H        0.925     0.014     2.822     2.627
   128   1 H        0.924     0.040     2.455     2.450
   129   1 H        0.924     0.042     2.424     2.435
   130   1 H        0.925     0.047     2.354     2.399

molecular dipole:
                 x           y           z       tot (Debye)
 q only:       -1.389       1.295      -0.157
   full:       -1.507       1.441      -0.121       5.309

 projected vibrational frequencies (cm⁻¹)
eigval :       -0.00    -0.00    -0.00    -0.00     0.00     0.00
eigval :       10.37    11.67    14.11    17.57    19.46    25.21
eigval :       29.75    31.27    31.81    35.85    37.14    38.46
eigval :       43.00    46.36    53.70    54.76    56.06    58.83
eigval :       59.76    61.48    64.30    68.09    70.49    76.25
eigval :       82.09    87.02    91.95   100.28   101.10   105.67
eigval :      109.43   112.45   118.86   121.85   126.70   136.23
eigval :      140.78   146.42   148.54   155.72   164.05   168.93
eigval :      170.38   173.48   178.98   181.09   181.58   182.98
eigval :      185.26   192.86   193.97   206.61   208.91   214.74
eigval :      220.79   221.44   234.30   247.51   250.76   255.44
eigval :      267.67   267.88   273.10   274.58   280.51   285.83
eigval :      287.98   290.20   292.76   304.34   309.13   314.54
eigval :      327.50   332.70   340.73   345.34   351.89   359.66
eigval :      363.84   371.68   377.08   377.41   381.62   381.93
eigval :      389.22   390.82   395.87   404.39   405.27   408.98
eigval :      422.98   423.48   424.03   440.10   442.57   445.23
eigval :      458.71   475.15   475.90   477.88   479.16   479.61
eigval :      482.59   489.98   494.52   499.16   501.16   503.90
eigval :      511.66   513.45   516.13   530.66   541.29   542.85
eigval :      579.01   581.89   583.17   613.17   613.47   613.76
eigval :      614.70   643.11   644.46   649.25   657.87   662.12
eigval :      663.12   663.93   670.30   680.80   694.46   713.73
eigval :      726.79   742.10   750.33   779.92   784.00   784.65
eigval :      787.36   787.87   788.02   837.55   840.66   841.72
eigval :      842.81   852.95   858.41   861.65   862.00   864.27
eigval :      867.14   894.44   894.55   898.48   910.27   911.03
eigval :      914.69   914.89   918.07   940.22   962.63   963.66
eigval :      964.00   979.68   983.99   997.71   998.89   999.52
eigval :     1010.40  1011.60  1011.90  1019.49  1020.20  1020.57
eigval :     1024.42  1027.75  1027.96  1029.15  1034.11  1035.01
eigval :     1035.46  1037.06  1037.27  1038.19  1038.97  1039.81
eigval :     1041.60  1052.78  1053.15  1056.12  1072.66  1078.77
eigval :     1088.01  1089.58  1095.22  1095.32  1096.95  1098.17
eigval :     1100.43  1104.41  1106.82  1140.01  1140.53  1148.19
eigval :     1155.15  1155.40  1157.78  1171.20  1171.91  1173.39
eigval :     1191.61  1199.39  1203.61  1212.70  1213.75  1215.21
eigval :     1240.57  1241.51  1242.41  1258.51  1260.72  1265.23
eigval :     1269.93  1272.67  1273.43  1286.66  1288.48  1290.79
eigval :     1295.34  1298.50  1299.61  1305.92  1307.90  1311.15
eigval :     1323.36  1326.62  1329.96  1330.40  1330.76  1334.84
eigval :     1361.24  1369.48  1372.19  1395.39  1397.80  1398.77
eigval :     1401.05  1402.40  1402.86  1404.58  1406.14  1406.24
eigval :     1406.52  1407.90  1408.46  1411.83  1414.32  1416.57
eigval :     1417.60  1418.11  1420.32  1431.78  1432.80  1433.98
eigval :     1435.11  1437.62  1443.96  1444.49  1445.65  1450.89
eigval :     1470.43  1471.35  1471.58  1471.98  1472.91  1479.07
eigval :     1479.40  1479.45  1480.15  1480.76  1481.26  1484.69
eigval :     1484.75  1485.02  1485.63  1488.87  1490.10  1492.74
eigval :     1493.46  1493.81  1494.37  1495.85  1496.14  1496.74
eigval :     1497.12  1499.68  1499.78  1508.68  1508.95  1509.94
eigval :     1511.12  1511.51  1514.91  1543.47  1545.23  1546.88
eigval :     1560.78  1563.28  1567.03  1583.09  1585.10  1588.42
eigval :     1605.55  1606.38  1608.27  2359.52  2360.87  2363.70
eigval :     2896.08  2901.35  2902.89  2904.50  2905.41  2906.29
eigval :     2922.41  2928.26  2933.48  2964.26  2965.42  2971.11
eigval :     2978.53  2979.61  2982.94  2983.25  2983.83  2983.91
eigval :     2987.27  2989.69  2989.94  2989.96  2991.95  2993.34
eigval :     2994.49  3001.39  3004.90  3007.88  3009.84  3010.55
eigval :     3011.76  3013.04  3014.34  3014.87  3016.88  3018.09
eigval :     3025.51  3029.31  3030.35  3031.10  3032.21  3032.50
eigval :     3034.37  3034.42  3035.48  3035.63  3037.06  3038.98
eigval :     3050.93  3051.50  3052.57  3056.99  3059.96  3063.84
eigval :     3064.11  3071.37  3073.70  3089.57  3102.80  3103.11
eigval :     3103.32  3106.87  3107.01  3110.82  3113.01  3115.63

   temp. (K)  partition function   enthalpy   heat capacity  entropy
                                   cal/mol     cal/K/mol   cal/K/mol   J/K/mol
 298.15  VIB  0.980E+34            41813.197    238.908    267.862
         ROT  0.156E+09              888.752      2.981     40.470
         INT  0.153E+43            42701.949    241.889    308.332
         TR   0.236E+29             1481.254      4.968     46.041
         TOT                       44183.2031   246.8570   354.3727  1482.6952

       T/K    H(0)-H(T)+PV         H(T)/Eh          T*S/Eh         G(T)/Eh
   ------------------------------------------------------------------------
    298.15    0.704104E-01    0.114477E+01    0.168374E+00    0.976395E+00
   ------------------------------------------------------------------------

         :::::::::::::::::::::::::::::::::::::::::::::::::::::
         ::                  THERMODYNAMIC                  ::
         :::::::::::::::::::::::::::::::::::::::::::::::::::::
         :: total free energy        -171.115360928162 Eh   ::
         ::.................................................::
         :: total energy             -172.091755502806 Eh   ::
         :: zero point energy           1.074358042054 Eh   ::
         :: G(RRHO) w/o ZPVE           -0.097963467410 Eh   ::
         :: G(RRHO) contrib.            0.976394574644 Eh   ::
         :::::::::::::::::::::::::::::::::::::::::::::::::::::

           -------------------------------------------------
          | TOTAL ENERGY             -172.091755502806 Eh   |
          | TOTAL ENTHALPY           -170.946987044754 Eh   |
          | TOTAL FREE ENERGY        -171.115360928162 Eh   |
          | GRADIENT NORM               0.000072836372 Eh/α |
          | HOMO-LUMO GAP               1.995798917626 eV   |
           -------------------------------------------------

 * finished run on 2025/08/29 at 17:06:15.622
