   * xtb version 6.7.1 (edcfbbe) compiled by 'albert@albert-system' on 2024-07-22

   ID    Z sym.   atoms
    1    6 C      1-13, 15-19, 21-36, 38-57, 59-64
    2    7 N      14, 37, 58
    3    5 B      20
    4    1 H      65-130

          program call               : xtb data2507/toluene/TMAB/TMAB_toluene_S0_finalOpt.xtbopt.xyz --gfn 2 --uhf 2 --gbsa toluene --ohess vtight --parallel 40 --molden --ceasefiles --namespace data2507/toluene/TMAB/TMAB_toluene_T1_preOpt
      * Solvation model:               GBSA
        Solvent                        toluene
        Solvent mass                       9.2140E+01 g/mol
          :  Hamiltonian                  GFN2-xTB          :
 * total energy  :  -171.9908302 Eh     change        0.1289317E-07 Eh
 * total energy  :  -171.9926106 Eh     change       -0.1780451E-02 Eh
 * total energy  :  -171.9932620 Eh     change       -0.6513419E-03 Eh
 * total energy  :  -171.9935103 Eh     change       -0.2483526E-03 Eh
 * total energy  :  -171.9938747 Eh     change       -0.3643843E-03 Eh
 * total energy  :  -171.9941469 Eh     change       -0.2721630E-03 Eh
 * total energy  :  -171.9943683 Eh     change       -0.2213974E-03 Eh
 * total energy  :  -171.9945436 Eh     change       -0.1753523E-03 Eh
 * total energy  :  -171.9947059 Eh     change       -0.1622716E-03 Eh
 * total energy  :  -171.9948797 Eh     change       -0.1738178E-03 Eh
 * total energy  :  -171.9957393 Eh     change       -0.3923959E-06 Eh
 * total energy  :  -171.9957396 Eh     change       -0.2837084E-06 Eh
 * total energy  :  -171.9957399 Eh     change       -0.2602795E-06 Eh
 * total energy  :  -171.9957402 Eh     change       -0.3022291E-06 Eh
 * total energy  :  -171.9957405 Eh     change       -0.3566408E-06 Eh
 * total energy  :  -171.9957408 Eh     change       -0.2409880E-06 Eh
 * total energy  :  -171.9957410 Eh     change       -0.2084899E-06 Eh
 * total energy  :  -171.9957410 Eh     change        0.1957403E-08 Eh
 * total energy  :  -171.9957410 Eh     change       -0.7579578E-07 Eh
   *** GEOMETRY OPTIMIZATION CONVERGED AFTER 80 ITERATIONS ***

 final structure:
================
130
 xtb: 6.7.1 (edcfbbe)
C            5.40029954404153       -2.48376004678860        4.33544812571911
C            4.25285799322484       -1.82128879586055        3.62799292619464
C            3.44098795246493       -0.93225118350678        4.33317666290362
C            2.34484600815994       -0.32447151226515        3.73543739376026
C            1.46002059922661        0.57671081542437        4.55092351820620
C            2.06881079611097       -0.60219331803544        2.40314858282259
C            0.77687035444695       -0.10183841669596        1.79417264444165
C            0.89239456492018        1.27145838249844        1.36017711560947
C            0.99835891300489        2.43094688508779        1.04340157168205
C            1.10136864184941        3.77390821617298        0.63533749196849
C            0.44254036598924        4.22132615857919       -0.51507356595005
C            0.54891083636749        5.52819184199677       -0.92733878274205
C            1.32154507447864        6.45942943141240       -0.20949524580742
N            1.43540979804298        7.75711989723974       -0.62133397987074
C            2.42796100536969        8.63754337337310       -0.05553482006525
C            0.57446316733593        8.29512889785124       -1.64562305456513
C            1.97075099128797        6.00345810172305        0.95271147102257
C            1.85967481056660        4.69576888056682        1.36297716376922
C            2.93690917809943       -1.40842634319672        1.62034334513040
B            2.75232941936179       -1.42641077934342        0.06038880928667
C            2.72884222370621       -2.78935677377138       -0.72425536718054
C            3.39769026100465       -2.91543072781986       -1.97103848304489
C            4.30599817114744       -1.82794956777648       -2.47056466696178
C            3.25332689610527       -4.06290501650564       -2.74308347748735
C            3.92134808967055       -4.19013494546102       -4.08409799446519
C            2.49098651514117       -5.12156491713270       -2.26617804150170
C            1.86799416720664       -5.05869300083516       -1.02422646457809
C            1.05048937638858       -6.22860411070262       -0.55216500370725
C            1.99682481795062       -3.90813766190898       -0.25627425992338
C            1.23846721990558       -3.83977403653651        1.05138872158753
C           -0.16054279585648       -3.57078920658202        0.81182734567102
C           -1.30933515556266       -3.30408647712778        0.55543019841523
C           -2.66183176290263       -3.01257083754421        0.29028176106156
C           -3.53079561607393       -2.62836386978414        1.31539760982517
C           -4.85039735429292       -2.34370325019729        1.05702455478414
C           -5.37445429073485       -2.43328816222124       -0.24495984993707
N           -6.68585503255659       -2.15284692268544       -0.50229369836586
C           -7.20150539402209       -2.22545792065011       -1.84645007615104
C           -7.60028768888243       -1.87229672682865        0.57722251988264
C           -4.49285734212750       -2.82519757509424       -1.26911927303133
C           -3.17274704343827       -3.10347799364255       -1.00748433088422
C            2.61144189378845       -0.07272712159784       -0.71289608455979
C            3.51119281618882        1.00255891684650       -0.46305231931595
C            4.60864409048575        0.84243323479009        0.54977625001513
C            3.41200489454698        2.19891276730434       -1.15971011734904
C            4.33111224536407        3.35706567554257       -0.88605310627041
C            2.45423108737587        2.33058347578692       -2.15750848877946
C            1.55979675951122        1.30390749134612       -2.44290457239326
C            0.54586915781143        1.50307287233624       -3.53424602078135
C            1.62883818111471        0.12442456085441       -1.71491437782646
C            0.57561792274462       -0.93324039494666       -1.97797820430311
C           -0.72168721291063       -0.48312231511429       -1.52116593082165
C           -1.78790578210746       -0.09648575363582       -1.11215943467975
C           -3.04099891693897        0.35285432279947       -0.64552078989016
C           -3.21785502900201        0.71469837591917        0.69068458378477
C           -4.44006019317053        1.14570080746524        1.15304139691351
C           -5.55282007890316        1.23796199635170        0.30113127091202
N           -6.79101226772335        1.61339779483906        0.77176254885064
C           -7.83824004875759        1.94685341401690       -0.16705298967744
C           -6.91984012007190        2.13944765866787        2.11117965611732
C           -5.35929518993209        0.89240223713893       -1.04608560743314
C           -4.13694472382288        0.45624222506958       -1.50400880996079
C            4.00153559508940       -2.06863327351534        2.28510751952989
C            4.91756724564449       -2.99973401383647        1.54398202275540
H            5.33493830141104       -3.56839563985432        4.25057857304509
H            5.40288537841196       -2.21843412191064        5.39067451399468
H            6.35304840785835       -2.17479132196350        3.90287985206462
H            3.65192011653717       -0.73807316936723        5.37658557995470
H            0.51607933752985        0.08070658052108        4.78553363962344
H            1.94620327320252        0.83575986684694        5.48952396898228
H            1.23359589314394        1.49296606692062        4.00753174964614
H            0.50762603276186       -0.71933662052360        0.93288601755771
H           -0.03048248933668       -0.17572136703017        2.53143698237675
H           -0.14682333707416        3.51786822232154       -1.08418240269968
H            0.04456254185508        5.82435727550759       -1.83313643222412
H            3.37249930703829        8.10987346830449        0.08465741631253
H            2.10619291995674        9.04529496157996        0.90961458986929
H            2.60393609755451        9.46583624600371       -0.73903944961590
H           -0.44976596182270        7.94657524642145       -1.50581457830888
H            0.57335457200827        9.38120900395514       -1.57843012687007
H            0.90888759956430        8.00935019998881       -2.64964751271030
H            2.55631019013957        6.68329041575877        1.55035849036572
H            2.36650461685485        4.36992460029209        2.26098481889721
H            4.60241999423263       -1.17077594370023       -1.65947275368693
H            3.80771084943384       -1.21764783872584       -3.22591657739988
H            5.20315670282471       -2.25138433781588       -2.92101416786431
H            5.00519328446099       -4.25465630413280       -3.97472958915411
H            3.69949071003974       -3.32868453712236       -4.71303573610818
H            3.57938312107264       -5.08914889419524       -4.59329949931383
H            2.38721329663748       -6.01587869477723       -2.86662264875594
H            0.03490675428594       -5.91782260747258       -0.30606164208718
H            1.49137640130484       -6.67776864149339        0.33952215792554
H            1.00145708282464       -6.99201462167014       -1.32615230340797
H            1.34087178018375       -4.77269244877165        1.61352673604924
H            1.64740445020664       -3.03235889297934        1.66507822983679
H           -3.15153439020034       -2.55055732046013        2.32481111108570
H           -5.47810130798380       -2.03937838549180        1.87776106529787
H           -6.61279421008951       -1.59696022751554       -2.51842337528572
H           -8.22956352214548       -1.87225677251715       -1.86155604512050
H           -7.18651239343090       -3.25226459331074       -2.22814302086941
H           -8.60790256857053       -1.76974165831249        0.18288905042957
H           -7.60357038986732       -2.68390840616020        1.31063938337768
H           -7.33039884466836       -0.94173074641707        1.08379964698055
H           -4.84163516176043       -2.91973991214700       -2.28411761701601
H           -2.51391586058990       -3.39913334671120       -1.81170768729167
H            5.47668327928665        1.44431814333600        0.29065701501487
H            4.26211854684280        1.15198309245489        1.53734766398474
H            4.91637498613426       -0.19656270259958        0.62160870657406
H            3.99327921962890        4.23871672847486       -1.42688246403011
H            5.35032517308931        3.13213134725430       -1.20529278625803
H            4.35094379468079        3.59218252485195        0.17661342518389
H            2.40175527539126        3.25167922089585       -2.72301009927172
H           -0.46562969225628        1.36976117787185       -3.15144757574804
H            0.63314012927394        2.50277828335290       -3.95537390873183
H            0.69541694102896        0.78017405335354       -4.33825427962147
H            0.52219340901583       -1.16650516103234       -3.04687649893081
H            0.82654274934770       -1.85171476243936       -1.44510919447295
H           -2.37467157923445        0.65976258198826        1.36371789568682
H           -4.52000367473297        1.41940289572937        2.19228505301660
H           -7.55715688451734        2.78264897714630       -0.81811809635555
H           -8.07625469542408        1.08358569744743       -0.78964169511016
H           -8.73644935771104        2.22329686064843        0.37984622273386
H           -7.96901904874951        2.33685364948835        2.31938968977010
H           -6.56600503998236        1.40929712074849        2.84093840291179
H           -6.35728571404533        3.07052997431143        2.24911924059158
H           -6.17007901739588        0.96762184755750       -1.75131395086225
H           -4.01450424451576        0.19437905990853       -2.54603435467190
H            5.95971940359198       -2.71136616616459        1.68604932582103
H            4.80497039219137       -4.02044871143421        1.91261893056881
H            4.69409051533137       -2.99870241042387        0.48180392713062

          :  Hamiltonian                  GFN2-xTB          :
         :: gradient norm              0.000094764218 Eh/a0 ::
         :: HOMO-LUMO gap              0.337474339612 eV    ::
         :: SCC energy              -175.136199318896 Eh    ::
         :: -> dispersion             -0.188732940644 Eh    ::
         :: -> Gsolv                  -0.067033933987 Eh    ::
         :: repulsion energy           3.140458156749 Eh    ::

    * Orbital Energies and Occupations

         #    Occupation            Energy/Eh            Energy/eV
      -------------------------------------------------------------
         1        2.0000           -0.6583989             -17.9159
       ...           ...                  ...                  ...
       151        2.0000           -0.3751982             -10.2097
       152        2.0000           -0.3720625             -10.1243
       153        2.0000           -0.3673657              -9.9965
       154        2.0000           -0.3574772              -9.7274
       155        2.0000           -0.3556492              -9.6777
       156        2.0000           -0.3531031              -9.6084
       157        2.0000           -0.3509312              -9.5493
       158        2.0000           -0.3459861              -9.4148
       159        1.9976           -0.3419723              -9.3055
       160        1.9679           -0.3394829              -9.2378
       161        1.7851           -0.3374763              -9.1832
       162        1.2494           -0.3351985              -9.1212
       163        0.9983           -0.2312009              -6.2913 (HOMO)
       164        0.0013           -0.2187986              -5.9538 (LUMO)
       165        0.0003           -0.2172703              -5.9122
       166        0.0001           -0.2166286              -5.8948
       167        0.0000           -0.2119630              -5.7678
       168        0.0000           -0.2106166              -5.7312
       169        0.0000           -0.2101182              -5.7176
       170                         -0.1927130              -5.2440
       171                         -0.1898903              -5.1672
       172                         -0.1873850              -5.0990
       173                         -0.1852648              -5.0413
       174                         -0.1830084              -4.9799
       ...                                ...                  ...
       322                          1.4343642              39.0310
      -------------------------------------------------------------
                  HL-Gap            0.0124023 Eh            0.3375 eV

     #   Z          covCN         q      C6AA      α(0)
     1   6 C        3.757    -0.100    22.452     6.756
     2   6 C        2.964    -0.011    28.298     8.725
     3   6 C        2.927    -0.068    29.690     8.936
     4   6 C        2.961    -0.009    28.247     8.718
     5   6 C        3.757    -0.099    22.434     6.753
     6   6 C        2.979    -0.012    28.297     8.726
     7   6 C        3.809    -0.042    21.323     6.573
     8   6 C        1.970    -0.033    31.953     9.129
     9   6 C        1.980    -0.064    32.784     9.247
    10   6 C        2.969     0.028    27.379     8.583
    11   6 C        2.925    -0.027    28.670     8.781
    12   6 C        2.920    -0.059    29.477     8.903
    13   6 C        2.911     0.062    26.606     8.458
    14   7 N        2.735    -0.064    22.472     7.041
    15   6 C        3.696    -0.052    21.686     6.662
    16   6 C        3.696    -0.052    21.682     6.661
    17   6 C        2.920    -0.060    29.498     8.906
    18   6 C        2.924    -0.029    28.732     8.790
    19   6 C        2.883    -0.075    29.874     8.961
    20   5 B        2.707     0.170    18.860     7.284
    21   6 C        2.881    -0.082    30.050     8.987
    22   6 C        2.968    -0.017    28.426     8.745
    23   6 C        3.758    -0.104    22.535     6.768
    24   6 C        2.964    -0.011    28.292     8.724
    25   6 C        3.757    -0.098    22.431     6.752
    26   6 C        2.927    -0.072    29.792     8.951
    27   6 C        2.963    -0.011    28.277     8.722
    28   6 C        3.757    -0.098    22.424     6.751
    29   6 C        2.979    -0.014    28.358     8.735
    30   6 C        3.810    -0.053    21.521     6.603
    31   6 C        1.972    -0.042    32.182     9.161
    32   6 C        1.980    -0.067    32.868     9.258
    33   6 C        2.969     0.024    27.474     8.598
    34   6 C        2.925    -0.031    28.782     8.798
    35   6 C        2.921    -0.060    29.482     8.904
    36   6 C        2.914     0.063    26.584     8.455
    37   7 N        2.735    -0.060    22.401     7.029
    38   6 C        3.696    -0.051    21.664     6.658
    39   6 C        3.696    -0.055    21.733     6.669
    40   6 C        2.921    -0.059    29.466     8.902
    41   6 C        2.925    -0.029    28.735     8.791
    42   6 C        2.881    -0.076    29.888     8.963
    43   6 C        2.969    -0.009    28.232     8.716
    44   6 C        3.758    -0.104    22.547     6.770
    45   6 C        2.962    -0.010    28.269     8.721
    46   6 C        3.758    -0.096    22.387     6.746
    47   6 C        2.929    -0.061    29.508     8.908
    48   6 C        2.963    -0.009    28.230     8.715
    49   6 C        3.757    -0.097    22.404     6.749
    50   6 C        2.979    -0.008    28.205     8.712
    51   6 C        3.810    -0.047    21.405     6.586
    52   6 C        1.971    -0.042    32.182     9.161
    53   6 C        1.980    -0.070    32.956     9.271
    54   6 C        2.969     0.022    27.516     8.604
    55   6 C        2.926    -0.031    28.764     8.795
    56   6 C        2.922    -0.061    29.515     8.909
    57   6 C        2.913     0.061    26.638     8.463
    58   7 N        2.733    -0.083    22.861     7.101
    59   6 C        3.697    -0.050    21.643     6.654
    60   6 C        3.697    -0.047    21.591     6.646
    61   6 C        2.922    -0.062    29.548     8.914
    62   6 C        2.925    -0.033    28.824     8.804
    63   6 C        2.967    -0.011    28.296     8.725
    64   6 C        3.758    -0.107    22.599     6.778
    65   1 H        0.925     0.036     2.509     2.477
    66   1 H        0.925     0.029     2.603     2.523
    67   1 H        0.924     0.033     2.543     2.494
    68   1 H        0.925     0.005     2.973     2.696
    69   1 H        0.924     0.032     2.556     2.500
    70   1 H        0.925     0.029     2.597     2.520
    71   1 H        0.925     0.036     2.503     2.474
    72   1 H        0.924     0.063     2.169     2.303
    73   1 H        0.924     0.046     2.366     2.405
    74   1 H        0.926     0.027     2.633     2.537
    75   1 H        0.926     0.031     2.569     2.506
    76   1 H        0.924     0.057     2.231     2.336
    77   1 H        0.924     0.051     2.311     2.377
    78   1 H        0.925     0.062     2.174     2.306
    79   1 H        0.924     0.058     2.224     2.332
    80   1 H        0.925     0.063     2.169     2.303
    81   1 H        0.924     0.049     2.328     2.386
    82   1 H        0.926     0.032     2.551     2.498
    83   1 H        0.925     0.022     2.704     2.572
    84   1 H        0.925     0.041     2.440     2.443
    85   1 H        0.924     0.027     2.624     2.533
    86   1 H        0.925     0.030     2.593     2.518
    87   1 H        0.924     0.031     2.578     2.511
    88   1 H        0.925     0.034     2.537     2.491
    89   1 H        0.925     0.028     2.619     2.531
    90   1 H        0.925     0.001     3.040     2.727
    91   1 H        0.924     0.036     2.498     2.471
    92   1 H        0.924     0.031     2.578     2.511
    93   1 H        0.925     0.027     2.633     2.537
    94   1 H        0.924     0.052     2.298     2.371
    95   1 H        0.924     0.079     1.991     2.207
    96   1 H        0.926     0.024     2.681     2.560
    97   1 H        0.926     0.033     2.544     2.494
    98   1 H        0.924     0.057     2.237     2.339
    99   1 H        0.925     0.062     2.173     2.305
   100   1 H        0.924     0.050     2.315     2.379
   101   1 H        0.925     0.064     2.157     2.297
   102   1 H        0.924     0.053     2.283     2.363
   103   1 H        0.924     0.061     2.192     2.315
   104   1 H        0.926     0.032     2.563     2.504
   105   1 H        0.926     0.022     2.699     2.569
   106   1 H        0.925     0.032     2.564     2.504
   107   1 H        0.924     0.031     2.576     2.510
   108   1 H        0.925     0.040     2.443     2.444
   109   1 H        0.925     0.027     2.624     2.533
   110   1 H        0.924     0.031     2.569     2.507
   111   1 H        0.925     0.034     2.536     2.490
   112   1 H        0.925     0.004     2.982     2.701
   113   1 H        0.925     0.037     2.488     2.467
   114   1 H        0.925     0.028     2.614     2.528
   115   1 H        0.924     0.030     2.593     2.518
   116   1 H        0.924     0.042     2.421     2.433
   117   1 H        0.924     0.065     2.141     2.288
   118   1 H        0.926     0.020     2.735     2.586
   119   1 H        0.926     0.028     2.613     2.528
   120   1 H        0.924     0.043     2.412     2.429
   121   1 H        0.924     0.059     2.213     2.326
   122   1 H        0.925     0.059     2.216     2.328
   123   1 H        0.925     0.058     2.219     2.330
   124   1 H        0.924     0.053     2.289     2.366
   125   1 H        0.924     0.041     2.434     2.440
   126   1 H        0.926     0.033     2.539     2.492
   127   1 H        0.925     0.019     2.746     2.591
   128   1 H        0.924     0.028     2.608     2.525
   129   1 H        0.924     0.031     2.571     2.507
   130   1 H        0.925     0.046     2.366     2.406

molecular dipole:
                 x           y           z       tot (Debye)
 q only:       -6.008       3.952      -0.053
   full:       -5.820       4.051      -0.110      18.024

 projected vibrational frequencies (cm⁻¹)
eigval :       -0.00    -0.00    -0.00     0.00     0.00     0.00
eigval :       10.63    11.34    13.59    15.97    16.43    26.91
eigval :       29.88    30.37    34.14    35.64    37.59    41.94
eigval :       46.48    49.21    50.67    55.36    57.71    58.10
eigval :       63.59    65.60    67.93    70.73    72.89    76.06
eigval :       78.18    82.98    89.88    91.69   100.32   102.56
eigval :      105.68   110.03   113.77   119.21   120.61   131.00
eigval :      143.61   145.55   149.25   157.28   163.56   164.04
eigval :      165.62   166.61   168.32   170.84   173.35   179.48
eigval :      179.86   189.98   192.48   194.75   196.18   203.21
eigval :      205.27   221.98   231.54   232.79   238.84   248.84
eigval :      266.51   271.20   273.00   276.74   277.22   279.04
eigval :      286.14   288.01   291.69   302.62   307.47   313.87
eigval :      320.95   324.59   339.86   348.08   349.34   356.19
eigval :      359.20   368.25   369.43   375.98   377.89   379.32
eigval :      385.82   387.70   391.63   393.64   395.91   403.58
eigval :      423.15   424.10   427.76   436.43   438.44   443.59
eigval :      449.82   469.70   474.02   474.52   476.84   477.90
eigval :      479.08   488.12   490.16   496.49   500.75   504.58
eigval :      505.43   508.35   513.88   521.61   528.46   533.45
eigval :      564.01   566.65   571.10   591.66   610.07   610.48
eigval :      612.19   629.36   631.91   642.05   649.85   661.26
eigval :      664.61   666.28   666.73   668.55   683.11   697.95
eigval :      714.98   731.87   736.99   782.77   783.15   785.77
eigval :      786.43   787.60   793.19   802.44   811.56   812.58
eigval :      830.43   834.21   836.99   838.50   852.99   857.81
eigval :      861.13   894.01   896.31   897.40   902.45   910.13
eigval :      911.44   912.17   915.66   931.94   958.37   962.26
eigval :      963.35   964.00   973.53   994.20   994.85   997.06
eigval :     1003.81  1007.25  1008.75  1013.28  1015.91  1016.46
eigval :     1021.60  1022.63  1022.79  1026.69  1027.91  1030.80
eigval :     1031.52  1032.48  1032.99  1034.12  1036.05  1038.22
eigval :     1041.17  1046.51  1047.28  1047.49  1051.68  1064.08
eigval :     1082.06  1082.98  1083.78  1086.14  1087.85  1089.91
eigval :     1094.69  1097.08  1102.77  1116.55  1122.93  1137.23
eigval :     1149.50  1153.46  1154.33  1166.53  1168.40  1168.95
eigval :     1170.48  1177.29  1186.15  1201.53  1205.48  1208.98
eigval :     1222.63  1237.09  1239.03  1246.71  1246.90  1254.86
eigval :     1256.39  1264.08  1264.96  1270.25  1272.44  1282.21
eigval :     1284.65  1287.87  1297.85  1298.69  1302.41  1307.74
eigval :     1308.27  1312.50  1313.94  1329.75  1330.86  1334.23
eigval :     1362.21  1374.62  1375.63  1377.80  1380.69  1384.14
eigval :     1395.27  1396.36  1399.41  1399.67  1400.83  1401.28
eigval :     1401.64  1403.26  1404.03  1406.08  1406.22  1407.01
eigval :     1407.12  1408.71  1415.69  1418.10  1419.55  1422.36
eigval :     1423.70  1425.67  1427.41  1430.03  1432.14  1434.04
eigval :     1464.49  1468.60  1473.07  1473.50  1474.49  1475.64
eigval :     1476.81  1477.34  1479.24  1479.80  1482.05  1484.61
eigval :     1487.38  1487.86  1488.44  1488.65  1488.94  1492.39
eigval :     1493.23  1493.97  1494.32  1495.46  1495.64  1496.59
eigval :     1496.97  1498.95  1500.02  1501.58  1502.17  1503.11
eigval :     1505.83  1506.09  1506.85  1509.94  1516.95  1519.64
eigval :     1525.11  1527.76  1530.74  1534.05  1535.40  1550.82
eigval :     1571.62  1577.50  1590.93  2305.17  2311.10  2326.57
eigval :     2909.36  2911.43  2917.17  2917.41  2917.61  2919.19
eigval :     2924.64  2928.54  2942.50  2945.27  2957.03  2964.70
eigval :     2970.51  2972.53  2972.76  2973.63  2974.08  2974.25
eigval :     2975.33  2975.93  2977.22  2979.60  2983.04  2985.05
eigval :     2990.99  2992.05  2992.07  2992.20  3000.66  3001.00
eigval :     3001.29  3006.67  3007.22  3014.53  3015.29  3023.22
eigval :     3023.72  3024.75  3024.95  3025.74  3026.23  3026.89
eigval :     3027.09  3031.61  3032.81  3037.45  3039.37  3042.62
eigval :     3044.37  3044.96  3045.79  3050.18  3061.93  3065.13
eigval :     3065.43  3067.07  3069.17  3073.63  3081.17  3087.74
eigval :     3103.23  3105.43  3108.55  3111.44  3113.31  3115.54

   temp. (K)  partition function   enthalpy   heat capacity  entropy
                                   cal/mol     cal/K/mol   cal/K/mol   J/K/mol
 298.15  VIB  0.215E+35            42213.877    241.160    271.141
         ROT  0.152E+09              888.752      2.981     40.419
         INT  0.326E+43            43102.629    244.141    311.560
         TR   0.236E+29             1481.254      4.968     46.041
         TOT                       44583.8831   249.1091   357.6009  1496.2024

       T/K    H(0)-H(T)+PV         H(T)/Eh          T*S/Eh         G(T)/Eh
   ------------------------------------------------------------------------
    298.15    0.710489E-01    0.113973E+01    0.169908E+00    0.969825E+00
   ------------------------------------------------------------------------

         :::::::::::::::::::::::::::::::::::::::::::::::::::::
         ::                  THERMODYNAMIC                  ::
         :::::::::::::::::::::::::::::::::::::::::::::::::::::
         :: total free energy        -171.025916482823 Eh   ::
         ::.................................................::
         :: total energy             -171.995741161746 Eh   ::
         :: zero point energy           1.068683488794 Eh   ::
         :: G(RRHO) w/o ZPVE           -0.098858809871 Eh   ::
         :: G(RRHO) contrib.            0.969824678923 Eh   ::
         :::::::::::::::::::::::::::::::::::::::::::::::::::::

           -------------------------------------------------
          | TOTAL ENERGY             -171.995741161746 Eh   |
          | TOTAL ENTHALPY           -170.856008732851 Eh   |
          | TOTAL FREE ENERGY        -171.025916482823 Eh   |
          | GRADIENT NORM               0.000095350823 Eh/α |
          | HOMO-LUMO GAP               0.337482933022 eV   |
           -------------------------------------------------

 * finished run on 2025/08/29 at 17:06:45.743
