   * xtb version 6.7.1 (edcfbbe) compiled by 'albert@albert-system' on 2024-07-22

   ID    Z sym.   atoms
    1    6 C      1-13, 15-19, 21-36, 38-57, 59-64
    2    7 N      14, 37, 58
    3    5 B      20
    4    1 H      65-130

          program call               : xtb data2507/toluene/TMAB/TMAB_toluene_T1_crest.xyz --gfn 2 --uhf 2 --gbsa toluene --ohess vtight --parallel 40 --molden --ceasefiles --namespace data2507/toluene/TMAB/TMAB_toluene_T1_finalOpt
      * Solvation model:               GBSA
        Solvent                        toluene
        Solvent mass                       9.2140E+01 g/mol
          :  Hamiltonian                  GFN2-xTB          :
 * total energy  :  -171.9944871 Eh     change       -0.1151733E-07 Eh
 * total energy  :  -171.9947549 Eh     change       -0.2677336E-03 Eh
 * total energy  :  -171.9948955 Eh     change       -0.1406786E-03 Eh
 * total energy  :  -171.9949481 Eh     change       -0.5251416E-04 Eh
 * total energy  :  -171.9950167 Eh     change       -0.6861490E-04 Eh
 * total energy  :  -171.9950543 Eh     change       -0.3758734E-04 Eh
 * total energy  :  -171.9950837 Eh     change       -0.2946008E-04 Eh
 * total energy  :  -171.9951113 Eh     change       -0.2753390E-04 Eh
 * total energy  :  -171.9951257 Eh     change       -0.1447111E-04 Eh
 * total energy  :  -171.9951502 Eh     change       -0.2451717E-04 Eh
 * total energy  :  -171.9956743 Eh     change       -0.8039330E-06 Eh
 * total energy  :  -171.9956751 Eh     change       -0.7099074E-06 Eh
 * total energy  :  -171.9956756 Eh     change       -0.5117073E-06 Eh
 * total energy  :  -171.9956759 Eh     change       -0.3476295E-06 Eh
 * total energy  :  -171.9956759 Eh     change        0.1270266E-07 Eh
 * total energy  :  -171.9956764 Eh     change       -0.4546908E-06 Eh
 * total energy  :  -171.9956766 Eh     change       -0.2319210E-06 Eh
 * total energy  :  -171.9956766 Eh     change        0.4039975E-08 Eh
 * total energy  :  -171.9956766 Eh     change       -0.3215882E-07 Eh
   *** GEOMETRY OPTIMIZATION CONVERGED AFTER 126 ITERATIONS ***

 final structure:
================
130
 xtb: 6.7.1 (edcfbbe)
C            6.03329997074723       -0.98850500681972        4.15615633519146
C            4.71783009408044       -0.68021301421698        3.50024353237515
C            3.67928202714603       -0.15646786950715        4.27047147621855
C            2.43222841610748        0.10602684769256        3.71967274236581
C            1.32243506706740        0.61097078422395        4.59925251026749
C            2.23070831523409       -0.14732202886643        2.36903469541499
C            0.83189788976381       -0.06265857390286        1.79779844863401
C            0.47516829832832        1.29095200432336        1.44170124791332
C            0.17217705417594        2.43128742633247        1.18867597258200
C           -0.20832424941401        3.74076584475190        0.84291372866276
C           -1.01355667097457        3.97044057335431       -0.27857610466033
C           -1.38565484040266        5.24513079362345       -0.63185437861968
C           -0.96885998689933        6.36126846198357        0.11684397860245
N           -1.33087995016551        7.62943726408238       -0.23945342175363
C           -1.12504556603515        8.74513962113241        0.65089739447622
C           -1.90833913284970        7.90527956009365       -1.53206408656078
C           -0.16749478414075        6.11997785305773        1.24818209908223
C            0.19751706026267        4.84228559378478        1.60180528907522
C            3.29551895073072       -0.56207659602104        1.52827863093964
B            3.09031380034333       -0.51022853050695       -0.02951652178250
C            3.48094129737117       -1.74035456378973       -0.92814426878996
C            4.12683981584856       -1.54096473241303       -2.17763063275070
C            4.64256862492604       -0.18555967207903       -2.56968791824289
C            4.32604179859830       -2.60243382511793       -3.05347427099928
C            4.96929946931757       -2.39494077261532       -4.39645433253267
C            3.94005380628882       -3.88351374218686       -2.68057446065442
C            3.35952330309752       -4.12866553491220       -1.44044768404232
C            2.95602613708915       -5.53218474417199       -1.08314553860007
C            3.14739059753137       -3.06900862015518       -0.56744637336348
C            2.44397124729834       -3.35805863883257        0.74103802381702
C            1.02138312125040       -3.49969184644846        0.52881112315388
C           -0.16171471781312       -3.56442316211640        0.30007026332190
C           -1.54813929728676       -3.65926338177089        0.06635512849597
C           -2.46190253444470       -3.59983218980747        1.12206262782906
C           -3.81472471169054       -3.68766661383028        0.89498872661662
C           -4.32718546639039       -3.84645073401366       -0.40487781925266
N           -5.67113113488117       -3.93564952491589       -0.63073567995688
C           -6.18276231745401       -4.06811523437737       -1.97182271508496
C           -6.59639015498666       -4.00702044329412        0.47348341898194
C           -3.39901727058081       -3.91077774552936       -1.46021731090107
C           -2.04738321424748       -3.81622837576505       -1.22944995146102
C            2.51151721535890        0.78795396682302       -0.68280321467582
C            3.02352759820077        2.07180036643530       -0.33517420951363
C            4.12321780223621        2.19047487943728        0.68086666325126
C            2.54225403207928        3.22513600790241       -0.93823016514106
C            3.04623116733247        4.59066206723971       -0.56025308323689
C            1.58500001138554        3.12362540905687       -1.94086657104471
C            1.06034074881987        1.89163986756967       -2.31873614043158
C            0.02872753387494        1.84291819154864       -3.41071982052358
C            1.50376196562551        0.74264600474799       -1.67987843822126
C            0.82532793926858       -0.56696102239322       -2.02788587883940
C           -0.53850436233823       -0.56290965488408       -1.54375433611354
C           -1.66116477382529       -0.53289154509615       -1.10540506573377
C           -2.97872133072376       -0.49869896281596       -0.60283462989232
C           -3.21675366922408       -0.27990463659330        0.75481501813461
C           -4.49857059089507       -0.24731039170327        1.25376224302560
C           -5.61273639381997       -0.43140673033852        0.41876451464086
N           -6.89398987103839       -0.45695484481004        0.92273322851671
C           -8.01693377905798       -0.38170683073737        0.01578887881315
C           -7.13212481583176       -0.06507711981340        2.29282950969891
C           -5.36357209106659       -0.62935963538242       -0.94882247759675
C           -4.07984016524169       -0.66741939085079       -1.44376383072315
C            4.53023651170813       -0.89102439901096        2.14029235225869
C            5.68110463353403       -1.41422185888348        1.32956939570363
H            6.31771497314555       -2.02703731644754        3.98695888948357
H            5.97521458696995       -0.81605702615056        5.22891676624733
H            6.82616624145818       -0.35830948589777        3.75058921083233
H            3.84042619897388        0.01799307261207        5.32621615821277
H            0.59951620260844       -0.18181526327193        4.80179160227747
H            1.72144175745948        0.95359331280923        5.55208265969224
H            0.79468209977289        1.43569171031020        4.12226052661019
H            0.75901236170427       -0.68694780067580        0.90279301178132
H            0.11157965721211       -0.43784215153710        2.53330344477791
H           -1.34207947486460        3.12506729264775       -0.86455176639633
H           -2.02055022139688        5.37565687389476       -1.49346199433383
H           -0.08573426115052        9.09304605616426        0.63382123285239
H           -1.38567400932235        8.47054245282316        1.67398803079140
H           -1.76971027040585        9.56799524578376        0.34866356010145
H           -1.79104380546534        8.96283318069859       -1.75963757194154
H           -1.39803968578351        7.33419845692879       -2.30934767057505
H           -2.97606816267574        7.65987639595168       -1.56022498835911
H            0.19386262964377        6.94260931850104        1.84388123527410
H            0.82114309763026        4.68327844962059        2.47079476242157
H            3.96651948337728        0.30146350198475       -3.27471706392676
H            5.61929015705848       -0.26799193828789       -3.04557832904358
H            4.73309616319446        0.45848177481027       -1.70091908877412
H            6.02301755598782       -2.13317675862229       -4.28664282942552
H            4.47981775441903       -1.58914806202333       -4.94232818103090
H            4.90752520018685       -3.30475036189622       -4.99058856844604
H            4.10229881781981       -4.70801637725172       -3.36244836605749
H            1.90315088573073       -5.57402282092820       -0.80352250640838
H            3.54400966400105       -5.90463306754925       -0.24234239254723
H            3.11659048881612       -6.19822486937743       -1.92867187859416
H            2.83715226341533       -4.26815835655821        1.20332656236343
H            2.61123258978009       -2.53010171600452        1.43479663292756
H           -2.09282561938805       -3.47703008113553        2.13071316948083
H           -4.48056709826478       -3.62154735742381        1.73912153032630
H           -5.80547582476533       -3.26405937615555       -2.60729686529109
H           -7.26813607381239       -4.00826154427710       -1.95451326288122
H           -5.89908897826122       -5.02758770666730       -2.41849762106320
H           -6.33566071908439       -4.82414548767164        1.15228984489051
H           -6.60353496689400       -3.07017934198200        1.03731934608969
H           -7.59920404080988       -4.18921915884192        0.09597199020336
H           -3.73420201105527       -4.04246540947228       -2.47568493524354
H           -1.35380971652103       -3.86471795677125       -2.05702559958784
H            4.74566995320359        3.06161923370356        0.49021387927186
H            3.70482736595816        2.28391944692270        1.68461722974738
H            4.75286465979376        1.30579959783389        0.66985708196061
H            2.44300989549891        5.35884245768807       -1.03974373208997
H            4.08230685002355        4.72674857049147       -0.87527016842001
H            2.99568929709637        4.73723295120978        0.51715657587491
H            1.23800264684799        4.02155205498823       -2.43517903021607
H           -0.88850783817065        1.37361761308421       -3.05610144040436
H           -0.20288276083672        2.84755489970674       -3.75908059062112
H            0.39261190497123        1.26247321902358       -4.26034946118122
H            0.82750237823582       -0.73021202308756       -3.11085829814971
H            1.35351366455619       -1.39916155606076       -1.56067627726174
H           -2.37546382630751       -0.12507961428137        1.41446759028840
H           -4.62626124951992       -0.06807094095036        2.30869139530136
H           -8.00455278834642        0.53817141231552       -0.58028588684385
H           -8.01396798233131       -1.23694865570052       -0.66088640558346
H           -8.94195874405037       -0.40949137120778        0.58665921234267
H           -8.18814026183074       -0.18794233029516        2.52255503006575
H           -6.56581705545047       -0.70299939503834        2.97339592493778
H           -6.85454823787192        0.97891134428095        2.48124667537029
H           -6.18004701209573       -0.75093245496874       -1.64083714734193
H           -3.91468316863744       -0.82242421520993       -2.50116603489481
H            6.57284570633109       -0.80581447268314        1.48571780403521
H            5.92372020415478       -2.43600446614755        1.62522217324757
H            5.43879780101501       -1.41760441847582        0.27146828088323

          :  Hamiltonian                  GFN2-xTB          :
         :: gradient norm              0.000126021245 Eh/a0 ::
         :: HOMO-LUMO gap              0.332437880119 eV    ::
         :: SCC energy              -175.136360745582 Eh    ::
         :: -> dispersion             -0.189589281330 Eh    ::
         :: -> Gsolv                  -0.066610616448 Eh    ::
         :: repulsion energy           3.140683967255 Eh    ::

    * Orbital Energies and Occupations

         #    Occupation            Energy/Eh            Energy/eV
      -------------------------------------------------------------
         1        2.0000           -0.6586889             -17.9238
       ...           ...                  ...                  ...
       151        2.0000           -0.3749846             -10.2038
       152        2.0000           -0.3719067             -10.1201
       153        2.0000           -0.3674723              -9.9994
       154        2.0000           -0.3574928              -9.7279
       155        2.0000           -0.3555127              -9.6740
       156        2.0000           -0.3530754              -9.6077
       157        2.0000           -0.3509454              -9.5497
       158        2.0000           -0.3460221              -9.4157
       159        1.9982           -0.3419771              -9.3057
       160        1.9788           -0.3396155              -9.2414
       161        1.7666           -0.3371067              -9.1731
       162        1.2565           -0.3349657              -9.1149
       163        0.9982           -0.2311352              -6.2895 (HOMO)
       164        0.0015           -0.2189199              -5.9571 (LUMO)
       165        0.0002           -0.2171583              -5.9092
       166        0.0001           -0.2164236              -5.8892
       167        0.0000           -0.2119757              -5.7682
       168        0.0000           -0.2105233              -5.7286
       169        0.0000           -0.2099466              -5.7129
       170                         -0.1925966              -5.2408
       171                         -0.1900456              -5.1714
       172                         -0.1874552              -5.1009
       173                         -0.1852532              -5.0410
       174                         -0.1829891              -4.9794
       ...                                ...                  ...
       322                          1.4347301              39.0410
      -------------------------------------------------------------
                  HL-Gap            0.0122153 Eh            0.3324 eV

     #   Z          covCN         q      C6AA      α(0)
     1   6 C        3.757    -0.099    22.451     6.755
     2   6 C        2.964    -0.011    28.299     8.726
     3   6 C        2.927    -0.068    29.693     8.936
     4   6 C        2.961    -0.009    28.249     8.718
     5   6 C        3.757    -0.098    22.432     6.753
     6   6 C        2.979    -0.012    28.298     8.726
     7   6 C        3.809    -0.042    21.322     6.573
     8   6 C        1.969    -0.032    31.932     9.126
     9   6 C        1.980    -0.063    32.765     9.244
    10   6 C        2.969     0.028    27.370     8.581
    11   6 C        2.925    -0.026    28.659     8.779
    12   6 C        2.921    -0.059    29.472     8.903
    13   6 C        2.911     0.062    26.604     8.458
    14   7 N        2.735    -0.063    22.458     7.038
    15   6 C        3.696    -0.052    21.692     6.662
    16   6 C        3.696    -0.052    21.677     6.660
    17   6 C        2.920    -0.060    29.494     8.906
    18   6 C        2.924    -0.029    28.723     8.789
    19   6 C        2.883    -0.075    29.864     8.959
    20   5 B        2.707     0.170    18.859     7.283
    21   6 C        2.881    -0.082    30.052     8.987
    22   6 C        2.968    -0.017    28.424     8.745
    23   6 C        3.758    -0.104    22.532     6.768
    24   6 C        2.964    -0.011    28.292     8.725
    25   6 C        3.757    -0.098    22.430     6.752
    26   6 C        2.927    -0.072    29.788     8.951
    27   6 C        2.963    -0.011    28.281     8.723
    28   6 C        3.757    -0.098    22.421     6.751
    29   6 C        2.979    -0.014    28.357     8.735
    30   6 C        3.810    -0.053    21.518     6.603
    31   6 C        1.972    -0.042    32.198     9.164
    32   6 C        1.980    -0.067    32.879     9.260
    33   6 C        2.969     0.024    27.476     8.598
    34   6 C        2.925    -0.031    28.782     8.798
    35   6 C        2.921    -0.060    29.479     8.904
    36   6 C        2.914     0.063    26.582     8.454
    37   7 N        2.735    -0.061    22.413     7.031
    38   6 C        3.696    -0.051    21.661     6.658
    39   6 C        3.696    -0.054    21.728     6.668
    40   6 C        2.921    -0.059    29.468     8.902
    41   6 C        2.925    -0.030    28.739     8.791
    42   6 C        2.881    -0.076    29.889     8.963
    43   6 C        2.969    -0.009    28.233     8.716
    44   6 C        3.758    -0.105    22.550     6.770
    45   6 C        2.962    -0.010    28.274     8.722
    46   6 C        3.758    -0.096    22.391     6.746
    47   6 C        2.929    -0.060    29.503     8.908
    48   6 C        2.962    -0.008    28.228     8.715
    49   6 C        3.757    -0.097    22.400     6.748
    50   6 C        2.980    -0.007    28.200     8.711
    51   6 C        3.810    -0.047    21.401     6.585
    52   6 C        1.972    -0.042    32.175     9.160
    53   6 C        1.980    -0.070    32.956     9.271
    54   6 C        2.969     0.022    27.515     8.604
    55   6 C        2.926    -0.031    28.762     8.795
    56   6 C        2.922    -0.061    29.513     8.909
    57   6 C        2.913     0.061    26.638     8.463
    58   7 N        2.733    -0.084    22.872     7.103
    59   6 C        3.697    -0.050    21.639     6.654
    60   6 C        3.697    -0.047    21.589     6.646
    61   6 C        2.922    -0.062    29.548     8.914
    62   6 C        2.925    -0.033    28.822     8.804
    63   6 C        2.967    -0.011    28.298     8.726
    64   6 C        3.758    -0.107    22.596     6.777
    65   1 H        0.925     0.035     2.511     2.478
    66   1 H        0.925     0.029     2.603     2.523
    67   1 H        0.924     0.033     2.542     2.493
    68   1 H        0.925     0.005     2.973     2.696
    69   1 H        0.924     0.032     2.556     2.500
    70   1 H        0.925     0.029     2.595     2.519
    71   1 H        0.925     0.036     2.505     2.475
    72   1 H        0.924     0.063     2.166     2.302
    73   1 H        0.924     0.047     2.361     2.403
    74   1 H        0.926     0.027     2.631     2.536
    75   1 H        0.926     0.032     2.562     2.503
    76   1 H        0.924     0.050     2.317     2.380
    77   1 H        0.924     0.058     2.220     2.330
    78   1 H        0.925     0.063     2.167     2.302
    79   1 H        0.925     0.062     2.171     2.304
    80   1 H        0.924     0.056     2.247     2.344
    81   1 H        0.924     0.051     2.306     2.375
    82   1 H        0.926     0.033     2.546     2.495
    83   1 H        0.925     0.022     2.697     2.568
    84   1 H        0.924     0.027     2.624     2.533
    85   1 H        0.925     0.030     2.591     2.517
    86   1 H        0.925     0.040     2.442     2.444
    87   1 H        0.924     0.031     2.577     2.511
    88   1 H        0.925     0.033     2.538     2.491
    89   1 H        0.925     0.028     2.619     2.531
    90   1 H        0.925     0.001     3.041     2.727
    91   1 H        0.925     0.036     2.499     2.472
    92   1 H        0.924     0.031     2.579     2.511
    93   1 H        0.925     0.027     2.634     2.538
    94   1 H        0.924     0.052     2.300     2.372
    95   1 H        0.924     0.077     2.008     2.216
    96   1 H        0.926     0.023     2.684     2.562
    97   1 H        0.926     0.033     2.548     2.496
    98   1 H        0.924     0.057     2.234     2.337
    99   1 H        0.925     0.062     2.176     2.307
   100   1 H        0.924     0.050     2.320     2.382
   101   1 H        0.924     0.053     2.285     2.364
   102   1 H        0.924     0.060     2.196     2.318
   103   1 H        0.925     0.063     2.159     2.298
   104   1 H        0.926     0.031     2.566     2.505
   105   1 H        0.926     0.022     2.701     2.570
   106   1 H        0.925     0.032     2.564     2.504
   107   1 H        0.924     0.031     2.574     2.509
   108   1 H        0.925     0.040     2.444     2.445
   109   1 H        0.925     0.027     2.623     2.533
   110   1 H        0.924     0.031     2.569     2.507
   111   1 H        0.925     0.034     2.530     2.487
   112   1 H        0.925     0.003     2.999     2.708
   113   1 H        0.925     0.037     2.490     2.467
   114   1 H        0.925     0.028     2.614     2.529
   115   1 H        0.924     0.029     2.594     2.519
   116   1 H        0.924     0.042     2.423     2.434
   117   1 H        0.924     0.065     2.146     2.291
   118   1 H        0.926     0.020     2.733     2.585
   119   1 H        0.926     0.028     2.614     2.528
   120   1 H        0.924     0.043     2.414     2.430
   121   1 H        0.924     0.059     2.215     2.327
   122   1 H        0.925     0.058     2.218     2.329
   123   1 H        0.925     0.058     2.221     2.330
   124   1 H        0.924     0.052     2.290     2.366
   125   1 H        0.924     0.041     2.436     2.441
   126   1 H        0.926     0.034     2.536     2.490
   127   1 H        0.925     0.019     2.749     2.593
   128   1 H        0.924     0.028     2.611     2.527
   129   1 H        0.924     0.031     2.572     2.508
   130   1 H        0.925     0.046     2.366     2.405

molecular dipole:
                 x           y           z       tot (Debye)
 q only:       -7.031       1.998       0.190
   full:       -6.876       2.150       0.133      18.315

 projected vibrational frequencies (cm⁻¹)
eigval :       -0.00    -0.00    -0.00     0.00     0.00     0.00
eigval :       -7.02     7.94    12.75    14.94    17.47    18.19
eigval :       26.31    31.29    32.80    33.90    35.90    38.46
eigval :       43.26    45.96    48.53    53.59    55.36    58.39
eigval :       60.99    64.96    66.65    69.11    71.81    74.66
eigval :       81.10    85.50    91.25    96.10   103.13   103.44
eigval :      107.60   109.13   123.06   128.05   130.50   138.36
eigval :      140.36   145.67   152.44   158.14   160.50   164.36
eigval :      167.61   168.13   169.56   172.03   177.44   181.74
eigval :      190.62   193.39   194.46   196.30   202.05   204.18
eigval :      208.69   222.23   229.76   238.62   245.54   246.45
eigval :      255.78   268.03   272.94   273.12   276.97   277.80
eigval :      288.03   291.48   295.38   303.11   307.85   314.58
eigval :      321.83   325.90   340.05   347.16   348.99   357.33
eigval :      361.88   369.02   371.18   378.13   378.49   380.32
eigval :      385.98   388.60   392.26   392.71   397.82   403.79
eigval :      422.71   424.52   427.73   436.12   438.36   443.78
eigval :      450.07   468.93   474.25   474.55   476.81   478.24
eigval :      479.59   487.90   490.02   496.72   500.84   505.19
eigval :      505.57   508.20   514.37   521.84   528.92   533.84
eigval :      564.44   566.74   571.70   592.31   609.87   610.58
eigval :      612.26   628.78   632.23   642.01   650.02   661.86
eigval :      664.45   666.10   666.14   668.76   683.35   698.14
eigval :      714.60   731.76   736.85   783.05   783.27   785.82
eigval :      786.61   788.02   795.31   803.21   811.58   812.72
eigval :      829.93   835.56   837.77   840.36   853.44   856.98
eigval :      861.35   895.74   896.42   897.58   906.48   909.89
eigval :      910.97   911.98   919.09   932.66   959.07   962.45
eigval :      963.24   964.03   974.60   994.13   994.66   996.69
eigval :     1004.98  1008.03  1009.87  1014.51  1015.95  1017.89
eigval :     1022.36  1023.31  1024.63  1026.87  1028.63  1031.40
eigval :     1032.80  1033.27  1033.70  1035.45  1037.55  1039.54
eigval :     1040.91  1045.12  1046.78  1047.51  1052.22  1065.75
eigval :     1081.45  1082.38  1083.22  1087.04  1087.70  1091.39
eigval :     1095.96  1096.51  1102.06  1118.64  1123.34  1137.80
eigval :     1150.36  1154.16  1154.96  1165.11  1168.78  1170.35
eigval :     1171.81  1178.35  1186.81  1202.86  1206.27  1209.82
eigval :     1223.70  1237.48  1239.56  1245.52  1246.96  1254.10
eigval :     1256.37  1264.11  1265.27  1271.32  1273.21  1282.47
eigval :     1285.11  1288.18  1298.29  1298.94  1302.45  1307.86
eigval :     1308.86  1311.46  1314.84  1330.06  1330.98  1334.03
eigval :     1361.69  1374.39  1376.20  1377.48  1380.57  1384.29
eigval :     1395.40  1396.43  1397.98  1400.04  1401.01  1401.08
eigval :     1402.73  1403.70  1405.30  1405.79  1406.25  1406.56
eigval :     1408.01  1408.20  1417.93  1419.19  1419.55  1422.48
eigval :     1422.92  1425.46  1427.39  1428.40  1431.76  1434.15
eigval :     1464.78  1468.35  1471.26  1473.18  1473.79  1474.45
eigval :     1477.23  1477.44  1479.73  1480.87  1483.36  1484.97
eigval :     1487.27  1487.58  1488.01  1488.70  1491.06  1493.14
eigval :     1493.79  1494.34  1494.85  1495.68  1496.68  1498.09
eigval :     1498.77  1500.47  1501.02  1501.60  1501.77  1502.93
eigval :     1505.64  1506.36  1506.65  1510.63  1516.03  1518.70
eigval :     1526.13  1528.52  1529.85  1534.10  1535.99  1551.22
eigval :     1570.43  1578.61  1591.08  2305.68  2312.19  2327.47
eigval :     2911.74  2912.21  2916.49  2918.29  2919.52  2920.16
eigval :     2921.43  2932.81  2942.58  2950.34  2955.09  2964.08
eigval :     2970.68  2971.15  2974.03  2974.39  2974.68  2975.00
eigval :     2976.14  2976.92  2977.13  2979.70  2985.35  2985.88
eigval :     2988.55  2991.31  2991.77  2991.89  3000.40  3000.59
eigval :     3001.59  3006.35  3007.04  3014.92  3015.50  3024.45
eigval :     3024.80  3024.88  3025.40  3025.77  3027.01  3027.49
eigval :     3027.85  3032.29  3032.58  3037.41  3039.73  3042.99
eigval :     3043.53  3044.90  3045.40  3052.07  3060.57  3063.67
eigval :     3066.14  3069.04  3070.31  3074.22  3083.35  3088.19
eigval :     3103.99  3106.25  3109.85  3111.26  3114.14  3115.19

   temp. (K)  partition function   enthalpy   heat capacity  entropy
                                   cal/mol     cal/K/mol   cal/K/mol   J/K/mol
 298.15  VIB  0.810E+35            42164.385    240.483    271.229
         ROT  0.149E+09              888.752      2.981     40.374
         INT  0.120E+44            43053.137    243.464    311.603
         TR   0.236E+29             1481.254      4.968     46.041
         TOT                       44534.3913   248.4322   357.6437  1496.3811

       T/K    H(0)-H(T)+PV         H(T)/Eh          T*S/Eh         G(T)/Eh
   ------------------------------------------------------------------------
    298.15    0.709701E-01    0.114000E+01    0.169928E+00    0.970075E+00
   ------------------------------------------------------------------------

         :::::::::::::::::::::::::::::::::::::::::::::::::::::
         ::                  THERMODYNAMIC                  ::
         :::::::::::::::::::::::::::::::::::::::::::::::::::::
         :: total free energy        -171.025601474333 Eh   ::
         ::.................................................::
         :: total energy             -171.995676781936 Eh   ::
         :: zero point energy           1.069033287547 Eh   ::
         :: G(RRHO) w/o ZPVE           -0.098957979944 Eh   ::
         :: G(RRHO) contrib.            0.970075307603 Eh   ::
         :::::::::::::::::::::::::::::::::::::::::::::::::::::

           -------------------------------------------------
          | TOTAL ENERGY             -171.995676781936 Eh   |
          | TOTAL ENTHALPY           -170.855673424345 Eh   |
          | TOTAL FREE ENERGY        -171.025601474333 Eh   |
          | GRADIENT NORM               0.000126145614 Eh/α |
          | HOMO-LUMO GAP               0.332394046252 eV   |
           -------------------------------------------------

 * finished run on 2025/08/29 at 18:07:18.254
