   * xtb version 6.7.1 (edcfbbe) compiled by 'albert@albert-system' on 2024-07-22

   ID    Z sym.   atoms
    1    8 O      1, 3, 40, 41
    2   16 S      2, 39
    3    6 C      4-13, 15-33, 35-38, 42-57
    4    7 N      14, 34
    5    1 H      58-91

          program call               : xtb data2507/toluene/SBA-2DPS/SBA-2DPS.xyz --gfn 2 --gbsa toluene --ohess vtight --parallel 40 --molden --ceasefiles --namespace data2507/toluene/SBA-2DPS/SBA-2DPS_toluene_S0_preOpt
      * Solvation model:               GBSA
        Solvent                        toluene
        Solvent mass                       9.2140E+01 g/mol
          :  Hamiltonian                  GFN2-xTB          :
 * total energy  :  -150.8939538 Eh     change       -0.1537245E-08 Eh
 * total energy  :  -150.9150532 Eh     change       -0.2109941E-01 Eh
 * total energy  :  -150.9225087 Eh     change       -0.7455567E-02 Eh
 * total energy  :  -150.9234812 Eh     change       -0.9724564E-03 Eh
 * total energy  :  -150.9238126 Eh     change       -0.3314166E-03 Eh
 * total energy  :  -150.9239450 Eh     change       -0.1323446E-03 Eh
 * total energy  :  -150.9239959 Eh     change       -0.5089919E-04 Eh
 * total energy  :  -150.9240277 Eh     change       -0.3182465E-04 Eh
 * total energy  :  -150.9240586 Eh     change       -0.3093079E-04 Eh
 * total energy  :  -150.9240685 Eh     change       -0.9865627E-05 Eh
 * total energy  :  -150.9247062 Eh     change       -0.4762123E-06 Eh
 * total energy  :  -150.9247066 Eh     change       -0.4127251E-06 Eh
 * total energy  :  -150.9247070 Eh     change       -0.4187030E-06 Eh
 * total energy  :  -150.9247075 Eh     change       -0.5085893E-06 Eh
 * total energy  :  -150.9247080 Eh     change       -0.5200131E-06 Eh
 * total energy  :  -150.9247085 Eh     change       -0.4928166E-06 Eh
 * total energy  :  -150.9247089 Eh     change       -0.3705806E-06 Eh
 * total energy  :  -150.9247092 Eh     change       -0.2630690E-06 Eh
 * total energy  :  -150.9247092 Eh     change       -0.4345566E-08 Eh
   *** GEOMETRY OPTIMIZATION CONVERGED AFTER 152 ITERATIONS ***

 final structure:
================
91
 xtb: 6.7.1 (edcfbbe)
O            8.96996858066358       -2.93511902547196       -0.02894733361560
S            8.72600754139483       -1.61627576075055       -0.57397816903123
O            9.23383534773296       -1.35121822154006       -1.90351558666219
C            9.37708219236808       -0.38309088722475        0.55583855799942
C            9.15523354292342       -0.54689675462692        1.91025346689419
C            9.62040813220702        0.41699621319107        2.78959043618590
C           10.29364568387078        1.52820280748432        2.30379112632940
C           10.50951833736445        1.68026661130132        0.94281635490468
C           10.04531891398805        0.71876935536469        0.05910889428497
C            6.95535382547627       -1.31303179975404       -0.56245461475572
C            6.47077676162618       -0.18966046584793       -1.20709060790217
C            5.11392438346770        0.07532231377755       -1.17818677832797
C            4.25197768668918       -0.78356203169695       -0.49814328034533
N            2.86143790870795       -0.51233984800537       -0.46849969096496
C            2.39433783456037        0.54944157999028        0.29956556594846
C            3.27912569500279        1.30384080914854        1.07540858778524
C            2.82757422136592        2.36202547842014        1.83812248541698
C            1.48204372392614        2.68773784538529        1.85354791677412
C            0.59883831983436        1.92809579634187        1.10998751828137
C            1.03314403080054        0.86036801750714        0.33836847044128
C           -0.00437333641810        0.05700607761512       -0.42006111481217
C            0.62285175999127       -1.07512335931601       -1.20886070531611
C           -0.21144313658914       -1.88804318141976       -1.96181276996387
C            0.28953598165265       -2.92037239842762       -2.73203962291675
C            1.65712611488483       -3.13385785156005       -2.76275840396828
C            2.50339129581838       -2.33596723279084       -2.01947507086370
C            2.00007760349745       -1.30773172393077       -1.21746056574759
C           -0.97073397547792       -0.54238669493670        0.58176266734167
C           -0.46896654137964       -1.42322105339915        1.52866699636133
C           -1.29404911976368       -2.03914205589326        2.45046159163725
C           -2.65413060494253       -1.78354405602605        2.41164318147161
C           -3.17186717180649       -0.90847534980344        1.47807466386338
C           -2.33812150666032       -0.25805107164006        0.56377873901707
N           -2.87028196101586        0.62796105011127       -0.36819173281007
C           -4.25827098274694        0.90852712002843       -0.33829581073343
C           -5.08792727621893        0.43161192955870       -1.35177433484250
C           -6.44331302466555        0.70453801234742       -1.31961578292910
C           -6.96005960413153        1.45274114579615       -0.27805772547166
S           -8.73116300918423        1.74395363366436       -0.20975832611794
O           -9.23519168549140        1.86167182956644       -1.56167291123606
O           -8.98239550534430        2.85314752573940        0.68603670660149
C           -9.37384961101957        0.23797895890021        0.52503443033929
C           -9.29977991972595        0.08163104235667        1.89614104543165
C           -9.74707188511766       -1.10012490895774        2.46401011873216
C          -10.25529200245854       -2.10603914315731        1.65563711113379
C          -10.32531565515255       -1.93587027043147        0.28141431313039
C           -9.87882760179474       -0.75555102735575       -0.29108082378677
C           -6.15009551731952        1.93254364782108        0.73401859970353
C           -4.79365647369917        1.66360694258275        0.70335558222837
C           -2.07323035358659        1.24655952688195       -1.32652689381334
C           -2.62575254964857        2.16961348875796       -2.21915812300392
C           -1.84551642931765        2.78138577490681       -3.17951861206648
C           -0.49347513101808        2.49634965453623       -3.26683902807968
C            0.06443680407103        1.60860067186250       -2.36663265697371
C           -0.70281512355688        0.98490481438594       -1.39385418237268
C            4.75571005489555       -1.90978912635174        0.14876061821345
C            6.11354320532657       -2.17372863764584        0.11562124376542
H            8.63884197224842       -1.42839181308904        2.25621078380691
H            9.45819060108874        0.30097622909449        3.85024883845906
H           10.65553606610073        2.27819058370731        2.99088180452742
H           11.03734134459814        2.54418089993045        0.56886360191525
H           10.20044249200524        0.79699031222805       -1.00585385780592
H            7.15659460273073        0.45053690444937       -1.73855420433995
H            4.71418501117517        0.94430359537452       -1.67842364822258
H            4.32917792165466        1.05570677807362        1.08519933376771
H            3.53296815468313        2.93133765006500        2.42511211720506
H            1.12385527441889        3.51641748943624        2.44496460797096
H           -0.45599010500420        2.16119874313312        1.12383118245921
H           -1.27504639438890       -1.69966600157123       -1.93982788581685
H           -0.37665112699117       -3.54372302290704       -3.30859602227861
H            2.07270909422663       -3.92375671460976       -3.37097394764474
H            3.56756463821067       -2.50814876075975       -2.06726942161701
H            0.59194487681918       -1.62706281228685        1.53480833324073
H           -0.88307260364696       -2.71858122974408        3.18136689615364
H           -3.32031524936035       -2.26951129572098        3.10901332178170
H           -4.23602412657957       -0.73238525044461        1.45313385911011
H           -4.66451424168213       -0.14710524111574       -2.15863729283666
H           -7.10551047298686        0.35696687877887       -2.09634057516403
H           -8.91134625467996        0.88924761211619        2.49628333979652
H           -9.69983336668766       -1.23478166290047        3.53381361389445
H          -10.60310785716575       -3.02638129726287        2.10006339421082
H          -10.72714690020102       -2.71853433955207       -0.34370950333899
H           -9.92816894667801       -0.58169730754991       -1.35467538461850
H           -6.59072880035933        2.52682121181835        1.51876818924765
H           -4.14444944087156        2.03282962079003        1.48279108525167
H           -3.67451003520783        2.41615996916941       -2.15712371889603
H           -2.29931634555293        3.48742914121273       -3.85929903113769
H            0.11993795360204        2.96783491700001       -4.01935578525834
H            1.12142627444812        1.38956812163334       -2.41108175866160
H            4.08099977823094       -2.57297120594500        0.66860294382258
H            6.53475442297395       -3.04117743999784        0.59920806028685

          :  Hamiltonian                  GFN2-xTB          :
         :: gradient norm              0.000048061483 Eh/a0 ::
         :: HOMO-LUMO gap              2.189435333095 eV    ::
         :: SCC energy              -153.466047764216 Eh    ::
         :: -> dispersion             -0.141590835063 Eh    ::
         :: -> Gsolv                  -0.075609780441 Eh    ::
         :: repulsion energy           2.541338596031 Eh    ::

    * Orbital Energies and Occupations

         #    Occupation            Energy/Eh            Energy/eV
      -------------------------------------------------------------
         1        2.0000           -0.7778241             -21.1657
       ...           ...                  ...                  ...
       126        2.0000           -0.4228657             -11.5068
       127        2.0000           -0.4227716             -11.5042
       128        2.0000           -0.4156194             -11.3096
       129        2.0000           -0.4122993             -11.2192
       130        2.0000           -0.4106914             -11.1755
       131        2.0000           -0.4087912             -11.1238
       132        2.0000           -0.4085090             -11.1161
       133        2.0000           -0.4076407             -11.0925
       134        2.0000           -0.3949490             -10.7471
       135        2.0000           -0.3949139             -10.7462
       136        2.0000           -0.3943190             -10.7300
       137        2.0000           -0.3531766              -9.6104
       138        2.0000           -0.3530732              -9.6076 (HOMO)
       139                         -0.2726129              -7.4182 (LUMO)
       140                         -0.2717817              -7.3956
       141                         -0.2553921              -6.9496
       142                         -0.2545592              -6.9269
       143                         -0.2529226              -6.8824
       144                         -0.2519170              -6.8550
       145                         -0.2467233              -6.7137
       146                         -0.2465769              -6.7097
       147                         -0.2378701              -6.4728
       148                         -0.2265542              -6.1649
       149                         -0.2245814              -6.1112
       ...                                ...                  ...
       272                          1.1652684              31.7086
      -------------------------------------------------------------
                  HL-Gap            0.0804603 Eh            2.1894 eV

     #   Z          covCN         q      C6AA      α(0)
     1   8 O        0.860    -0.577    25.549     6.777
     2  16 S        3.819     0.938   108.437    17.526
     3   8 O        0.860    -0.577    25.551     6.777
     4   6 C        2.972    -0.072    29.782     8.952
     5   6 C        2.961    -0.026    28.661     8.781
     6   6 C        2.921    -0.021    28.523     8.758
     7   6 C        2.920    -0.020    28.519     8.757
     8   6 C        2.921    -0.021    28.527     8.759
     9   6 C        2.954    -0.024    28.600     8.772
    10   6 C        2.971    -0.074    29.853     8.962
    11   6 C        2.958    -0.025    28.626     8.776
    12   6 C        2.923    -0.032    28.799     8.800
    13   6 C        2.926     0.077    26.282     8.407
    14   7 N        2.752    -0.064    22.488     7.043
    15   6 C        2.924     0.057    26.715     8.476
    16   6 C        2.923    -0.059    29.473     8.903
    17   6 C        2.920    -0.033    28.813     8.802
    18   6 C        2.917    -0.043    29.066     8.841
    19   6 C        2.927    -0.035    28.870     8.811
    20   6 C        2.988    -0.010    28.255     8.719
    21   6 C        3.928     0.014    20.271     6.399
    22   6 C        2.988    -0.010    28.256     8.720
    23   6 C        2.927    -0.035    28.873     8.812
    24   6 C        2.917    -0.043    29.066     8.841
    25   6 C        2.920    -0.033    28.811     8.802
    26   6 C        2.923    -0.059    29.463     8.901
    27   6 C        2.924     0.058    26.710     8.475
    28   6 C        2.988    -0.010    28.253     8.719
    29   6 C        2.927    -0.035    28.870     8.812
    30   6 C        2.917    -0.043    29.064     8.841
    31   6 C        2.920    -0.033    28.814     8.803
    32   6 C        2.923    -0.059    29.471     8.903
    33   6 C        2.924     0.057    26.717     8.476
    34   7 N        2.752    -0.064    22.480     7.042
    35   6 C        2.926     0.077    26.288     8.408
    36   6 C        2.923    -0.033    28.811     8.802
    37   6 C        2.957    -0.025    28.615     8.774
    38   6 C        2.971    -0.075    29.873     8.965
    39  16 S        3.818     0.938   108.454    17.528
    40   8 O        0.860    -0.576    25.538     6.775
    41   8 O        0.860    -0.576    25.538     6.775
    42   6 C        2.972    -0.072    29.796     8.954
    43   6 C        2.959    -0.026    28.650     8.779
    44   6 C        2.921    -0.021    28.528     8.759
    45   6 C        2.920    -0.021    28.521     8.758
    46   6 C        2.921    -0.021    28.529     8.759
    47   6 C        2.956    -0.025    28.617     8.774
    48   6 C        2.954    -0.024    28.590     8.770
    49   6 C        2.923    -0.033    28.811     8.802
    50   6 C        2.924     0.057    26.712     8.476
    51   6 C        2.923    -0.059    29.462     8.901
    52   6 C        2.920    -0.033    28.811     8.802
    53   6 C        2.917    -0.043    29.064     8.841
    54   6 C        2.927    -0.035    28.873     8.812
    55   6 C        2.988    -0.010    28.254     8.719
    56   6 C        2.923    -0.032    28.805     8.801
    57   6 C        2.952    -0.023    28.570     8.767
    58   1 H        0.926     0.054     2.270     2.356
    59   1 H        0.926     0.064     2.158     2.297
    60   1 H        0.926     0.064     2.148     2.292
    61   1 H        0.926     0.063     2.165     2.301
    62   1 H        0.926     0.058     2.221     2.330
    63   1 H        0.926     0.062     2.173     2.305
    64   1 H        0.926     0.069     2.100     2.266
    65   1 H        0.926     0.030     2.592     2.518
    66   1 H        0.926     0.034     2.529     2.487
    67   1 H        0.926     0.031     2.572     2.508
    68   1 H        0.926     0.028     2.618     2.530
    69   1 H        0.926     0.029     2.607     2.525
    70   1 H        0.926     0.031     2.573     2.509
    71   1 H        0.926     0.032     2.559     2.502
    72   1 H        0.926     0.027     2.623     2.533
    73   1 H        0.926     0.028     2.611     2.527
    74   1 H        0.926     0.031     2.567     2.506
    75   1 H        0.926     0.034     2.528     2.486
    76   1 H        0.926     0.030     2.590     2.517
    77   1 H        0.926     0.068     2.104     2.268
    78   1 H        0.926     0.064     2.158     2.297
    79   1 H        0.926     0.056     2.251     2.346
    80   1 H        0.926     0.063     2.161     2.299
    81   1 H        0.926     0.064     2.150     2.293
    82   1 H        0.926     0.063     2.166     2.301
    83   1 H        0.926     0.058     2.227     2.334
    84   1 H        0.926     0.066     2.134     2.285
    85   1 H        0.926     0.068     2.102     2.267
    86   1 H        0.926     0.028     2.615     2.529
    87   1 H        0.926     0.032     2.558     2.501
    88   1 H        0.926     0.031     2.576     2.510
    89   1 H        0.926     0.028     2.612     2.527
    90   1 H        0.926     0.069     2.101     2.267
    91   1 H        0.926     0.066     2.126     2.280

molecular dipole:
                 x           y           z       tot (Debye)
 q only:        0.036      -0.371       2.604
   full:        0.037      -0.348       2.419       6.212

 projected vibrational frequencies (cm⁻¹)
eigval :       -0.00     0.00     0.00     0.00     0.00     0.00
eigval :        5.03     5.25    10.99    11.36    16.06    18.31
eigval :       30.07    34.19    37.04    38.71    40.89    42.95
eigval :       44.31    46.13    55.99    69.44    69.88    99.44
eigval :      108.20   112.30   116.34   125.09   126.73   129.14
eigval :      141.61   141.74   148.34   170.28   179.37   180.58
eigval :      203.73   205.56   234.28   263.18   264.12   266.80
eigval :      282.26   285.63   288.99   293.62   303.63   305.70
eigval :      322.65   331.48   363.56   366.04   366.90   370.12
eigval :      372.20   372.62   376.19   392.40   396.21   398.27
eigval :      405.60   408.02   410.30   427.99   434.86   441.67
eigval :      449.48   452.60   454.05   461.82   488.21   489.10
eigval :      492.57   504.37   505.59   520.74   522.20   530.45
eigval :      537.17   542.78   584.23   584.32   590.35   590.64
eigval :      600.89   601.06   605.34   605.45   608.74   634.93
eigval :      656.02   657.29   658.25   667.15   674.86   678.26
eigval :      679.60   687.69   692.43   697.83   700.50   702.58
eigval :      731.68   745.46   750.36   754.10   771.25   772.31
eigval :      773.48   780.87   812.06   813.58   865.69   866.60
eigval :      867.05   867.32   872.74   875.00   878.92   881.43
eigval :      896.23   896.54   898.70   906.05   907.19   907.57
eigval :      907.62   907.96   908.73   912.46   913.11   916.86
eigval :      916.95   919.71   920.46   922.08   922.63   925.24
eigval :      928.68   929.21   929.39   929.79   932.11   946.02
eigval :      946.14   965.73   965.83  1002.60  1004.10  1065.88
eigval :     1066.44  1069.22  1069.85  1099.02  1101.09  1102.24
eigval :     1106.33  1107.09  1108.16  1108.32  1110.01  1111.74
eigval :     1113.17  1114.52  1118.98  1119.83  1122.15  1122.89
eigval :     1146.03  1166.70  1167.60  1172.75  1173.49  1176.16
eigval :     1177.64  1179.33  1181.58  1182.64  1183.13  1189.78
eigval :     1190.80  1191.19  1194.09  1217.03  1230.45  1230.76
eigval :     1234.28  1242.18  1242.62  1257.01  1257.78  1264.61
eigval :     1264.84  1267.85  1268.09  1308.77  1310.42  1310.81
eigval :     1311.69  1318.63  1318.91  1324.31  1324.45  1329.49
eigval :     1329.90  1330.90  1334.83  1391.63  1391.92  1426.62
eigval :     1426.82  1433.77  1434.62  1434.71  1436.09  1440.97
eigval :     1441.42  1454.84  1455.25  1476.11  1476.35  1488.02
eigval :     1491.22  1568.49  1569.24  1572.36  1572.49  1572.63
eigval :     1572.69  1576.11  1576.44  1584.71  1589.10  1589.15
eigval :     1590.92  1595.35  1595.51  1599.28  1601.15  3075.80
eigval :     3076.18  3076.49  3077.37  3078.65  3078.83  3079.17
eigval :     3079.80  3085.56  3086.08  3091.27  3091.44  3091.88
eigval :     3092.10  3092.36  3092.91  3094.49  3094.75  3095.92
eigval :     3096.01  3097.56  3097.72  3099.69  3099.92  3100.59
eigval :     3101.33  3102.61  3103.72  3105.46  3105.86  3106.19
eigval :     3107.53  3108.45  3109.36

   temp. (K)  partition function   enthalpy   heat capacity  entropy
                                   cal/mol     cal/K/mol   cal/K/mol   J/K/mol
 298.15  VIB  0.334E+25            28298.515    171.515    180.156
         ROT  0.159E+09              888.752      2.981     40.505
         INT  0.530E+33            29187.268    174.496    220.660
         TR   0.210E+29             1481.254      4.968     45.816
         TOT                       30668.5216   179.4638   266.4764  1114.9371

       T/K    H(0)-H(T)+PV         H(T)/Eh          T*S/Eh         G(T)/Eh
   ------------------------------------------------------------------------
    298.15    0.488734E-01    0.728280E+00    0.126612E+00    0.601668E+00
   ------------------------------------------------------------------------

         :::::::::::::::::::::::::::::::::::::::::::::::::::::
         ::                  THERMODYNAMIC                  ::
         :::::::::::::::::::::::::::::::::::::::::::::::::::::
         :: total free energy        -150.323040871897 Eh   ::
         ::.................................................::
         :: total energy             -150.924709164045 Eh   ::
         :: zero point energy           0.679406407608 Eh   ::
         :: G(RRHO) w/o ZPVE           -0.077738115461 Eh   ::
         :: G(RRHO) contrib.            0.601668292147 Eh   ::
         :::::::::::::::::::::::::::::::::::::::::::::::::::::

           -------------------------------------------------
          | TOTAL ENERGY             -150.924709164045 Eh   |
          | TOTAL ENTHALPY           -150.196429356320 Eh   |
          | TOTAL FREE ENERGY        -150.323040871897 Eh   |
          | GRADIENT NORM               0.000048068222 Eh/α |
          | HOMO-LUMO GAP               2.189436235222 eV   |
           -------------------------------------------------

 * finished run on 2025/09/09 at 10:16:32.447
