   * xtb version 6.7.1 (edcfbbe) compiled by 'albert@albert-system' on 2024-07-22

   ID    Z sym.   atoms
    1    8 O      1, 3, 40, 41
    2   16 S      2, 39
    3    6 C      4-13, 15-33, 35-38, 42-57
    4    7 N      14, 34
    5    1 H      58-91

          program call               : xtb data2507/toluene/SBA-2DPS/SBA-2DPS_toluene_S0_crest.xyz --gfn 2 --gbsa toluene --ohess vtight --parallel 40 --molden --ceasefiles --namespace data2507/toluene/SBA-2DPS/SBA-2DPS_toluene_S0_finalOpt
      * Solvation model:               GBSA
        Solvent                        toluene
        Solvent mass                       9.2140E+01 g/mol
          :  Hamiltonian                  GFN2-xTB          :
 * total energy  :  -150.9242414 Eh     change       -0.2174971E-08 Eh
 * total energy  :  -150.9244715 Eh     change       -0.2300919E-03 Eh
 * total energy  :  -150.9245995 Eh     change       -0.1280656E-03 Eh
 * total energy  :  -150.9246175 Eh     change       -0.1795985E-04 Eh
 * total energy  :  -150.9246348 Eh     change       -0.1732697E-04 Eh
 * total energy  :  -150.9246398 Eh     change       -0.4933347E-05 Eh
 * total energy  :  -150.9246474 Eh     change       -0.7692094E-05 Eh
 * total energy  :  -150.9246518 Eh     change       -0.4380651E-05 Eh
 * total energy  :  -150.9246648 Eh     change       -0.1296083E-04 Eh
 * total energy  :  -150.9246686 Eh     change       -0.3795039E-05 Eh
 * total energy  :  -150.9246761 Eh     change       -0.2225633E-05 Eh
 * total energy  :  -150.9246780 Eh     change       -0.1913341E-05 Eh
 * total energy  :  -150.9246796 Eh     change       -0.1542040E-05 Eh
 * total energy  :  -150.9246811 Eh     change       -0.1521532E-05 Eh
 * total energy  :  -150.9246826 Eh     change       -0.1503382E-05 Eh
 * total energy  :  -150.9246837 Eh     change       -0.1147433E-05 Eh
 * total energy  :  -150.9246846 Eh     change       -0.8863591E-06 Eh
 * total energy  :  -150.9246853 Eh     change       -0.7364422E-06 Eh
 * total energy  :  -150.9246854 Eh     change       -0.2086682E-07 Eh
   *** GEOMETRY OPTIMIZATION CONVERGED AFTER 22 ITERATIONS ***

 final structure:
================
91
 xtb: 6.7.1 (edcfbbe)
O            9.17146760101671       -2.17062155680240        0.79376237631704
S            8.82783792036034       -1.11376350772543       -0.13448814377855
O            9.32258182532354       -1.24743274925544       -1.48838813458530
C            9.37986304648864        0.45770253735558        0.53603768938144
C            8.96990244950658        0.80650012846096        1.80926848293362
C            9.37001342554489        2.02391860654127        2.33497453825591
C           10.17050894159293        2.87155008264256        1.58329598108083
C           10.57411094222149        2.50951819557502        0.30753077981252
C           10.17453786480456        1.29303453368325       -0.22358693430301
C            7.03929747319400       -0.95441386106480       -0.18002299150350
C            6.47807872597359       -0.06504751042149       -1.07804357024192
C            5.10536138661833        0.10051695312027       -1.09853724030368
C            4.30436633907011       -0.62111315420889       -0.21470902415646
N            2.89862153401853       -0.44555522123057       -0.22966748745087
C            2.35942153727159        0.74122577628428        0.25732457807551
C            3.19058898637345        1.72811920180351        0.79513502847633
C            2.66699600605472        2.91103704554744        1.27683123074945
C            1.30115370080037        3.13470040694916        1.24401421414839
C            0.47210160160413        2.15108351732169        0.73901566954469
C            0.97935066904900        0.95614092860564        0.25011730947223
C           -0.00085750221626       -0.08140208194014       -0.25995980149476
C            0.70218468547778       -1.33425317966115       -0.74234749571351
C           -0.07555908136439       -2.37012832771247       -1.23834411708005
C            0.49435247429675       -3.53029196549209       -1.72740750918342
C            1.87368584111312       -3.64934710386500       -1.73754822529285
C            2.66447058000950       -2.62914279242637       -1.24836552123994
C            2.09275033906927       -1.46566915555744       -0.72546891373068
C           -0.92710280970426       -0.46158858643052        0.87759729182004
C           -0.37253185731519       -1.05221845796604        2.00359916135637
C           -1.15614558275421       -1.45238034862100        3.06929407668332
C           -2.52722370279351       -1.27367268138320        2.99979598190023
C           -3.09751380836969       -0.68745508469195        1.88786327324137
C           -2.30713779995332       -0.25429452128790        0.81933613559737
N           -2.89279069098486        0.33940894704038       -0.29473130059553
C           -4.29326436528572        0.55073057433215       -0.30725850830691
C           -5.10590134279136       -0.21369080596608       -1.14325956066183
C           -6.47290701319994       -0.00562021791626       -1.15526149481470
C           -7.01780157546176        0.96338726937085       -0.33291535019831
S           -8.80023732060208        1.18356168040614       -0.32473364568870
O           -9.28181924120266        1.14111006204727       -1.68933351211588
O           -9.11348448230199        2.36929517474640        0.44475091911590
C           -9.40234340590982       -0.26168321014787        0.55281132284144
C           -9.16573965687331       -0.35099230985695        1.91166738854580
C           -9.59573850562540       -1.47523291145717        2.59699402256654
C          -10.25017269422916       -2.49110674785488        1.91594401575990
C          -10.48069513286172       -2.38902508090415        0.55277943608524
C          -10.05155429217077       -1.26629256321043       -0.13734015664701
C           -6.22590047915332        1.72699486807900        0.50326857951361
C           -4.85750106404118        1.52366654207019        0.51494980903980
C           -2.13895193575132        0.72218748173298       -1.39999674259631
C           -2.74809687471278        1.35000549540558       -2.49036056801746
C           -2.01079971603216        1.72506421688938       -3.59540453609241
C           -0.64628274250419        1.49426679182898       -3.63590841343601
C           -0.03343413910153        0.90300810224750       -2.54750122547397
C           -0.75723788803333        0.51947440351653       -1.42808136087059
C            4.88499310043844       -1.51378478281746        0.68354452099837
C            6.25856543719357       -1.67968241396337        0.69950469921817
H            8.35586805186954        0.12183907262590        2.37311618402759
H            9.05956976126916        2.30924576954723        3.32841430367879
H           10.48251030152673        3.81940792332868        1.99532314053999
H           11.19859093662948        3.17047890291903       -0.27380758420742
H           10.46800074111541        0.97426429293342       -1.21194049747433
H            7.11856002362502        0.47275634605174       -1.75883411913028
H            4.64637312190951        0.78787362936294       -1.79278339173940
H            4.25620272268033        1.56543245176797        0.84103836262834
H            3.33219447020109        3.65878541882378        1.68264979384153
H            0.88624582321922        4.05892703818138        1.61610141600353
H           -0.59693433634865        2.30552568744180        0.72028656290476
H           -1.14989778982178       -2.25552837778419       -1.23946715527742
H           -0.12831255693234       -4.32634675508823       -2.10600984912871
H            2.34161084492165       -4.53913222921473       -2.13238405949376
H            3.73810195340316       -2.73358226097444       -1.27857721368377
H            0.69715512860937       -1.19933037805263        2.03657620505585
H           -0.70437887470422       -1.90663507634865        3.93784837941789
H           -3.16086643046820       -1.59512723967001        3.81309703448127
H           -4.16911434561728       -0.56983406108809        1.84444439662824
H           -4.65951128892370       -0.96278242538504       -1.77954493086455
H           -7.12195019307624       -0.57678012173754       -1.79962696097614
H           -8.66517242109325        0.46206935621602        2.41351050854497
H           -9.42170932460091       -1.55781549490883        3.65889825434125
H          -10.58430884170328       -3.36662021459958        2.45200051123225
H          -10.99347400447207       -3.17978267105005        0.02688846330724
H          -10.21828901026474       -1.14628975702176       -1.19665207116649
H           -6.69287150872011        2.47998995610268        1.11864311721266
H           -4.22168827596458        2.11271883563902        1.15839444776090
H           -3.80780028086029        1.55268402862070       -2.47085849598507
H           -2.50827564376716        2.20432498259316       -4.42571571528106
H           -0.06581810062745        1.78131949972262       -4.49933509826116
H            1.03352294582725        0.73367564092041       -2.55685181479737
H            4.25754064187381       -2.07305343652180        1.36093254852170
H            6.74045645220389       -2.36434574292072        1.37997976927828

          :  Hamiltonian                  GFN2-xTB          :
         :: gradient norm              0.000109330359 Eh/a0 ::
         :: HOMO-LUMO gap              2.222869651420 eV    ::
         :: SCC energy              -153.465781054685 Eh    ::
         :: -> dispersion             -0.141861322576 Eh    ::
         :: -> Gsolv                  -0.075718374494 Eh    ::
         :: repulsion energy           2.541095688469 Eh    ::

    * Orbital Energies and Occupations

         #    Occupation            Energy/Eh            Energy/eV
      -------------------------------------------------------------
         1        2.0000           -0.7778861             -21.1674
       ...           ...                  ...                  ...
       126        2.0000           -0.4229516             -11.5091
       127        2.0000           -0.4228560             -11.5065
       128        2.0000           -0.4156465             -11.3103
       129        2.0000           -0.4125330             -11.2256
       130        2.0000           -0.4110435             -11.1851
       131        2.0000           -0.4088676             -11.1259
       132        2.0000           -0.4086486             -11.1199
       133        2.0000           -0.4077441             -11.0953
       134        2.0000           -0.3950068             -10.7487
       135        2.0000           -0.3949733             -10.7478
       136        2.0000           -0.3943602             -10.7311
       137        2.0000           -0.3532313              -9.6119
       138        2.0000           -0.3531962              -9.6110 (HOMO)
       139                         -0.2715073              -7.3881 (LUMO)
       140                         -0.2706394              -7.3645
       141                         -0.2561288              -6.9696
       142                         -0.2553074              -6.9473
       143                         -0.2536436              -6.9020
       144                         -0.2529077              -6.8820
       145                         -0.2467900              -6.7155
       146                         -0.2466744              -6.7124
       147                         -0.2379241              -6.4742
       148                         -0.2266131              -6.1665
       149                         -0.2246271              -6.1124
       ...                                ...                  ...
       272                          1.1674954              31.7692
      -------------------------------------------------------------
                  HL-Gap            0.0816889 Eh            2.2229 eV

     #   Z          covCN         q      C6AA      α(0)
     1   8 O        0.860    -0.578    25.579     6.781
     2  16 S        3.819     0.939   108.414    17.524
     3   8 O        0.860    -0.577    25.552     6.777
     4   6 C        2.972    -0.071    29.766     8.949
     5   6 C        2.962    -0.027    28.678     8.784
     6   6 C        2.922    -0.021    28.519     8.757
     7   6 C        2.920    -0.021    28.519     8.757
     8   6 C        2.922    -0.021    28.523     8.758
     9   6 C        2.953    -0.023    28.578     8.768
    10   6 C        2.971    -0.074    29.839     8.960
    11   6 C        2.959    -0.025    28.629     8.776
    12   6 C        2.923    -0.032    28.796     8.800
    13   6 C        2.926     0.077    26.281     8.407
    14   7 N        2.752    -0.064    22.482     7.042
    15   6 C        2.924     0.057    26.717     8.476
    16   6 C        2.923    -0.059    29.475     8.903
    17   6 C        2.920    -0.033    28.813     8.802
    18   6 C        2.917    -0.043    29.066     8.841
    19   6 C        2.927    -0.035    28.871     8.812
    20   6 C        2.988    -0.010    28.254     8.719
    21   6 C        3.928     0.014    20.272     6.399
    22   6 C        2.988    -0.010    28.254     8.719
    23   6 C        2.927    -0.035    28.871     8.812
    24   6 C        2.917    -0.043    29.064     8.841
    25   6 C        2.920    -0.033    28.810     8.802
    26   6 C        2.923    -0.059    29.462     8.901
    27   6 C        2.924     0.057    26.713     8.476
    28   6 C        2.988    -0.010    28.252     8.719
    29   6 C        2.927    -0.035    28.869     8.811
    30   6 C        2.917    -0.043    29.064     8.841
    31   6 C        2.920    -0.033    28.813     8.802
    32   6 C        2.923    -0.059    29.472     8.903
    33   6 C        2.924     0.057    26.718     8.477
    34   7 N        2.752    -0.064    22.479     7.042
    35   6 C        2.926     0.077    26.286     8.408
    36   6 C        2.923    -0.032    28.805     8.801
    37   6 C        2.958    -0.025    28.627     8.776
    38   6 C        2.971    -0.075    29.857     8.963
    39  16 S        3.819     0.938   108.436    17.526
    40   8 O        0.860    -0.577    25.550     6.777
    41   8 O        0.860    -0.577    25.556     6.778
    42   6 C        2.972    -0.072    29.781     8.951
    43   6 C        2.961    -0.027    28.665     8.782
    44   6 C        2.921    -0.021    28.523     8.758
    45   6 C        2.920    -0.021    28.519     8.757
    46   6 C        2.922    -0.021    28.526     8.759
    47   6 C        2.953    -0.024    28.596     8.771
    48   6 C        2.953    -0.023    28.573     8.767
    49   6 C        2.923    -0.032    28.809     8.802
    50   6 C        2.924     0.057    26.712     8.476
    51   6 C        2.923    -0.059    29.463     8.901
    52   6 C        2.920    -0.033    28.811     8.802
    53   6 C        2.917    -0.043    29.064     8.841
    54   6 C        2.927    -0.035    28.875     8.812
    55   6 C        2.988    -0.010    28.255     8.719
    56   6 C        2.923    -0.032    28.805     8.801
    57   6 C        2.952    -0.022    28.563     8.766
    58   1 H        0.926     0.052     2.298     2.370
    59   1 H        0.926     0.064     2.153     2.295
    60   1 H        0.926     0.065     2.146     2.291
    61   1 H        0.926     0.063     2.167     2.302
    62   1 H        0.926     0.058     2.224     2.332
    63   1 H        0.926     0.061     2.186     2.312
    64   1 H        0.926     0.069     2.096     2.264
    65   1 H        0.926     0.030     2.588     2.515
    66   1 H        0.926     0.034     2.526     2.485
    67   1 H        0.926     0.031     2.572     2.508
    68   1 H        0.926     0.028     2.617     2.530
    69   1 H        0.926     0.029     2.607     2.525
    70   1 H        0.926     0.031     2.572     2.508
    71   1 H        0.926     0.032     2.558     2.501
    72   1 H        0.926     0.028     2.621     2.532
    73   1 H        0.926     0.028     2.613     2.528
    74   1 H        0.926     0.031     2.568     2.506
    75   1 H        0.926     0.034     2.528     2.486
    76   1 H        0.926     0.030     2.589     2.516
    77   1 H        0.926     0.069     2.100     2.266
    78   1 H        0.926     0.062     2.178     2.308
    79   1 H        0.926     0.054     2.276     2.359
    80   1 H        0.926     0.064     2.157     2.297
    81   1 H        0.926     0.064     2.148     2.292
    82   1 H        0.926     0.063     2.166     2.301
    83   1 H        0.926     0.058     2.221     2.331
    84   1 H        0.926     0.066     2.127     2.281
    85   1 H        0.926     0.068     2.102     2.267
    86   1 H        0.926     0.028     2.614     2.528
    87   1 H        0.926     0.032     2.557     2.501
    88   1 H        0.926     0.031     2.576     2.510
    89   1 H        0.926     0.028     2.610     2.526
    90   1 H        0.926     0.069     2.101     2.267
    91   1 H        0.926     0.066     2.125     2.280

molecular dipole:
                 x           y           z       tot (Debye)
 q only:       -0.071       0.123       2.152
   full:       -0.067       0.108       1.991       5.072

 projected vibrational frequencies (cm⁻¹)
eigval :       -0.00    -0.00    -0.00    -0.00     0.00     0.00
eigval :       -2.13     4.30     6.13     7.16    14.58    18.04
eigval :       31.04    32.80    34.47    36.61    38.84    41.84
eigval :       44.71    45.93    56.08    67.17    70.15    99.02
eigval :      107.69   109.83   113.36   125.60   125.81   127.52
eigval :      139.19   140.49   147.98   170.05   180.16   180.44
eigval :      204.97   208.51   234.54   262.75   263.80   266.57
eigval :      278.97   282.71   288.82   291.36   304.99   306.69
eigval :      317.84   327.38   363.56   364.18   366.53   369.16
eigval :      372.03   372.92   378.23   391.30   395.89   397.77
eigval :      405.53   406.51   409.92   429.00   437.99   444.99
eigval :      449.61   454.28   454.73   463.53   487.92   488.75
eigval :      492.96   504.41   506.11   520.46   521.97   530.83
eigval :      536.48   542.12   584.20   584.71   590.50   590.62
eigval :      600.81   601.00   605.41   605.46   608.78   635.18
eigval :      655.45   656.87   658.54   667.52   674.59   678.47
eigval :      679.71   687.59   692.66   698.02   700.56   702.44
eigval :      732.17   745.57   750.57   754.12   771.62   772.66
eigval :      774.14   781.81   813.57   814.88   865.16   866.72
eigval :      866.98   867.83   875.30   877.15   879.09   879.86
eigval :      896.38   896.68   898.71   905.18   906.10   906.86
eigval :      908.87   910.30   911.60   912.84   913.48   916.62
eigval :      917.50   922.01   922.66   922.78   925.93   926.87
eigval :      928.55   929.25   930.68   931.03   934.87   946.09
eigval :      946.20   965.82   965.93  1002.76  1004.26  1066.18
eigval :     1066.39  1069.26  1069.48  1098.99  1102.03  1102.30
eigval :     1106.42  1107.15  1108.49  1109.28  1110.53  1112.61
eigval :     1113.26  1115.30  1118.49  1119.38  1122.39  1122.89
eigval :     1146.21  1167.87  1168.14  1171.84  1173.56  1176.92
eigval :     1177.14  1179.72  1181.71  1182.90  1183.44  1189.92
eigval :     1190.25  1190.31  1194.27  1217.11  1230.54  1230.81
eigval :     1234.55  1242.63  1242.99  1257.45  1257.56  1264.86
eigval :     1265.18  1268.21  1268.89  1308.61  1310.36  1310.98
eigval :     1311.81  1318.37  1318.76  1324.33  1324.44  1329.55
eigval :     1329.64  1330.76  1334.86  1391.71  1391.92  1426.52
eigval :     1427.15  1433.92  1434.67  1434.77  1436.33  1441.35
eigval :     1441.44  1454.98  1455.39  1476.23  1476.37  1488.10
eigval :     1491.57  1568.43  1569.04  1572.41  1572.52  1572.72
eigval :     1572.82  1576.35  1576.49  1584.75  1589.08  1589.16
eigval :     1590.93  1595.53  1595.61  1599.22  1601.11  3075.39
eigval :     3075.82  3076.19  3077.14  3077.85  3078.73  3079.41
eigval :     3079.99  3085.32  3086.23  3091.11  3091.14  3091.42
eigval :     3091.59  3091.83  3092.71  3093.92  3094.19  3095.31
eigval :     3095.85  3096.05  3097.26  3099.09  3099.72  3100.88
eigval :     3101.50  3101.72  3102.77  3104.25  3104.33  3104.91
eigval :     3105.69  3107.30  3108.44

   temp. (K)  partition function   enthalpy   heat capacity  entropy
                                   cal/mol     cal/K/mol   cal/K/mol   J/K/mol
 298.15  VIB  0.396E+26            28347.127    171.293    182.581
         ROT  0.158E+09              888.752      2.981     40.496
         INT  0.626E+34            29235.879    174.274    223.077
         TR   0.210E+29             1481.254      4.968     45.816
         TOT                       30717.1331   179.2419   268.8932  1125.0493

       T/K    H(0)-H(T)+PV         H(T)/Eh          T*S/Eh         G(T)/Eh
   ------------------------------------------------------------------------
    298.15    0.489509E-01    0.728313E+00    0.127760E+00    0.600554E+00
   ------------------------------------------------------------------------

         :::::::::::::::::::::::::::::::::::::::::::::::::::::
         ::                  THERMODYNAMIC                  ::
         :::::::::::::::::::::::::::::::::::::::::::::::::::::
         :: total free energy        -150.324131790933 Eh   ::
         ::.................................................::
         :: total energy             -150.924685369085 Eh   ::
         :: zero point energy           0.679362567545 Eh   ::
         :: G(RRHO) w/o ZPVE           -0.078808989393 Eh   ::
         :: G(RRHO) contrib.            0.600553578152 Eh   ::
         :::::::::::::::::::::::::::::::::::::::::::::::::::::

           -------------------------------------------------
          | TOTAL ENERGY             -150.924685369085 Eh   |
          | TOTAL ENTHALPY           -150.196371934127 Eh   |
          | TOTAL FREE ENERGY        -150.324131790933 Eh   |
          | GRADIENT NORM               0.000109271043 Eh/α |
          | HOMO-LUMO GAP               2.222868256930 eV   |
           -------------------------------------------------

 * finished run on 2025/09/09 at 10:33:04.160
