   * xtb version 6.7.1 (edcfbbe) compiled by 'albert@albert-system' on 2024-07-22

   ID    Z sym.   atoms
    1    8 O      1, 3, 40, 41
    2   16 S      2, 39
    3    6 C      4-13, 15-33, 35-38, 42-57
    4    7 N      14, 34
    5    1 H      58-91

          program call               : xtb data2507/toluene/SBA-2DPS/SBA-2DPS_toluene_T1_crest.xyz --gfn 2 --uhf 2 --gbsa toluene --ohess vtight --parallel 40 --molden --ceasefiles --namespace data2507/toluene/SBA-2DPS/SBA-2DPS_toluene_T1_finalOpt
      * Solvation model:               GBSA
        Solvent                        toluene
        Solvent mass                       9.2140E+01 g/mol
          :  Hamiltonian                  GFN2-xTB          :
 * total energy  :  -150.8300704 Eh     change        0.5745278E-08 Eh
 * total energy  :  -150.8306693 Eh     change       -0.5989705E-03 Eh
 * total energy  :  -150.8310027 Eh     change       -0.3333392E-03 Eh
 * total energy  :  -150.8310280 Eh     change       -0.2532198E-04 Eh
 * total energy  :  -150.8310448 Eh     change       -0.1683164E-04 Eh
 * total energy  :  -150.8310508 Eh     change       -0.5991666E-05 Eh
 * total energy  :  -150.8310542 Eh     change       -0.3350902E-05 Eh
 * total energy  :  -150.8310565 Eh     change       -0.2307179E-05 Eh
 * total energy  :  -150.8310601 Eh     change       -0.3632022E-05 Eh
 * total energy  :  -150.8310658 Eh     change       -0.5696571E-05 Eh
 * total energy  :  -150.8310868 Eh     change       -0.1394485E-06 Eh
 * total energy  :  -150.8310870 Eh     change       -0.2109397E-06 Eh
 * total energy  :  -150.8310872 Eh     change       -0.1759900E-06 Eh
 * total energy  :  -150.8310873 Eh     change       -0.1498748E-06 Eh
 * total energy  :  -150.8310875 Eh     change       -0.1719105E-06 Eh
 * total energy  :  -150.8310877 Eh     change       -0.1947816E-06 Eh
 * total energy  :  -150.8310878 Eh     change       -0.1285729E-06 Eh
 * total energy  :  -150.8310879 Eh     change       -0.1228334E-06 Eh
 * total energy  :  -150.8310880 Eh     change       -0.1345688E-07 Eh
   *** GEOMETRY OPTIMIZATION CONVERGED AFTER 39 ITERATIONS ***

 final structure:
================
91
 xtb: 6.7.1 (edcfbbe)
O            9.17103654351228       -2.27065684814412        0.45565298696399
S            8.80650125519857       -1.07610758537056       -0.28773294115367
O            9.34084779853591       -0.95255158324534       -1.63365566685859
C            9.28112252880899        0.35984163984118        0.65618128341961
C            9.29499039145647        0.28800393170944        2.04182674974839
C            9.56392011791428        1.42704093057932        2.77677623570304
C            9.80806802629015        2.63166992646103        2.12848188874574
C            9.78802523376670        2.69481270623062        0.74058028650889
C            9.51944013688063        1.55907830248229        0.00029347073849
C            7.04218986046646       -0.95487883292996       -0.35440841163279
C            6.44161759465823       -0.19771649175539       -1.36332854234725
C            5.08079536890797       -0.00896659755759       -1.35813539604767
C            4.30363098347503       -0.56562781177656       -0.33162871821924
N            2.89232874753225       -0.37600858762978       -0.32722214515442
C            2.34587834597915        0.55922068798016        0.52594374460131
C            3.17890359162260        1.33201371058025        1.35118992519629
C            2.64559760710228        2.26011813267971        2.21623659215371
C            1.26981003388185        2.44910378252288        2.28029404670868
C            0.44221486451847        1.70745678943655        1.45718769001722
C            0.95777868139658        0.76757398470562        0.57822767326243
C           -0.00106541045081        0.00646176670768       -0.31295290177119
C            0.71797697618930       -0.98054349099472       -1.20887061830688
C           -0.03321952257749       -1.75719966477105       -2.07748033630130
C            0.56505260418561       -2.68649051890652       -2.90855502319399
C            1.94399716369570       -2.85639933336344       -2.86330309650318
C            2.70898272428357       -2.09619834124693       -2.00831737315599
C            2.11337524244737       -1.13683418443623       -1.17342591783842
C           -0.95915859705782       -0.77455218062305        0.56147093238106
C           -0.44269703139347       -1.73473838045601        1.41763296137169
C           -1.26935298745912       -2.49534531927994        2.22417137023173
C           -2.64525665428504       -2.30550123384316        2.16526286627087
C           -3.17948394278667       -1.35784022028869        1.32230029872690
C           -2.34732008954507       -0.56509066019315        0.51519237512280
N           -2.89445575469190        0.38999212225098       -0.31535548394277
C           -4.30557027810554        0.57915456735265       -0.31428577401562
C           -5.08195677340192        0.05865882202505       -1.36032053413010
C           -6.44297314021597        0.24585625697444       -1.35915340255674
C           -7.04500869394958        0.96490677115308       -0.32345211955557
S           -8.80929457137994        1.08302839138314       -0.25208073283924
O           -9.34499570974735        0.98578295348356       -1.59960282504204
O           -9.17391278681523        2.26234344786704        0.51526619081257
C           -9.28232926699795       -0.37084923166701        0.66485149957691
C           -9.30435927162680       -0.32200393438729        2.05141050796212
C           -9.57268487113685       -1.47402288277610        2.76606725049928
C           -9.80831632271898       -2.66872924310914        2.09666540624884
C           -9.78022974151624       -2.70883894612528        0.70800112950683
C           -9.51205566210396       -1.56007424075681       -0.01202862296608
C           -6.27611308858239        1.47986984193823        0.72352503876121
C           -4.91503090040855        1.29312331525939        0.72814353103311
C           -2.11610813625502        1.16967907586654       -1.14481323093982
C           -2.71190982437264        2.14916419648487       -1.95598607567700
C           -1.94766705272442        2.92729895544465       -2.79531932987992
C           -0.56908631548162        2.75636570303968       -2.84761324516171
C            0.02963354556508        1.80823287052792       -2.03842957230025
C           -0.72081828725440        1.01319862338352       -1.18597562157014
C            4.91173730043605       -1.31673953802532        0.68494082793544
C            6.27262778206620       -1.50523450467996        0.67369256794778
H            9.11540102328711       -0.66605281098222        2.51278091066282
H            9.58678260583491        1.37899040851403        3.85526300107957
H           10.01912963980619        3.51977347383122        2.70453366685829
H            9.98517660927440        3.63027804564476        0.23856935882717
H            9.50971294771665        1.56943416587747       -1.07865058589294
H            7.06771301480462        0.20753031808179       -2.14193048151587
H            4.60171963104696        0.56432353056217       -2.13722117437580
H            4.24730426838294        1.19598010269214        1.29790006407723
H            3.30316555767016        2.84285529606701        2.84261236925972
H            0.84965933241042        3.17293402955216        2.96066973406423
H           -0.62599581315465        1.85891668783899        1.49201825034685
H           -1.10481116071651       -1.62902410945038       -2.09911510174830
H           -0.03562226176470       -3.27879176586881       -3.58065185942589
H            2.42214840426731       -3.58702844040474       -3.49737407271144
H            3.77719603616126       -2.23868124097159       -1.97103196803422
H            0.62553247355476       -1.88704546998714        1.44758183099092
H           -0.84844250154508       -3.23464537845805        2.88721508001173
H           -3.30227647912235       -2.90301264881799        2.77815088454982
H           -4.24804083186865       -1.22206447507684        1.27233032800387
H           -4.60199304223610       -0.48578110759221       -2.15929995139807
H           -7.06849990926767       -0.13198694741309       -2.15189126960305
H           -9.13176288557969        0.62495016163215        2.53895289331188
H           -9.60212811371590       -1.44353749100276        3.84505110590959
H          -10.01930716584232       -3.56698993789582        2.65677227987392
H           -9.97068904680899       -3.63667268372744        0.18954643631648
H           -9.49601734901323       -1.55296767589924       -1.09092962357123
H           -6.77467396936313        2.03759081822463        1.49988629402931
H           -4.30700591489272        1.69550807994837        1.52406762927252
H           -3.77971773161354        2.29288842347335       -1.91287583430062
H           -2.42609470670013        3.67302349795826       -3.41135646912143
H            0.03099605836889        3.36258934245566       -3.50772895388101
H            1.10102195003205        1.67934726396418       -2.06493323854226
H            4.30313621489690       -1.74576796450264        1.46639382739196
H            6.77057716456273       -2.09115212927230        1.42942805859334

          :  Hamiltonian                  GFN2-xTB          :
         :: gradient norm              0.000154539346 Eh/a0 ::
         :: HOMO-LUMO gap              0.000287458061 eV    ::
         :: SCC energy              -153.351507138585 Eh    ::
         :: -> dispersion             -0.141260469821 Eh    ::
         :: -> Gsolv                  -0.089280302311 Eh    ::
         :: repulsion energy           2.520419182539 Eh    ::

    * Orbital Energies and Occupations

         #    Occupation            Energy/Eh            Energy/eV
      -------------------------------------------------------------
         1        2.0000           -0.7610484             -20.7092
       ...           ...                  ...                  ...
       127        2.0000           -0.4175896             -11.3632
       128        2.0000           -0.4162074             -11.3256
       129        2.0000           -0.4162014             -11.3254
       130        2.0000           -0.4161514             -11.3241
       131        2.0000           -0.4158717             -11.3164
       132        2.0000           -0.4152195             -11.2987
       133        2.0000           -0.4135321             -11.2528
       134        2.0000           -0.4127520             -11.2316
       135        2.0000           -0.3971997             -10.8084
       136        2.0000           -0.3971590             -10.8072
       137        1.5742           -0.3749072             -10.2017
       138        1.4258           -0.3743389             -10.1863
       139        0.4673           -0.2639957              -7.1837 (HOMO)
       140        0.4645           -0.2639849              -7.1834 (LUMO)
       141        0.0682           -0.2616356              -7.1195
       142                         -0.2478801              -6.7452
       143                         -0.2447817              -6.6608
       144                         -0.2446728              -6.6579
       145                         -0.2432436              -6.6190
       146                         -0.2405950              -6.5469
       147                         -0.2398398              -6.5264
       148                         -0.2397946              -6.5251
       149                         -0.2388860              -6.5004
       150                         -0.2368420              -6.4448
       ...                                ...                  ...
       272                          1.1524778              31.3605
      -------------------------------------------------------------
                  HL-Gap            0.0000108 Eh            0.0003 eV

     #   Z          covCN         q      C6AA      α(0)
     1   8 O        0.860    -0.590    25.876     6.820
     2  16 S        3.829     0.891   109.835    17.639
     3   8 O        0.860    -0.590    25.877     6.820
     4   6 C        2.970    -0.079    29.972     8.980
     5   6 C        2.958    -0.032    28.790     8.801
     6   6 C        2.920    -0.027    28.670     8.781
     7   6 C        2.919    -0.033    28.823     8.804
     8   6 C        2.920    -0.027    28.668     8.780
     9   6 C        2.957    -0.032    28.784     8.800
    10   6 C        2.967    -0.093    30.325     9.033
    11   6 C        2.956    -0.033    28.828     8.807
    12   6 C        2.917    -0.038    28.956     8.824
    13   6 C        2.928     0.034    27.242     8.560
    14   7 N        2.752     0.001    21.248     6.846
    15   6 C        2.927     0.059    26.671     8.469
    16   6 C        2.921    -0.044    29.086     8.844
    17   6 C        2.917    -0.024    28.601     8.770
    18   6 C        2.917    -0.027    28.673     8.781
    19   6 C        2.923    -0.029    28.726     8.789
    20   6 C        2.987     0.001    27.997     8.680
    21   6 C        3.927     0.014    20.284     6.401
    22   6 C        2.987     0.001    27.997     8.680
    23   6 C        2.923    -0.029    28.730     8.790
    24   6 C        2.917    -0.027    28.673     8.781
    25   6 C        2.917    -0.024    28.601     8.770
    26   6 C        2.921    -0.044    29.081     8.843
    27   6 C        2.927     0.060    26.666     8.469
    28   6 C        2.987     0.001    27.996     8.679
    29   6 C        2.923    -0.029    28.727     8.789
    30   6 C        2.917    -0.027    28.672     8.781
    31   6 C        2.917    -0.024    28.601     8.770
    32   6 C        2.921    -0.044    29.086     8.844
    33   6 C        2.927     0.059    26.672     8.470
    34   7 N        2.752     0.001    21.243     6.845
    35   6 C        2.928     0.034    27.244     8.560
    36   6 C        2.917    -0.038    28.956     8.824
    37   6 C        2.956    -0.033    28.827     8.806
    38   6 C        2.967    -0.093    30.325     9.033
    39  16 S        3.828     0.891   109.838    17.639
    40   8 O        0.860    -0.590    25.875     6.820
    41   8 O        0.860    -0.590    25.879     6.821
    42   6 C        2.970    -0.079    29.972     8.980
    43   6 C        2.958    -0.032    28.789     8.801
    44   6 C        2.920    -0.027    28.670     8.780
    45   6 C        2.919    -0.033    28.823     8.804
    46   6 C        2.920    -0.027    28.668     8.780
    47   6 C        2.957    -0.032    28.784     8.800
    48   6 C        2.956    -0.033    28.829     8.807
    49   6 C        2.917    -0.038    28.954     8.824
    50   6 C        2.927     0.059    26.667     8.469
    51   6 C        2.921    -0.044    29.081     8.843
    52   6 C        2.917    -0.024    28.601     8.770
    53   6 C        2.917    -0.027    28.672     8.781
    54   6 C        2.923    -0.029    28.730     8.790
    55   6 C        2.987     0.001    27.997     8.679
    56   6 C        2.917    -0.038    28.953     8.824
    57   6 C        2.955    -0.033    28.828     8.806
    58   1 H        0.926     0.043     2.415     2.430
    59   1 H        0.926     0.050     2.316     2.380
    60   1 H        0.926     0.051     2.313     2.379
    61   1 H        0.926     0.050     2.321     2.382
    62   1 H        0.926     0.043     2.414     2.430
    63   1 H        0.926     0.047     2.362     2.403
    64   1 H        0.926     0.055     2.257     2.349
    65   1 H        0.926     0.051     2.304     2.374
    66   1 H        0.926     0.052     2.297     2.370
    67   1 H        0.926     0.052     2.297     2.370
    68   1 H        0.926     0.046     2.374     2.409
    69   1 H        0.926     0.046     2.370     2.407
    70   1 H        0.926     0.052     2.300     2.372
    71   1 H        0.926     0.050     2.316     2.380
    72   1 H        0.926     0.050     2.317     2.380
    73   1 H        0.926     0.046     2.374     2.409
    74   1 H        0.926     0.052     2.297     2.370
    75   1 H        0.926     0.052     2.297     2.370
    76   1 H        0.926     0.051     2.303     2.373
    77   1 H        0.926     0.055     2.257     2.349
    78   1 H        0.926     0.047     2.361     2.403
    79   1 H        0.926     0.043     2.414     2.430
    80   1 H        0.926     0.050     2.317     2.380
    81   1 H        0.926     0.051     2.313     2.379
    82   1 H        0.926     0.050     2.320     2.382
    83   1 H        0.926     0.043     2.415     2.430
    84   1 H        0.926     0.047     2.360     2.402
    85   1 H        0.926     0.055     2.254     2.348
    86   1 H        0.926     0.050     2.316     2.380
    87   1 H        0.926     0.050     2.316     2.380
    88   1 H        0.926     0.052     2.300     2.371
    89   1 H        0.926     0.046     2.370     2.407
    90   1 H        0.926     0.055     2.254     2.348
    91   1 H        0.926     0.047     2.358     2.401

molecular dipole:
                 x           y           z       tot (Debye)
 q only:        0.003      -0.014       1.759
   full:        0.003      -0.013       1.625       4.131

 projected vibrational frequencies (cm⁻¹)
eigval :       -0.00    -0.00    -0.00     0.00     0.00     0.00
eigval :        3.23     5.76     8.13    11.97    16.18    16.48
eigval :       19.32    21.83    32.19    38.28    39.83    42.31
eigval :       44.45    45.62    52.59    70.93    72.58   100.12
eigval :      102.30   115.50   116.93   118.14   124.69   125.28
eigval :      142.88   144.37   147.34   169.44   180.61   181.86
eigval :      195.14   196.57   228.63   258.08   263.70   265.15
eigval :      267.32   283.60   289.61   296.39   306.68   309.77
eigval :      310.36   317.76   366.75   366.78   368.16   372.58
eigval :      374.30   377.94   378.40   388.40   391.74   398.19
eigval :      399.64   405.74   407.47   413.77   423.39   426.56
eigval :      443.90   444.88   449.18   452.80   465.28   472.25
eigval :      476.67   492.63   496.90   497.52   515.81   524.06
eigval :      524.64   525.90   581.46   582.68   584.31   584.64
eigval :      594.25   594.39   602.28   603.21   604.33   634.22
eigval :      643.06   643.72   645.32   648.66   654.35   666.65
eigval :      670.70   680.96   687.67   690.78   691.90   696.48
eigval :      723.49   737.06   739.68   745.15   767.99   768.95
eigval :      770.03   775.60   784.39   786.94   843.65   846.40
eigval :      860.53   867.85   868.94   870.33   870.35   870.66
eigval :      887.15   887.49   888.57   891.03   891.50   893.64
eigval :      895.20   902.46   904.41   906.43   907.10   909.07
eigval :      909.86   910.48   911.66   918.32   919.03   919.53
eigval :      920.39   922.27   923.06   923.63   923.91   934.49
eigval :      935.17   964.27   964.36   984.57   984.86  1039.46
eigval :     1048.81  1057.34  1064.59  1065.25  1069.43  1084.47
eigval :     1091.74  1092.54  1095.57  1095.60  1096.10  1103.59
eigval :     1103.90  1104.83  1114.40  1115.68  1119.86  1120.66
eigval :     1136.77  1168.61  1169.65  1169.79  1170.46  1172.67
eigval :     1173.54  1174.99  1175.85  1176.33  1176.76  1179.39
eigval :     1180.99  1181.79  1183.82  1208.84  1212.55  1216.25
eigval :     1217.40  1231.11  1232.24  1246.76  1251.65  1259.08
eigval :     1260.32  1260.66  1260.94  1299.78  1300.60  1301.73
eigval :     1304.45  1319.02  1319.43  1326.78  1326.81  1331.19
eigval :     1331.45  1336.58  1337.03  1382.66  1382.75  1405.89
eigval :     1406.23  1412.32  1412.57  1415.21  1416.68  1421.88
eigval :     1425.16  1425.22  1427.14  1429.21  1430.88  1442.88
eigval :     1444.23  1447.46  1463.26  1502.60  1519.45  1527.03
eigval :     1528.67  1528.91  1538.99  1539.65  1539.68  1541.59
eigval :     1556.80  1557.91  1558.05  1565.54  1586.56  3079.25
eigval :     3079.87  3082.32  3083.27  3087.85  3088.27  3089.35
eigval :     3089.70  3090.43  3090.44  3091.03  3091.20  3092.68
eigval :     3092.97  3093.51  3093.54  3094.12  3094.19  3097.67
eigval :     3098.05  3100.80  3101.27  3104.78  3105.10  3105.18
eigval :     3105.48  3106.00  3106.09  3107.41  3107.59  3112.37
eigval :     3112.67  3113.14  3113.35

   temp. (K)  partition function   enthalpy   heat capacity  entropy
                                   cal/mol     cal/K/mol   cal/K/mol   J/K/mol
 298.15  VIB  0.274E+26            28669.119    173.331    183.177
         ROT  0.784E+08              888.752      2.981     39.104
         INT  0.215E+34            29557.871    176.312    222.281
         TR   0.210E+29             1481.254      4.968     45.816
         TOT                       31039.1252   181.2798   268.0975  1121.7201

       T/K    H(0)-H(T)+PV         H(T)/Eh          T*S/Eh         G(T)/Eh
   ------------------------------------------------------------------------
    298.15    0.494640E-01    0.723145E+00    0.127382E+00    0.595763E+00
   ------------------------------------------------------------------------

         :::::::::::::::::::::::::::::::::::::::::::::::::::::
         ::                  THERMODYNAMIC                  ::
         :::::::::::::::::::::::::::::::::::::::::::::::::::::
         :: total free energy        -150.235324529333 Eh   ::
         ::.................................................::
         :: total energy             -150.831087958781 Eh   ::
         :: zero point energy           0.673681222974 Eh   ::
         :: G(RRHO) w/o ZPVE           -0.077917793526 Eh   ::
         :: G(RRHO) contrib.            0.595763429448 Eh   ::
         :::::::::::::::::::::::::::::::::::::::::::::::::::::

           -------------------------------------------------
          | TOTAL ENERGY             -150.831087958781 Eh   |
          | TOTAL ENTHALPY           -150.107942741315 Eh   |
          | TOTAL FREE ENERGY        -150.235324529333 Eh   |
          | GRADIENT NORM               0.000146760999 Eh/α |
          | HOMO-LUMO GAP               0.000295242292 eV   |
           -------------------------------------------------

 * finished run on 2025/09/09 at 10:54:04.139
