   * xtb version 6.7.1 (edcfbbe) compiled by 'albert@albert-system' on 2024-07-22

   ID    Z sym.   atoms
    1    8 O      1, 3, 40, 41
    2   16 S      2, 39
    3    6 C      4-13, 15-33, 35-38, 42-57
    4    7 N      14, 34
    5    1 H      58-91

          program call               : xtb data2507/toluene/SBA-2DPS/SBA-2DPS_toluene_S0_finalOpt.xtbopt.xyz --gfn 2 --uhf 2 --gbsa toluene --ohess vtight --parallel 40 --molden --ceasefiles --namespace data2507/toluene/SBA-2DPS/SBA-2DPS_toluene_T1_preOpt
      * Solvation model:               GBSA
        Solvent                        toluene
        Solvent mass                       9.2140E+01 g/mol
          :  Hamiltonian                  GFN2-xTB          :
 * total energy  :  -150.8261200 Eh     change       -0.1212914E-07 Eh
 * total energy  :  -150.8284941 Eh     change       -0.2374086E-02 Eh
 * total energy  :  -150.8291023 Eh     change       -0.6082159E-03 Eh
 * total energy  :  -150.8291993 Eh     change       -0.9702623E-04 Eh
 * total energy  :  -150.8292655 Eh     change       -0.6619504E-04 Eh
 * total energy  :  -150.8293062 Eh     change       -0.4070512E-04 Eh
 * total energy  :  -150.8293822 Eh     change       -0.7600167E-04 Eh
 * total energy  :  -150.8294752 Eh     change       -0.9303075E-04 Eh
 * total energy  :  -150.8295862 Eh     change       -0.1109145E-03 Eh
 * total energy  :  -150.8297054 Eh     change       -0.1192346E-03 Eh
 * total energy  :  -150.8311034 Eh     change       -0.3033732E-06 Eh
 * total energy  :  -150.8311040 Eh     change       -0.5223627E-06 Eh
 * total energy  :  -150.8311043 Eh     change       -0.3648821E-06 Eh
 * total energy  :  -150.8311048 Eh     change       -0.4332490E-06 Eh
 * total energy  :  -150.8311053 Eh     change       -0.5702644E-06 Eh
 * total energy  :  -150.8311058 Eh     change       -0.4438363E-06 Eh
 * total energy  :  -150.8311060 Eh     change       -0.2785798E-06 Eh
 * total energy  :  -150.8311063 Eh     change       -0.2087538E-06 Eh
 * total energy  :  -150.8311063 Eh     change       -0.1064657E-07 Eh
   *** GEOMETRY OPTIMIZATION CONVERGED AFTER 102 ITERATIONS ***

 final structure:
================
91
 xtb: 6.7.1 (edcfbbe)
O            9.12985925549916       -2.18192759640893        1.08496097241376
S            8.78589352205536       -1.19245129901187        0.07746549076347
O            9.34176576015655       -1.38841904393779       -1.25098199390438
C            9.25682093717020        0.42201714516650        0.66896570180255
C            9.24684971297271        0.67453928656077        2.03339596131585
C            9.51359081653216        1.95192035033373        2.48829449186803
C            9.77821134975459        2.97171635220118        1.58218664752162
C            9.78174546515128        2.71033276827442        0.21745985693018
C            9.51510019095282        1.43497821829217       -0.24342140876254
C            7.02348944428927       -1.08438263176926       -0.04597719188248
C            6.44454377503685       -0.59590395004872       -1.21962679379126
C            5.08534809413660       -0.40482452784037       -1.28314271374260
C            4.28920738298282       -0.68700081960526       -0.16362434106446
N            2.87921942379468       -0.49299923055742       -0.22783509152218
C            2.33694416513009        0.65203874096774        0.31536115276179
C            3.17243704683061        1.61970379545902        0.89640728961071
C            2.64336585141474        2.76206516359013        1.45240696472080
C            1.26968605850557        2.97601409534264        1.43981528586146
C            0.43984337048635        2.03709178800765        0.85484255913045
C            0.95096402888575        0.87881982284850        0.29019190179108
C           -0.00989648157117       -0.10129367516307       -0.34924199670805
C            0.70466366363008       -1.31199847285871       -0.91303357703967
C           -0.04839896188803       -2.30259489359446       -1.52420076596445
C            0.54716967471171       -3.43513617780254       -2.04845722003956
C            1.92541545969091       -3.59026379193251       -1.95238808791599
C            2.69211597870981       -2.62007833303780       -1.34835020684586
C            2.09875703877821       -1.45975975087840       -0.82521855814308
C           -0.98057144173486       -0.58500580553369        0.70741523150923
C           -0.47830946889223       -1.25228466659622        1.81386045350428
C           -1.31726561708444       -1.73761760131546        2.80030472579254
C           -2.69114680472823       -1.56510071349673        2.67547376595260
C           -3.21129172089457       -0.90483939609795        1.58577317142657
C           -2.36672490043248       -0.39134555908339        0.58803311485439
N           -2.89991585740396        0.27855840686056       -0.49268293264469
C           -4.31021841188837        0.46489905544721       -0.56068044626933
C           -5.08537723721447       -0.35776345233426       -1.39120211679442
C           -6.44646282679771       -0.18002496547494       -1.44968857270841
C           -7.04902169540159        0.82819462449858       -0.69311943681114
S           -8.81421456507167        0.94517662975832       -0.64534543308244
O           -9.35776787402093        0.43299849620348       -1.89210811240739
O           -9.19078996613557        2.29844089870309       -0.27226391761723
C           -9.25493466599748       -0.16479155002869        0.67814743026457
C           -9.25850816306551        0.30275943615391        1.98471770122348
C           -9.49369936214058       -0.58149261787620        3.02034327502311
C           -9.71417238543965       -1.92668729738412        2.75019159376792
C           -9.70460192382423       -2.38653400593039        1.43893323105435
C           -9.46943975018782       -1.50702525276850        0.39917095037686
C           -6.28062740850725        1.64854053370993        0.13685405662270
C           -4.91949608244625        1.47304844671314        0.20075354639388
C           -2.10940597461356        0.77714794161223       -1.50624183933786
C           -2.69242830167648        1.47576143565332       -2.57598827184664
C           -1.91583268815381        1.97178852994706       -3.59819864967876
C           -0.53757020785156        1.79036525929929       -3.58252008529241
C            0.04820276540600        1.11878890479553       -2.52506707555483
C           -0.71472258251189        0.61067371748418       -1.48505046018990
C            4.87538757727879       -1.16817508568175        1.01591543581207
C            6.23466647718794       -1.36119060002288        1.07334673770195
H            9.05172241648673       -0.14317795921943        2.70976440999836
H            9.51836088835738        2.15564940466382        3.54869595089351
H            9.98795504219315        3.96833865002344        1.93974366105756
H            9.99437766534711        3.50284894639013       -0.48448829433745
H            9.52259829490676        1.19443401485985       -1.29528906786656
H            7.08560221644642       -0.39857986054919       -2.06376994179389
H            4.62261477769944       -0.03950348136726       -2.18728815635908
H            4.23913109259808        1.46134998381314        0.90045853524945
H            3.30234986301156        3.49261790689896        1.89552915944769
H            0.85277630875167        3.86928756347449        1.87761952492832
H           -0.62663331657810        2.20245862027141        0.83194562857445
H           -1.11908900831572       -2.18069614020139       -1.58788078667430
H           -0.05503874104539       -4.19371929363669       -2.52312513750559
H            2.40108623894620       -4.47379606564001       -2.34934633617291
H            3.75988884148204       -2.74855394067358       -1.26939872261152
H            0.58851456415609       -1.39380381920115        1.89814570490270
H           -0.90741728361537       -2.25102883804957        3.65576637871045
H           -3.35741685146339       -1.95102630418115        3.43141114599171
H           -4.27817549383112       -0.78136777800158        1.48906004252430
H           -4.60507943211555       -1.12633444750179       -1.97751862982680
H           -7.07172323770607       -0.78873331933084       -2.08294214720916
H           -9.09730917289204        1.35541696043541        2.15847055600310
H           -9.50830065834744       -0.22498774521317        4.03951292813406
H           -9.89890582141124       -2.61513883100243        3.56080499514995
H           -9.88316380566464       -3.43089220168973        1.23039435170818
H           -9.46796995897456       -1.82782132723657       -0.63107260322859
H           -6.77991556898851        2.42285407639238        0.69685207232081
H           -4.31172420811426        2.10598967477921        0.82938296563706
H           -3.76009369042403        1.62663038861354       -2.58853578870689
H           -2.38413227676741        2.50433565777173       -4.41156408432300
H            0.07224563040013        2.17539472707618       -4.38454257515675
H            1.11900852978433        0.98456863305000       -2.50145483854289
H            4.25185155272351       -1.38797962240168        1.86912832933349
H            6.71615086814761       -1.74584568491840        1.95799217573302

          :  Hamiltonian                  GFN2-xTB          :
         :: gradient norm              0.000113306149 Eh/a0 ::
         :: HOMO-LUMO gap              0.000660516658 eV    ::
         :: SCC energy              -153.351499149980 Eh    ::
         :: -> dispersion             -0.141290280638 Eh    ::
         :: -> Gsolv                  -0.089363521992 Eh    ::
         :: repulsion energy           2.520392883448 Eh    ::

    * Orbital Energies and Occupations

         #    Occupation            Energy/Eh            Energy/eV
      -------------------------------------------------------------
         1        2.0000           -0.7611029             -20.7107
       ...           ...                  ...                  ...
       127        2.0000           -0.4176879             -11.3659
       128        2.0000           -0.4162495             -11.3267
       129        2.0000           -0.4161073             -11.3229
       130        2.0000           -0.4160888             -11.3224
       131        2.0000           -0.4159533             -11.3187
       132        2.0000           -0.4152667             -11.3000
       133        2.0000           -0.4134450             -11.2504
       134        2.0000           -0.4127686             -11.2320
       135        2.0000           -0.3972396             -10.8094
       136        2.0000           -0.3970846             -10.8052
       137        1.5606           -0.3749619             -10.2032
       138        1.4394           -0.3744989             -10.1906
       139        0.4678           -0.2640285              -7.1846 (HOMO)
       140        0.4617           -0.2640050              -7.1839 (LUMO)
       141        0.0705           -0.2617010              -7.1212
       142                         -0.2479262              -6.7464
       143                         -0.2448146              -6.6617
       144                         -0.2447272              -6.6594
       145                         -0.2432734              -6.6198
       146                         -0.2406640              -6.5488
       147                         -0.2398209              -6.5259
       148                         -0.2395650              -6.5189
       149                         -0.2389983              -6.5035
       150                         -0.2369258              -6.4471
       ...                                ...                  ...
       272                          1.1528945              31.3719
      -------------------------------------------------------------
                  HL-Gap            0.0000235 Eh            0.0006 eV

     #   Z          covCN         q      C6AA      α(0)
     1   8 O        0.860    -0.590    25.878     6.820
     2  16 S        3.829     0.891   109.833    17.639
     3   8 O        0.860    -0.590    25.874     6.820
     4   6 C        2.970    -0.079    29.973     8.980
     5   6 C        2.958    -0.032    28.790     8.801
     6   6 C        2.920    -0.027    28.669     8.780
     7   6 C        2.919    -0.033    28.823     8.804
     8   6 C        2.920    -0.027    28.668     8.780
     9   6 C        2.957    -0.032    28.784     8.800
    10   6 C        2.967    -0.093    30.322     9.032
    11   6 C        2.956    -0.033    28.826     8.806
    12   6 C        2.917    -0.038    28.955     8.824
    13   6 C        2.928     0.034    27.239     8.559
    14   7 N        2.753     0.001    21.253     6.847
    15   6 C        2.927     0.059    26.669     8.469
    16   6 C        2.921    -0.044    29.084     8.844
    17   6 C        2.917    -0.024    28.600     8.770
    18   6 C        2.917    -0.027    28.672     8.781
    19   6 C        2.923    -0.029    28.725     8.789
    20   6 C        2.987     0.001    27.998     8.680
    21   6 C        3.927     0.014    20.284     6.401
    22   6 C        2.987     0.001    27.998     8.680
    23   6 C        2.923    -0.029    28.729     8.790
    24   6 C        2.917    -0.027    28.672     8.781
    25   6 C        2.917    -0.024    28.601     8.770
    26   6 C        2.921    -0.043    29.078     8.843
    27   6 C        2.927     0.060    26.664     8.468
    28   6 C        2.987     0.001    27.996     8.679
    29   6 C        2.923    -0.029    28.726     8.789
    30   6 C        2.917    -0.027    28.671     8.781
    31   6 C        2.917    -0.024    28.601     8.770
    32   6 C        2.921    -0.044    29.083     8.844
    33   6 C        2.927     0.059    26.672     8.469
    34   7 N        2.752     0.001    21.242     6.845
    35   6 C        2.928     0.034    27.246     8.560
    36   6 C        2.917    -0.038    28.956     8.824
    37   6 C        2.956    -0.033    28.831     8.807
    38   6 C        2.967    -0.093    30.330     9.033
    39  16 S        3.829     0.891   109.836    17.639
    40   8 O        0.860    -0.590    25.875     6.820
    41   8 O        0.860    -0.590    25.874     6.820
    42   6 C        2.970    -0.079    29.978     8.981
    43   6 C        2.958    -0.032    28.793     8.801
    44   6 C        2.920    -0.027    28.671     8.781
    45   6 C        2.919    -0.033    28.827     8.805
    46   6 C        2.920    -0.027    28.669     8.780
    47   6 C        2.957    -0.032    28.788     8.800
    48   6 C        2.956    -0.033    28.831     8.807
    49   6 C        2.917    -0.038    28.953     8.824
    50   6 C        2.927     0.060    26.666     8.469
    51   6 C        2.921    -0.043    29.078     8.843
    52   6 C        2.917    -0.024    28.600     8.770
    53   6 C        2.917    -0.027    28.671     8.781
    54   6 C        2.923    -0.029    28.729     8.790
    55   6 C        2.987     0.001    27.996     8.679
    56   6 C        2.917    -0.038    28.952     8.823
    57   6 C        2.955    -0.033    28.827     8.806
    58   1 H        0.926     0.043     2.415     2.430
    59   1 H        0.926     0.050     2.316     2.380
    60   1 H        0.926     0.051     2.313     2.378
    61   1 H        0.926     0.050     2.320     2.382
    62   1 H        0.926     0.043     2.414     2.430
    63   1 H        0.926     0.047     2.359     2.402
    64   1 H        0.926     0.055     2.257     2.349
    65   1 H        0.926     0.051     2.306     2.375
    66   1 H        0.926     0.052     2.297     2.370
    67   1 H        0.926     0.052     2.297     2.370
    68   1 H        0.926     0.046     2.373     2.409
    69   1 H        0.926     0.046     2.370     2.407
    70   1 H        0.926     0.052     2.300     2.371
    71   1 H        0.926     0.050     2.316     2.380
    72   1 H        0.926     0.050     2.319     2.381
    73   1 H        0.926     0.046     2.373     2.409
    74   1 H        0.926     0.052     2.296     2.369
    75   1 H        0.926     0.052     2.296     2.370
    76   1 H        0.926     0.051     2.305     2.374
    77   1 H        0.926     0.055     2.258     2.350
    78   1 H        0.926     0.047     2.362     2.404
    79   1 H        0.926     0.042     2.417     2.431
    80   1 H        0.926     0.050     2.318     2.381
    81   1 H        0.926     0.050     2.315     2.379
    82   1 H        0.926     0.050     2.322     2.383
    83   1 H        0.926     0.042     2.417     2.431
    84   1 H        0.926     0.047     2.360     2.402
    85   1 H        0.926     0.055     2.255     2.348
    86   1 H        0.926     0.050     2.315     2.380
    87   1 H        0.926     0.050     2.315     2.379
    88   1 H        0.926     0.052     2.299     2.371
    89   1 H        0.926     0.046     2.369     2.407
    90   1 H        0.926     0.055     2.254     2.348
    91   1 H        0.926     0.047     2.358     2.401

molecular dipole:
                 x           y           z       tot (Debye)
 q only:        0.081       0.545       1.753
   full:        0.078       0.504       1.619       4.315

 projected vibrational frequencies (cm⁻¹)
eigval :       -0.00    -0.00     0.00     0.00     0.00     0.00
eigval :       -2.71     7.39     8.27    10.66    15.32    17.02
eigval :       27.20    30.52    35.21    38.05    39.84    42.17
eigval :       44.11    46.17    50.43    71.55    74.40    99.89
eigval :      102.88   114.70   116.25   118.34   123.28   123.76
eigval :      141.44   143.77   146.99   169.25   180.16   181.34
eigval :      194.64   195.72   229.16   259.01   263.91   265.28
eigval :      266.77   283.27   289.29   296.53   306.70   308.78
eigval :      310.31   317.32   365.45   366.84   368.20   373.75
eigval :      374.16   377.40   378.84   388.83   391.59   397.97
eigval :      399.46   405.86   407.58   414.56   423.85   426.12
eigval :      444.46   444.79   448.75   452.81   466.25   471.95
eigval :      477.36   492.73   497.00   497.80   515.23   523.97
eigval :      524.63   525.58   581.87   582.86   584.24   584.27
eigval :      594.47   594.51   602.14   603.11   604.55   634.43
eigval :      643.07   643.93   645.36   648.68   654.53   666.75
eigval :      670.74   681.01   687.66   690.92   691.89   696.56
eigval :      723.77   737.02   740.29   745.34   768.11   769.07
eigval :      770.69   775.99   784.25   784.80   843.16   843.82
eigval :      859.92   867.52   868.48   870.45   871.02   873.59
eigval :      885.69   887.73   888.61   890.55   891.37   893.28
eigval :      893.54   901.76   903.33   906.49   907.32   909.04
eigval :      910.99   911.48   912.01   918.12   919.87   920.06
eigval :      922.51   923.27   923.44   925.43   925.90   934.57
eigval :      935.26   963.91   964.21   984.90   985.27  1040.03
eigval :     1048.73  1057.35  1063.86  1064.52  1069.24  1084.00
eigval :     1091.31  1092.62  1095.61  1095.69  1096.33  1101.74
eigval :     1103.14  1103.62  1113.13  1114.93  1120.66  1121.25
eigval :     1137.45  1168.17  1169.74  1170.03  1170.05  1172.61
eigval :     1175.04  1175.11  1176.32  1177.58  1177.91  1178.93
eigval :     1179.45  1180.65  1184.18  1209.35  1212.48  1217.00
eigval :     1217.92  1230.15  1231.40  1246.58  1252.11  1259.03
eigval :     1259.23  1260.31  1260.77  1300.08  1301.74  1303.19
eigval :     1305.17  1317.94  1318.78  1326.69  1326.79  1331.20
eigval :     1331.44  1336.61  1337.05  1383.02  1383.25  1406.48
eigval :     1406.97  1411.53  1412.36  1415.04  1416.39  1422.16
eigval :     1424.81  1425.73  1427.58  1428.45  1430.39  1442.89
eigval :     1444.14  1446.94  1463.98  1502.98  1520.05  1526.87
eigval :     1528.40  1528.86  1538.82  1539.36  1539.47  1541.54
eigval :     1557.41  1557.66  1559.25  1565.32  1586.44  3078.95
eigval :     3079.54  3081.65  3082.32  3087.93  3087.96  3089.38
eigval :     3089.61  3090.78  3090.98  3091.07  3091.57  3092.32
eigval :     3092.41  3093.97  3094.17  3094.27  3094.88  3096.96
eigval :     3097.20  3100.11  3100.20  3104.03  3104.79  3105.19
eigval :     3105.51  3105.60  3105.84  3106.87  3107.60  3109.80
eigval :     3112.41  3112.41  3112.82

   temp. (K)  partition function   enthalpy   heat capacity  entropy
                                   cal/mol     cal/K/mol   cal/K/mol   J/K/mol
 298.15  VIB  0.147E+26            28651.100    173.496    182.849
         ROT  0.157E+09              888.752      2.981     40.480
         INT  0.231E+34            29539.852    176.477    223.329
         TR   0.210E+29             1481.254      4.968     45.816
         TOT                       31021.1063   181.4448   269.1455  1126.1048

       T/K    H(0)-H(T)+PV         H(T)/Eh          T*S/Eh         G(T)/Eh
   ------------------------------------------------------------------------
    298.15    0.494353E-01    0.723130E+00    0.127880E+00    0.595251E+00
   ------------------------------------------------------------------------

         :::::::::::::::::::::::::::::::::::::::::::::::::::::
         ::                  THERMODYNAMIC                  ::
         :::::::::::::::::::::::::::::::::::::::::::::::::::::
         :: total free energy        -150.235855713519 Eh   ::
         ::.................................................::
         :: total energy             -150.831106268814 Eh   ::
         :: zero point energy           0.673694987257 Eh   ::
         :: G(RRHO) w/o ZPVE           -0.078444431963 Eh   ::
         :: G(RRHO) contrib.            0.595250555294 Eh   ::
         :::::::::::::::::::::::::::::::::::::::::::::::::::::

           -------------------------------------------------
          | TOTAL ENERGY             -150.831106268814 Eh   |
          | TOTAL ENTHALPY           -150.107976001927 Eh   |
          | TOTAL FREE ENERGY        -150.235855713519 Eh   |
          | GRADIENT NORM               0.000112563263 Eh/α |
          | HOMO-LUMO GAP               0.000638998380 eV   |
           -------------------------------------------------

 * finished run on 2025/09/09 at 10:33:24.461
