   * xtb version 6.7.1 (edcfbbe) compiled by 'albert@albert-system' on 2024-07-22

   ID    Z sym.   atoms
    1    6 C      1-8, 10-19, 21-30, 32-44, 46-70
    2    7 N      9, 31, 45
    3    5 B      20
    4    1 H      71-146

          program call               : xtb data2507/toluene/TBN-TPA/TBN-TPA_toluene_T1_crest.xyz --gfn 2 --uhf 2 --gbsa toluene --ohess vtight --parallel 40 --molden --ceasefiles --namespace data2507/toluene/TBN-TPA/TBN-TPA_toluene_T1_finalOpt
      * Solvation model:               GBSA
        Solvent                        toluene
        Solvent mass                       9.2140E+01 g/mol
          :  Hamiltonian                  GFN2-xTB          :
 * total energy  :  -190.2769400 Eh     change       -0.3635591E-08 Eh
 * total energy  :  -190.2770718 Eh     change       -0.1318312E-03 Eh
 * total energy  :  -190.2771970 Eh     change       -0.1251010E-03 Eh
 * total energy  :  -190.2772598 Eh     change       -0.6283654E-04 Eh
 * total energy  :  -190.2773580 Eh     change       -0.9820063E-04 Eh
 * total energy  :  -190.2774660 Eh     change       -0.1080349E-03 Eh
 * total energy  :  -190.2775996 Eh     change       -0.1335574E-03 Eh
 * total energy  :  -190.2776654 Eh     change       -0.6577623E-04 Eh
 * total energy  :  -190.2777549 Eh     change       -0.8950036E-04 Eh
 * total energy  :  -190.2778516 Eh     change       -0.9669802E-04 Eh
 * total energy  :  -190.2793339 Eh     change        0.6588493E-08 Eh
 * total energy  :  -190.2793341 Eh     change       -0.2001937E-06 Eh
 * total energy  :  -190.2793343 Eh     change       -0.2515480E-06 Eh
 * total energy  :  -190.2793345 Eh     change       -0.2113446E-06 Eh
 * total energy  :  -190.2793352 Eh     change       -0.6970822E-06 Eh
 * total energy  :  -190.2793358 Eh     change       -0.5550001E-06 Eh
 * total energy  :  -190.2793363 Eh     change       -0.4816446E-06 Eh
 * total energy  :  -190.2793366 Eh     change       -0.3461552E-06 Eh
 * total energy  :  -190.2793367 Eh     change       -0.6766828E-07 Eh
   *** GEOMETRY OPTIMIZATION CONVERGED AFTER 105 ITERATIONS ***

 final structure:
================
146
 xtb: 6.7.1 (edcfbbe)
C           -2.82574327626989       -6.88348630476283        1.22579450928737
C           -1.53245393391649       -7.18101577633538        0.45226835724746
C           -0.73696490694869       -8.28332057331073        1.16756345013069
C           -1.91295615125801       -7.69584551363730       -0.93902298264057
C           -0.69178949256637       -5.91509383398268        0.39857694494604
C           -0.24707096722827       -5.33522355009340        1.58627441997444
C            0.51983908711532       -4.18731656516047        1.59039305744052
C            0.86556682370824       -3.57912458926496        0.38948106612489
N            1.64270117919920       -2.38602407099435        0.36500349002384
C            3.01065354153331       -2.47841696351230        0.53448139980380
C            3.57860095154608       -3.72653560546108        0.80367648183758
C            4.93023405651677       -3.85139764899255        1.06625010638654
C            5.76286454784673       -2.72853320118980        1.09409855961301
C            7.23114617636791       -2.90276820876001        1.44662633425657
C            7.88370647858241       -3.84920138435450        0.42697944644761
C            7.33761975002524       -3.50667639774669        2.85548583062332
C            8.00826285583060       -1.58344908897405        1.43405015882577
C            5.19634627440488       -1.50307782143676        0.77677746486737
C            3.84553429624038       -1.32830447150557        0.43412498419349
B            3.20490472671221       -0.00138697900411       -0.00959102869015
C            3.84325465056498        1.32547108847356       -0.45658854362048
C            5.19282699321267        1.50060719775123       -0.80382788300457
C            5.75712540918471        2.72560456805145       -1.12687540691258
C            7.22435985937677        2.90028123833982       -1.48346406568126
C            8.00333013276299        1.58210221703452       -1.46672592436161
C            7.32712742845110        3.49820873233959       -2.89513539737175
C            7.87765383166206        3.85201067159773       -0.46921538676731
C            4.92318660929116        3.84755619685625       -1.10149976738563
C            3.57259896294145        3.72218054966009       -0.83393812292578
C            3.00713232407874        2.47467730260907       -0.55671163041586
N            1.64018971206863        2.38239397326447       -0.37961812919531
C            0.86257145656257        3.57531764159788       -0.40889978357638
C            0.50293237547505        4.16881252921443       -1.61298974295131
C           -0.26520127219194        5.31595445759841       -1.61390657176218
C           -0.69775976718577        5.90900893163347       -0.42827721898969
C           -1.54142175958701        7.17269768750335       -0.48765223649117
C           -0.75418910580390        8.26889239905214       -1.22121068631475
C           -2.84082835755850        6.86490212162499       -1.24680386626441
C           -1.91098080436927        7.70096291122096        0.90153667492337
C           -0.33012239039501        5.29990744893929        0.76620477721275
C            0.43805120480151        4.14886598906733        0.78061835304139
C            0.95638091111437        1.18816862831820       -0.19706081217702
C           -0.43611911039254        1.18486651957572       -0.22343362649414
C           -1.14046145099404       -0.00070401855106        0.01024916567984
N           -2.53935955172800        0.00049966321545        0.01952432307913
C           -3.35752672071260       -0.90906046184019       -0.62324579073973
C           -3.04115371810370       -1.98192823694743       -1.44301002144926
C           -4.07583632077435       -2.71837719191333       -1.98341207200009
C           -5.42762571836858       -2.42487480754465       -1.74473804201621
C           -6.49717079184430       -3.29285664390579       -2.39496861260287
C           -7.91776793687348       -2.85386666374611       -2.02562688616094
C           -6.35434722509216       -3.20552443773333       -3.92212329040963
C           -6.31821407529128       -4.74889617384820       -1.94056370504847
C           -5.73313208349935       -1.34081019745767       -0.93990445771498
C           -4.71148500034923       -0.57895722179888       -0.38395188324970
C           -4.70452890111451        0.58910553130353        0.44656177406736
C           -5.71679367190734        1.35562824128894        1.01314483364755
C           -5.39794355288139        2.43844144696846        1.81449620379896
C           -6.45683990148426        3.31162887989614        2.47512314801004
C           -7.88306420233177        2.88085563544394        2.11796777151215
C           -6.30109255062692        3.22204273136763        4.00088153453085
C           -6.27415438350279        4.76716438798869        2.02058111865777
C           -4.04240014811410        2.72544491161454        2.03948038418934
C           -3.01683634774075        1.98433996161668        1.48817433761793
C           -3.34669087641577        0.91332610933756        0.67129406677780
C           -0.43440067008606       -1.18688592459127        0.23462019871967
C            0.95771604900506       -1.19086545783424        0.19208373664515
C            1.69241045000731       -0.00143007605613       -0.00537129131761
C            0.42758197121450       -4.13871987298528       -0.80190414294358
C           -0.33880326304459       -5.29093345780157       -0.79258274183042
H           -2.61678077064506       -6.59179812924413        2.25149005690844
H           -3.37302943825594       -6.07394207018605        0.74662289584836
H           -3.46113547759476       -7.76629027916053        1.24540668792406
H           -0.49661937396111       -8.00289950567714        2.18929467670553
H            0.19413162093544       -8.47913426688768        0.63899105273076
H           -1.31749764806948       -9.20292088475488        1.19547809509160
H           -2.50742625522443       -8.60170320953679       -0.83911376879205
H           -1.02785621505719       -7.93825851233763       -1.52304600752194
H           -2.50819279063254       -6.96302593082697       -1.47812294397952
H           -0.50212898538332       -5.78188526132070        2.53496334801542
H            0.85440217580999       -3.75327135152108        2.52157881669955
H            2.96271673609625       -4.61318080310281        0.81950132798624
H            5.32302143335945       -4.83615267029118        1.26848569046045
H            8.94214963251545       -3.96869166732885        0.65039796598377
H            7.78564933322950       -3.44287222413232       -0.57808514143521
H            7.41945619498852       -4.83157891217292        0.44359165518551
H            8.38280557965803       -3.63825399841325        3.12910529833547
H            6.84634676760910       -4.47448859066989        2.90992986927895
H            6.87012120669183       -2.84576727379270        3.58315383631713
H            7.99855518644049       -1.13853796681847        0.44205008788669
H            7.59218871552262       -0.87578450349026        2.14783241988879
H            9.04513561993337       -1.76961092505953        1.70863191657263
H            5.80556086150847       -0.61696276174082        0.79726260405167
H            5.80287739424787        0.61505614315312       -0.82343405242191
H            9.03948245126895        1.76854499935055       -1.74381879376469
H            7.58704113019924        0.87095063235881       -2.17690936707222
H            7.99588339711659        1.14127823452020       -0.47287295887976
H            6.86019493441519        2.83291574473458       -3.61916392534934
H            6.83331966759555        4.46452135726148       -2.95310988110321
H            8.37156480996227        3.63118137858858       -3.17094329048482
H            7.78156411586956        3.45020678248437        0.53786246763332
H            8.93562211890439        3.97147741684622       -0.69487116878594
H            7.41244610376265        4.83386116620824       -0.48960681434128
H            5.31409881292862        4.83189367708405       -1.30935657204365
H            2.95547123306197        4.60795069754351       -0.85154704959865
H            0.82760643580188        3.72418054237844       -2.54268736793979
H           -0.53116831617654        5.75124205054297       -2.56487799378593
H           -0.52109694574710        7.97764020793423       -2.24160083345374
H           -1.33709469748546        9.18679830668146       -1.25472378504037
H            0.18052474367635        8.47270707904475       -0.70213650956964
H           -3.38149849171459        6.05808152759786       -0.75566147760264
H           -2.64043318843537        6.56494622390227       -2.27180854781966
H           -3.47883693053965        7.74577132662432       -1.26829581200515
H           -1.02147970403636        7.95176781877674        1.47523006652187
H           -2.50869750424322        8.60421337047524        0.79752149274231
H           -2.49947497492096        6.97212107596921        1.45329502487614
H           -0.63732227064355        5.71420015060136        1.71203542056232
H            0.71623447083823        3.68946308612720        1.71841682508485
H           -0.99141307267251        2.08584747410421       -0.43029428056995
H           -2.01546655689395       -2.23276003344257       -1.66883209524127
H           -3.81977209020620       -3.54981835166184       -2.62274611334231
H           -8.07755417705127       -2.91093284522887       -0.95107460087112
H           -8.63794859462409       -3.51197598789632       -2.50845217650595
H           -8.11369880744648       -1.83820181806908       -2.36215288273702
H           -6.46081093264142       -2.17325577763713       -4.25049690573750
H           -5.38391941075534       -3.56781163639793       -4.25044847012398
H           -7.12380893541289       -3.80382870638665       -4.40612853751738
H           -5.35163573076701       -5.14096211464338       -2.24341372308329
H           -6.39203679993685       -4.81577506859538       -0.85677293692551
H           -7.09158099342773       -5.37665566940603       -2.37893819676490
H           -6.75292466506113       -1.06098637020222       -0.73316515870675
H           -6.73996455505509        1.08043183084039        0.81719732280826
H           -8.08208481265354        1.86638702425117        2.45627821948889
H           -8.05173180550121        2.93879412089650        1.04481413183497
H           -8.59512932009371        3.54323032365828        2.60693375128055
H           -5.32637020293450        3.57990761997631        4.32123901767653
H           -7.06381850140980        3.82309706430198        4.49211144872618
H           -6.40913269727833        2.18990392907713        4.32915252685940
H           -5.30273716094380        5.15374390527764        2.31488377653770
H           -7.04007451097371        5.39858768837132        2.46670972906342
H           -6.35769265073922        4.83559262820870        0.93760347991329
H           -3.77580391320358        3.55541482234164        2.67644131853363
H           -1.98767254041307        2.23010570658541        1.70353527078443
H           -0.98751666622882       -2.08765733429358        0.44818377256236
H            0.69427643419358       -3.66764705355854       -1.73725871036439
H           -0.65606585609184       -5.69434537252993       -1.73980475790035

          :  Hamiltonian                  GFN2-xTB          :
         :: gradient norm              0.000073686872 Eh/a0 ::
         :: HOMO-LUMO gap              0.353015869143 eV    ::
         :: SCC energy              -193.538529748533 Eh    ::
         :: -> dispersion             -0.192108137988 Eh    ::
         :: -> Gsolv                  -0.069889558722 Eh    ::
         :: repulsion energy           3.259192883354 Eh    ::

    * Orbital Energies and Occupations

         #    Occupation            Energy/Eh            Energy/eV
      -------------------------------------------------------------
         1        2.0000           -0.6654908             -18.1089
       ...           ...                  ...                  ...
       168        2.0000           -0.3967337             -10.7957
       169        2.0000           -0.3930242             -10.6947
       170        2.0000           -0.3921967             -10.6722
       171        2.0000           -0.3902288             -10.6187
       172        2.0000           -0.3837979             -10.4437
       173        2.0000           -0.3817325             -10.3875
       174        2.0000           -0.3695969             -10.0572
       175        2.0000           -0.3678362             -10.0093
       176        2.0000           -0.3656058              -9.9486
       177        2.0000           -0.3559363              -9.6855
       178        1.9625           -0.3493077              -9.5051
       179        1.0375           -0.3431428              -9.3374
       180        0.9989           -0.2474172              -6.7326 (HOMO)
       181        0.0011           -0.2344443              -6.3796 (LUMO)
       182        0.0000           -0.2305432              -6.2734
       183        0.0000           -0.2290374              -6.2324
       184        0.0000           -0.2280282              -6.2050
       185        0.0000           -0.2279410              -6.2026
       186                         -0.2198409              -5.9822
       187                         -0.2150211              -5.8510
       188                         -0.2108132              -5.7365
       189                         -0.2027132              -5.5161
       190                         -0.1960933              -5.3360
       191                         -0.1785686              -4.8591
       ...                                ...                  ...
       356                          0.7488843              20.3782
      -------------------------------------------------------------
                  HL-Gap            0.0129730 Eh            0.3530 eV

     #   Z          covCN         q      C6AA      α(0)
     1   6 C        3.761    -0.106    22.566     6.772
     2   6 C        3.902     0.026    20.074     6.369
     3   6 C        3.761    -0.106    22.581     6.774
     4   6 C        3.761    -0.108    22.617     6.780
     5   6 C        2.973     0.011    27.769     8.644
     6   6 C        2.927    -0.034    28.854     8.809
     7   6 C        2.919    -0.040    28.999     8.831
     8   6 C        2.932     0.061    26.623     8.462
     9   7 N        2.755    -0.035    21.926     6.955
    10   6 C        2.923     0.059    26.687     8.472
    11   6 C        2.915    -0.063    29.571     8.917
    12   6 C        2.923    -0.048    29.204     8.862
    13   6 C        2.967     0.004    27.926     8.668
    14   6 C        3.902     0.024    20.113     6.375
    15   6 C        3.761    -0.102    22.504     6.762
    16   6 C        3.761    -0.102    22.503     6.762
    17   6 C        3.761    -0.105    22.544     6.769
    18   6 C        2.926    -0.061    29.506     8.908
    19   6 C        2.883    -0.073    29.816     8.952
    20   5 B        2.724     0.138    19.313     7.364
    21   6 C        2.883    -0.073    29.817     8.952
    22   6 C        2.926    -0.061    29.506     8.908
    23   6 C        2.967     0.004    27.927     8.668
    24   6 C        3.902     0.024    20.113     6.375
    25   6 C        3.761    -0.105    22.543     6.768
    26   6 C        3.761    -0.102    22.503     6.762
    27   6 C        3.761    -0.102    22.504     6.762
    28   6 C        2.923    -0.048    29.204     8.862
    29   6 C        2.915    -0.063    29.571     8.917
    30   6 C        2.923     0.059    26.687     8.472
    31   7 N        2.755    -0.035    21.927     6.955
    32   6 C        2.932     0.062    26.620     8.462
    33   6 C        2.919    -0.040    28.998     8.831
    34   6 C        2.927    -0.034    28.853     8.809
    35   6 C        2.973     0.011    27.767     8.643
    36   6 C        3.902     0.026    20.074     6.369
    37   6 C        3.761    -0.106    22.581     6.774
    38   6 C        3.761    -0.106    22.567     6.772
    39   6 C        3.761    -0.108    22.618     6.780
    40   6 C        2.925    -0.037    28.932     8.821
    41   6 C        2.921    -0.040    28.997     8.831
    42   6 C        2.925     0.052    26.824     8.493
    43   6 C        2.919    -0.063    29.562     8.916
    44   6 C        2.906     0.041    27.088     8.534
    45   7 N        2.798    -0.051    22.220     7.001
    46   6 C        3.079     0.042    26.974     8.515
    47   6 C        2.908    -0.055    29.367     8.886
    48   6 C        2.930    -0.045    29.109     8.848
    49   6 C        2.971    -0.006    28.165     8.705
    50   6 C        3.902     0.024    20.112     6.375
    51   6 C        3.761    -0.105    22.558     6.771
    52   6 C        3.761    -0.104    22.525     6.766
    53   6 C        3.761    -0.103    22.513     6.764
    54   6 C        2.917    -0.048    29.183     8.859
    55   6 C        3.065    -0.025    28.564     8.764
    56   6 C        3.065    -0.025    28.564     8.764
    57   6 C        2.917    -0.048    29.183     8.859
    58   6 C        2.971    -0.006    28.165     8.705
    59   6 C        3.902     0.024    20.112     6.375
    60   6 C        3.761    -0.105    22.558     6.771
    61   6 C        3.761    -0.104    22.524     6.766
    62   6 C        3.761    -0.103    22.513     6.764
    63   6 C        2.930    -0.045    29.109     8.848
    64   6 C        2.908    -0.055    29.366     8.886
    65   6 C        3.079     0.042    26.974     8.515
    66   6 C        2.919    -0.063    29.559     8.916
    67   6 C        2.925     0.052    26.827     8.494
    68   6 C        2.894    -0.107    30.699     9.084
    69   6 C        2.921    -0.040    28.999     8.831
    70   6 C        2.925    -0.038    28.933     8.821
    71   1 H        0.925     0.037     2.485     2.465
    72   1 H        0.925     0.034     2.524     2.484
    73   1 H        0.925     0.042     2.426     2.436
    74   1 H        0.925     0.038     2.475     2.460
    75   1 H        0.925     0.034     2.529     2.487
    76   1 H        0.925     0.042     2.429     2.437
    77   1 H        0.925     0.040     2.447     2.446
    78   1 H        0.925     0.037     2.485     2.465
    79   1 H        0.925     0.037     2.485     2.465
    80   1 H        0.926     0.041     2.429     2.437
    81   1 H        0.926     0.038     2.475     2.460
    82   1 H        0.926     0.015     2.807     2.620
    83   1 H        0.926     0.016     2.796     2.615
    84   1 H        0.925     0.036     2.500     2.473
    85   1 H        0.925     0.032     2.561     2.503
    86   1 H        0.925     0.034     2.528     2.486
    87   1 H        0.925     0.036     2.502     2.473
    88   1 H        0.925     0.034     2.525     2.485
    89   1 H        0.925     0.031     2.571     2.507
    90   1 H        0.925     0.037     2.495     2.470
    91   1 H        0.925     0.034     2.527     2.486
    92   1 H        0.925     0.034     2.529     2.487
    93   1 H        0.926     0.035     2.511     2.478
    94   1 H        0.926     0.035     2.512     2.478
    95   1 H        0.925     0.034     2.529     2.487
    96   1 H        0.925     0.034     2.527     2.486
    97   1 H        0.925     0.037     2.495     2.470
    98   1 H        0.925     0.031     2.571     2.507
    99   1 H        0.925     0.034     2.525     2.485
   100   1 H        0.925     0.036     2.502     2.473
   101   1 H        0.925     0.032     2.561     2.503
   102   1 H        0.925     0.036     2.500     2.473
   103   1 H        0.925     0.034     2.528     2.486
   104   1 H        0.926     0.016     2.797     2.615
   105   1 H        0.926     0.015     2.809     2.621
   106   1 H        0.926     0.038     2.475     2.460
   107   1 H        0.926     0.042     2.428     2.437
   108   1 H        0.925     0.038     2.475     2.460
   109   1 H        0.925     0.042     2.428     2.437
   110   1 H        0.925     0.034     2.529     2.487
   111   1 H        0.925     0.034     2.524     2.485
   112   1 H        0.925     0.037     2.484     2.465
   113   1 H        0.925     0.042     2.426     2.436
   114   1 H        0.925     0.037     2.484     2.465
   115   1 H        0.925     0.040     2.446     2.446
   116   1 H        0.925     0.037     2.484     2.465
   117   1 H        0.926     0.049     2.336     2.390
   118   1 H        0.926     0.036     2.501     2.473
   119   1 H        0.926     0.033     2.539     2.492
   120   1 H        0.926     0.021     2.711     2.575
   121   1 H        0.926     0.024     2.667     2.554
   122   1 H        0.925     0.034     2.526     2.485
   123   1 H        0.925     0.035     2.512     2.479
   124   1 H        0.925     0.034     2.531     2.488
   125   1 H        0.925     0.031     2.579     2.511
   126   1 H        0.925     0.035     2.520     2.482
   127   1 H        0.925     0.037     2.495     2.470
   128   1 H        0.925     0.035     2.518     2.481
   129   1 H        0.925     0.031     2.567     2.505
   130   1 H        0.925     0.036     2.497     2.471
   131   1 H        0.926     0.032     2.554     2.499
   132   1 H        0.926     0.032     2.554     2.499
   133   1 H        0.925     0.034     2.531     2.488
   134   1 H        0.925     0.034     2.526     2.485
   135   1 H        0.925     0.035     2.512     2.479
   136   1 H        0.925     0.035     2.520     2.482
   137   1 H        0.925     0.037     2.495     2.470
   138   1 H        0.925     0.031     2.579     2.511
   139   1 H        0.925     0.035     2.518     2.481
   140   1 H        0.925     0.036     2.497     2.471
   141   1 H        0.925     0.031     2.566     2.505
   142   1 H        0.926     0.024     2.666     2.553
   143   1 H        0.926     0.021     2.711     2.575
   144   1 H        0.926     0.033     2.539     2.492
   145   1 H        0.926     0.036     2.502     2.474
   146   1 H        0.926     0.049     2.338     2.391

molecular dipole:
                 x           y           z       tot (Debye)
 q only:       -0.450       0.007      -0.008
   full:       -0.459       0.006      -0.008       1.166

 projected vibrational frequencies (cm⁻¹)
eigval :       -0.00     0.00     0.00     0.00     0.00     0.00
eigval :        3.40    11.42    14.41    16.45    20.80    21.69
eigval :       22.80    25.05    27.54    31.84    35.08    37.30
eigval :       39.42    41.02    43.13    55.94    57.87    65.67
eigval :       66.40    68.77    74.19    75.24    89.49    90.31
eigval :       96.06   101.84   104.52   124.71   127.69   149.72
eigval :      155.50   158.47   163.80   169.46   174.40   178.61
eigval :      179.49   180.51   181.33   193.24   194.91   197.57
eigval :      208.92   212.77   213.48   223.51   224.73   228.49
eigval :      229.48   230.69   232.10   234.88   237.26   238.75
eigval :      244.74   251.34   256.27   257.59   263.00   272.48
eigval :      278.95   285.89   295.39   309.21   311.53   314.72
eigval :      317.76   318.32   318.55   319.16   321.06   323.71
eigval :      328.73   337.36   344.16   346.69   348.33   350.78
eigval :      353.72   359.45   360.64   365.49   371.22   373.88
eigval :      377.41   380.05   381.76   393.07   393.30   397.84
eigval :      398.92   406.97   411.13   414.89   421.86   426.90
eigval :      429.95   439.53   441.32   445.87   446.30   454.98
eigval :      456.64   461.87   462.24   466.56   469.43   469.68
eigval :      485.12   492.58   507.38   516.04   523.55   525.80
eigval :      527.21   552.06   555.79   560.18   576.57   579.32
eigval :      582.89   587.72   590.72   596.71   609.33   610.69
eigval :      615.21   616.04   635.39   637.73   643.87   659.59
eigval :      661.76   662.71   684.32   689.57   697.77   699.73
eigval :      703.92   706.70   716.25   717.53   727.67   729.37
eigval :      769.99   786.04   792.69   794.73   799.95   813.02
eigval :      816.52   818.63   821.78   830.90   841.17   846.38
eigval :      866.35   867.82   868.37   868.63   870.29   870.60
eigval :      872.38   872.46   872.62   878.69   879.89   880.87
eigval :      900.70   909.81   911.02   912.53   913.11   918.92
eigval :      924.26   924.94   926.72   927.27   933.10   944.02
eigval :      957.97   958.47   959.08   959.42   959.65   959.77
eigval :      960.54   962.33   962.57   962.73   962.81   962.98
eigval :      963.36   964.85   965.02   965.33   965.40   965.46
eigval :      966.26  1006.99  1012.39  1030.63  1030.83  1032.17
eigval :     1033.23  1034.84  1035.23  1035.31  1035.42  1035.70
eigval :     1036.07  1036.59  1036.80  1038.48  1041.32  1088.07
eigval :     1088.41  1116.07  1128.59  1133.53  1137.52  1138.93
eigval :     1140.03  1143.20  1143.49  1153.47  1161.56  1175.97
eigval :     1182.78  1190.45  1197.94  1199.26  1202.94  1220.92
eigval :     1220.98  1222.74  1224.66  1225.38  1225.48  1225.81
eigval :     1225.83  1228.02  1228.14  1229.45  1231.46  1231.78
eigval :     1231.85  1237.57  1240.72  1244.82  1246.52  1258.79
eigval :     1259.60  1265.28  1273.33  1273.52  1277.79  1279.63
eigval :     1283.06  1285.47  1287.21  1295.45  1301.85  1305.52
eigval :     1307.27  1308.89  1312.08  1312.29  1312.44  1339.83
eigval :     1348.21  1348.21  1358.11  1358.46  1370.87  1375.78
eigval :     1383.04  1395.10  1395.27  1400.40  1401.00  1401.10
eigval :     1401.89  1403.04  1403.88  1403.96  1404.13  1404.31
eigval :     1404.65  1405.90  1406.18  1410.44  1413.46  1418.06
eigval :     1425.89  1426.28  1427.05  1427.22  1428.52  1428.71
eigval :     1441.96  1448.22  1469.48  1476.14  1477.87  1481.26
eigval :     1483.51  1485.55  1488.56  1488.67  1488.85  1489.29
eigval :     1491.06  1491.50  1491.78  1491.91  1492.41  1492.44
eigval :     1492.62  1494.77  1494.95  1498.26  1499.05  1499.29
eigval :     1499.50  1500.54  1500.73  1501.25  1503.03  1503.61
eigval :     1503.83  1504.72  1504.79  1508.79  1510.04  1510.81
eigval :     1511.48  1511.96  1512.30  1512.40  1516.05  1516.57
eigval :     1516.75  1519.29  1520.22  1520.84  1531.01  1551.98
eigval :     1556.47  1557.28  1558.30  1567.44  1586.45  1590.27
eigval :     1590.82  1592.35  3015.74  3015.95  3016.87  3016.89
eigval :     3017.16  3017.35  3018.98  3019.01  3021.57  3021.89
eigval :     3022.02  3022.09  3022.18  3022.20  3022.25  3022.39
eigval :     3022.93  3023.01  3023.20  3023.45  3025.17  3025.27
eigval :     3026.22  3026.27  3026.32  3026.46  3027.55  3027.67
eigval :     3029.13  3029.31  3030.30  3030.35  3030.40  3030.89
eigval :     3033.55  3033.61  3033.71  3034.05  3034.74  3039.75
eigval :     3040.24  3040.65  3041.96  3042.03  3044.93  3044.99
eigval :     3045.12  3045.13  3045.18  3045.21  3048.43  3048.50
eigval :     3049.91  3050.12  3073.35  3073.78  3075.12  3075.27
eigval :     3076.17  3076.36  3077.86  3078.11  3086.11  3087.04
eigval :     3088.60  3089.12  3092.48  3092.90  3104.24  3104.94
eigval :     3109.45  3112.91  3117.21  3117.39  3133.91  3140.25

   temp. (K)  partition function   enthalpy   heat capacity  entropy
                                   cal/mol     cal/K/mol   cal/K/mol   J/K/mol
 298.15  VIB  0.109E+34            42323.634    257.970    262.920
         ROT  0.262E+09              888.752      2.981     41.500
         INT  0.286E+42            43212.387    260.951    304.420
         TR   0.271E+29             1481.254      4.968     46.319
         TOT                       44693.6405   265.9188   350.7389  1467.4914

       T/K    H(0)-H(T)+PV         H(T)/Eh          T*S/Eh         G(T)/Eh
   ------------------------------------------------------------------------
    298.15    0.712238E-01    0.130190E+01    0.166647E+00    0.113526E+01
   ------------------------------------------------------------------------

         :::::::::::::::::::::::::::::::::::::::::::::::::::::
         ::                  THERMODYNAMIC                  ::
         :::::::::::::::::::::::::::::::::::::::::::::::::::::
         :: total free energy        -189.144081776086 Eh   ::
         ::.................................................::
         :: total energy             -190.279336868029 Eh   ::
         :: zero point energy           1.230678598724 Eh   ::
         :: G(RRHO) w/o ZPVE           -0.095423506781 Eh   ::
         :: G(RRHO) contrib.            1.135255091943 Eh   ::
         :::::::::::::::::::::::::::::::::::::::::::::::::::::

           -------------------------------------------------
          | TOTAL ENERGY             -190.279336868029 Eh   |
          | TOTAL ENTHALPY           -188.977434419608 Eh   |
          | TOTAL FREE ENERGY        -189.144081776086 Eh   |
          | GRADIENT NORM               0.000070070853 Eh/α |
          | HOMO-LUMO GAP               0.353012479573 eV   |
           -------------------------------------------------

 * finished run on 2025/09/08 at 19:56:57.434
