   * xtb version 6.7.1 (edcfbbe) compiled by 'albert@albert-system' on 2024-07-22

   ID    Z sym.   atoms
    1    6 C      1-8, 10-19, 21-30, 32-44, 46-70
    2    7 N      9, 31, 45
    3    5 B      20
    4    1 H      71-146

          program call               : xtb data2507/toluene/TBN-TPA/TBN-TPA.xyz --gfn 2 --gbsa toluene --ohess vtight --parallel 40 --molden --ceasefiles --namespace data2507/toluene/TBN-TPA/TBN-TPA_toluene_S0_preOpt
      * Solvation model:               GBSA
        Solvent                        toluene
        Solvent mass                       9.2140E+01 g/mol
          :  Hamiltonian                  GFN2-xTB          :
 * total energy  :  -190.2065497 Eh     change       -0.3974577E-08 Eh
 * total energy  :  -190.2832527 Eh     change       -0.7670297E-01 Eh
 * total energy  :  -190.3131268 Eh     change       -0.2987410E-01 Eh
 * total energy  :  -190.3264618 Eh     change       -0.1333505E-01 Eh
 * total energy  :  -190.3345850 Eh     change       -0.8123147E-02 Eh
 * total energy  :  -190.3403592 Eh     change       -0.5774243E-02 Eh
 * total energy  :  -190.3450252 Eh     change       -0.4666004E-02 Eh
 * total energy  :  -190.3489835 Eh     change       -0.3958278E-02 Eh
 * total energy  :  -190.3522448 Eh     change       -0.3261273E-02 Eh
 * total energy  :  -190.3547212 Eh     change       -0.2476456E-02 Eh
 * total energy  :  -190.3709132 Eh     change       -0.1554049E-05 Eh
 * total energy  :  -190.3709148 Eh     change       -0.1529476E-05 Eh
 * total energy  :  -190.3709163 Eh     change       -0.1546337E-05 Eh
 * total energy  :  -190.3709179 Eh     change       -0.1570078E-05 Eh
 * total energy  :  -190.3709195 Eh     change       -0.1615847E-05 Eh
 * total energy  :  -190.3709212 Eh     change       -0.1727296E-05 Eh
 * total energy  :  -190.3709232 Eh     change       -0.1950387E-05 Eh
 * total energy  :  -190.3709253 Eh     change       -0.2131933E-05 Eh
 * total energy  :  -190.3709253 Eh     change       -0.5905946E-08 Eh
   *** GEOMETRY OPTIMIZATION CONVERGED AFTER 152 ITERATIONS ***

 final structure:
================
146
 xtb: 6.7.1 (edcfbbe)
C           -1.88162597573226       -7.67861210514356        1.55668539004542
C           -1.43843072585719       -7.19784493406917        0.17161675173388
C           -0.61920452954115       -8.31889139571189       -0.48525222953208
C           -2.69666475992785       -6.91207609633498       -0.66135408320667
C           -0.59309808179674       -5.93482842270985        0.23136764831374
C           -0.26404055772085       -5.30097230964316        1.42443954829711
C            0.50198652014895       -4.14821933068120        1.43932283047233
C            0.96165049813944       -3.59924086180516        0.25165446059463
N            1.73367386733952       -2.39817537556294        0.25121457599362
C            3.10207661352361       -2.49318765089341        0.43245174437823
C            3.67126073254811       -3.74682170949398        0.68167882072700
C            5.01578760802921       -3.88098908477430        0.94496964700559
C            5.85429936981693       -2.76836135083467        0.99684218937874
C            7.33314786537619       -2.85694643558576        1.34689241759982
C            7.59855906874357       -2.02157971842677        2.60839937987987
C            8.16475295747610       -2.30750707902948        0.17843914483698
C            7.78974682143285       -4.29333535965784        1.62095361173822
C            5.28445134395762       -1.53965952200523        0.70919388259886
C            3.93720502054548       -1.35501238462551        0.38268532696677
B            3.29401375696554       -0.00575584467655       -0.00690883872157
C            3.93953007729568        1.34023538996613       -0.40362511969617
C            5.28507909434000        1.51818991327498       -0.74049691718158
C            5.85714157075421        2.74304683696990       -1.03991446210281
C            7.33462452674430        2.82435669310447       -1.39738283892193
C            7.59783098076167        1.96413899568893       -2.64249467192974
C            7.79046330549073        4.25484386404558       -1.70179027493219
C            8.16832507714198        2.29842551939626       -0.21962905919234
C            5.02289950414335        3.85890335987589       -0.98893106614643
C            3.68001291031436        3.73122672551729       -0.71409416987333
C            3.10831736781963        2.48133472909991       -0.45216190955892
N            1.74123171711517        2.39270095775759       -0.25766536678619
C            0.97447439473414        3.59720166176204       -0.25486390821160
C            0.49933102087705        4.13982325035801       -1.43938737333242
C           -0.26131107841850        5.29608036754764       -1.42130615608950
C           -0.56958631068417        5.93995592119357       -0.22803760998258
C           -1.40929768002810        7.20658229228638       -0.16475254315740
C           -2.65988093828106        6.92858591523589        0.68228927112456
C           -0.57969167469398        8.32760104157364        0.47899307159967
C           -1.86496211072638        7.68344834776272       -1.54714553097199
C           -0.08093300906982        5.38119540837545        0.95142932283598
C            0.68098669786509        4.22890250891855        0.94541357987643
C            1.05670071171127        1.20451491165581       -0.12868388220525
C           -0.33834098139498        1.20190005747163       -0.12628064700417
C           -1.02231331716424        0.00291130143346        0.01040800390121
N           -2.42698288739460        0.00493013997052        0.01463249758598
C           -3.24035121868529       -0.81398778712544       -0.74263478104904
C           -2.91767619322189       -1.77316861444159       -1.69138934770362
C           -3.94987187100431       -2.42643872143826       -2.33328774380950
C           -5.30185446643631       -2.15630315630008       -2.07684556932710
C           -6.36751140806640       -2.91859443906188       -2.85404861610427
C           -6.20025125885465       -2.62480157779681       -4.35268350905822
C           -6.20563535075334       -4.42445859688060       -2.60056903268773
C           -7.79052034685346       -2.52122085702675       -2.44850720915456
C           -5.61229984327103       -1.18710416908171       -1.13737927409603
C           -4.59339726478086       -0.51539012395366       -0.47324730189836
C           -4.59008145559232        0.53243569409776        0.50919365542136
C           -5.60470914580221        1.20776996356124        1.17614609621727
C           -5.28818559478610        2.17635249723931        2.11421603015768
C           -6.34907675077030        2.94300830833626        2.89364258895172
C           -6.18359895427863        4.44793402724141        2.63689438079876
C           -7.77456860717073        2.54905966503712        2.49348395688962
C           -6.17790535487151        2.65133025419833        4.39223960299996
C           -3.93452975244018        2.44192777365140        2.36659793726819
C           -2.90642498702210        1.78500041089664        1.72180293988064
C           -3.23517854231647        0.82665851528332        0.77428146531721
C           -0.34189127667353       -1.19873847453871        0.14130452837293
C            1.05300994733991       -1.20693479236369        0.13061776160729
C            1.77679005493532       -0.00263784595942       -0.00177531624525
C            0.64730656812148       -4.22095426810204       -0.94855212354872
C           -0.11953151358542       -5.36994493146646       -0.95132858958652
H           -2.48089448047626       -8.58072401452554        1.45084776510096
H           -1.02450949324520       -7.91778335443741        2.18217129653901
H           -2.49106361567758       -6.92810281011242        2.05512488119213
H            0.28516413633123       -8.51058138967261        0.08920788310978
H           -0.32968061364931       -8.05812661457753       -1.49948756063869
H           -1.20441567285449       -9.23519233936685       -0.52320664430359
H           -3.33718857955987       -7.79102910591677       -0.68630319054345
H           -2.44345191525505       -6.64726050862292       -1.68405174603199
H           -3.25697696754589       -6.08782719221139       -0.22416455354969
H           -0.60338301798106       -5.69501863029652        2.36807744932276
H            0.74507291515516       -3.66696569893960        2.37590161793411
H            3.05038505255126       -4.63069541485819        0.68186396498244
H            5.39763305819934       -4.87218179161641        1.13040953792078
H            7.00356043042397       -2.39690689444111        3.43906909125032
H            7.34175588834650       -0.97723093332768        2.45243180268198
H            8.65027754452405       -2.07773883713618        2.88286527468052
H            9.22688959604069       -2.38077721329244        0.40424709810843
H            7.93075583913779       -1.26440036071536       -0.01400166555980
H            7.96396120611343       -2.87511753942100       -0.72848601567328
H            7.24846661024322       -4.72278230196846        2.46125774433918
H            7.64684541043761       -4.92355722956096        0.74568851285024
H            8.85000164246180       -4.29646489714714        1.86750096646985
H            5.90034232621928       -0.65647043098063        0.75961289693640
H            5.89758091872699        0.63259631523452       -0.78936011530497
H            8.64895870677480        2.01578328998400       -2.92008752228159
H            7.00090877643494        2.32248352492375       -3.47925104469830
H            7.34270070087335        0.92274486743387       -2.46576742284609
H            7.24235879694239        4.66907431964364       -2.54532485180397
H            7.65578508013160        4.90142751438548       -0.83728347768131
H            8.84863935492676        4.25215275036416       -1.95714415662621
H            7.93159933927842        1.26045259622142       -0.00396521354301
H            9.23003662712812        2.36395879608099       -0.44972008290765
H            7.97124203768908        2.88609129739784        0.67529056737036
H            5.40671171908037        4.84747045077417       -1.18413637277659
H            3.06227899271752        4.61731860298838       -0.71505521580471
H            0.72610081171824        3.65077094158139       -2.37601740445482
H           -0.61302917648498        5.68491462775888       -2.36256784189794
H           -2.39681774696191        6.66344625291788        1.70244276674788
H           -3.29531550372540        7.81105051655083        0.71316051599962
H           -3.22937028701114        6.10686859037742        0.25222411115586
H           -1.16100181691161        9.24636751385328        0.51747973162436
H            0.32021615859287        8.51282744258401       -0.10452210524111
H           -0.28214460471697        8.07110515285419        1.49197156127032
H           -2.48374889643540        6.93405288523803       -2.03563885828586
H           -2.45837048336164        8.58914265346310       -1.43891346356657
H           -1.01335325103082        7.91520954585246       -2.18287144666661
H           -0.29471266630244        5.84801217515115        1.90068406187908
H            1.05205985741843        3.81075789265212        1.87023662138720
H           -0.89818748565864        2.11415398011758       -0.25409909229176
H           -1.88987552230596       -1.99807227112328       -1.93366085516885
H           -3.68998029694559       -3.17234112117002       -3.06937965726144
H           -6.29750647392946       -1.55686801599356       -4.53946271470420
H           -6.96420645740091       -3.14696805966655       -4.92544601663005
H           -5.22622754670734       -2.94491347564786       -4.71262021314573
H           -5.23829176339290       -4.78129885488986       -2.94173852644393
H           -6.29452538417901       -4.63814161383433       -1.53720788885795
H           -6.97806030206193       -4.97898643388783       -3.12982727926738
H           -8.50746401304430       -3.10054866382899       -3.02747639545764
H           -7.96753035977220       -2.72364936453358       -1.39443079358614
H           -7.97448563896125       -1.46738387915385       -2.64541330414577
H           -6.63301117953943       -0.92914533511305       -0.90797268988662
H           -6.62696857618596        0.95314762320926        0.94991889494282
H           -6.27744695033235        4.66019784173028        1.57366386861004
H           -5.21322195448769        4.80209371992948        2.97224284572802
H           -6.95134318221605        5.00585572280612        3.16938149689945
H           -7.96096932622089        1.49613651045771        2.69301140872883
H           -8.48788787730767        3.13163762128209        3.07366936337669
H           -7.95449895119551        2.74999784428891        1.43962098207382
H           -6.94050397150696        3.17414033839423        4.96622303193908
H           -5.20307032788921        2.97219926256938        4.74925583526520
H           -6.27447401791159        1.58363501630406        4.58075584678349
H           -3.66992154751041        3.18714271748541        3.10171999678226
H           -1.87713796111324        2.00655453303593        1.96093659932827
H           -0.90412845614840       -2.10878097603857        0.27425914940187
H            1.00616706173609       -3.79757716843427       -1.87582257858989
H           -0.34934907943761       -5.82918040390414       -1.90052905072721

          :  Hamiltonian                  GFN2-xTB          :
         :: gradient norm              0.000064336124 Eh/a0 ::
         :: HOMO-LUMO gap              2.360650357999 eV    ::
         :: SCC energy              -193.646305654135 Eh    ::
         :: -> dispersion             -0.191513789715 Eh    ::
         :: -> Gsolv                  -0.070063816318 Eh    ::
         :: repulsion energy           3.275380330803 Eh    ::

    * Orbital Energies and Occupations

         #    Occupation            Energy/Eh            Energy/eV
      -------------------------------------------------------------
         1        2.0000           -0.6657114             -18.1149
       ...           ...                  ...                  ...
       167        2.0000           -0.3974386             -10.8149
       168        2.0000           -0.3966861             -10.7944
       169        2.0000           -0.3948310             -10.7439
       170        2.0000           -0.3913298             -10.6486
       171        2.0000           -0.3907641             -10.6332
       172        2.0000           -0.3873039             -10.5391
       173        2.0000           -0.3865343             -10.5181
       174        2.0000           -0.3740231             -10.1777
       175        2.0000           -0.3736212             -10.1667
       176        2.0000           -0.3674488              -9.9988
       177        2.0000           -0.3564978              -9.7008
       178        2.0000           -0.3496756              -9.5152
       179        2.0000           -0.3384927              -9.2109 (HOMO)
       180                         -0.2517404              -6.8502 (LUMO)
       181                         -0.2353747              -6.4049
       182                         -0.2281538              -6.2084
       183                         -0.2274740              -6.1899
       184                         -0.2262766              -6.1573
       185                         -0.2259160              -6.1475
       186                         -0.2168915              -5.9019
       187                         -0.2140738              -5.8252
       188                         -0.2119070              -5.7663
       189                         -0.2057179              -5.5979
       190                         -0.1968909              -5.3577
       ...                                ...                  ...
       356                          0.7478075              20.3489
      -------------------------------------------------------------
                  HL-Gap            0.0867523 Eh            2.3607 eV

     #   Z          covCN         q      C6AA      α(0)
     1   6 C        3.761    -0.109    22.625     6.781
     2   6 C        3.902     0.026    20.081     6.370
     3   6 C        3.761    -0.106    22.576     6.773
     4   6 C        3.762    -0.105    22.554     6.770
     5   6 C        2.973     0.011    27.777     8.645
     6   6 C        2.925    -0.039    28.973     8.827
     7   6 C        2.920    -0.041    29.016     8.833
     8   6 C        2.933     0.064    26.559     8.452
     9   7 N        2.755    -0.059    22.378     7.026
    10   6 C        2.927     0.057    26.718     8.477
    11   6 C        2.918    -0.061    29.506     8.908
    12   6 C        2.926    -0.041    29.011     8.833
    13   6 C        2.968    -0.008    28.206     8.711
    14   6 C        3.902     0.024    20.121     6.376
    15   6 C        3.761    -0.104    22.526     6.766
    16   6 C        3.761    -0.101    22.479     6.759
    17   6 C        3.761    -0.105    22.546     6.769
    18   6 C        2.932    -0.042    29.040     8.838
    19   6 C        2.886    -0.087    30.185     9.007
    20   5 B        2.724     0.189    18.545     7.216
    21   6 C        2.886    -0.087    30.185     9.007
    22   6 C        2.932    -0.042    29.041     8.838
    23   6 C        2.968    -0.008    28.206     8.711
    24   6 C        3.902     0.024    20.120     6.376
    25   6 C        3.761    -0.104    22.528     6.766
    26   6 C        3.761    -0.105    22.547     6.769
    27   6 C        3.761    -0.101    22.478     6.759
    28   6 C        2.926    -0.041    29.011     8.833
    29   6 C        2.918    -0.061    29.505     8.907
    30   6 C        2.927     0.057    26.719     8.477
    31   7 N        2.755    -0.059    22.379     7.026
    32   6 C        2.933     0.064    26.559     8.452
    33   6 C        2.920    -0.041    29.016     8.833
    34   6 C        2.925    -0.039    28.973     8.827
    35   6 C        2.973     0.011    27.777     8.645
    36   6 C        3.902     0.026    20.081     6.370
    37   6 C        3.762    -0.105    22.553     6.770
    38   6 C        3.761    -0.106    22.576     6.773
    39   6 C        3.761    -0.109    22.625     6.781
    40   6 C        2.927    -0.034    28.847     8.808
    41   6 C        2.920    -0.041    29.017     8.834
    42   6 C        2.927     0.063    26.594     8.457
    43   6 C        2.921    -0.087    30.192     9.011
    44   6 C        2.911     0.063    26.578     8.454
    45   7 N        2.803    -0.056    22.322     7.017
    46   6 C        3.081     0.046    26.883     8.500
    47   6 C        2.908    -0.055    29.366     8.886
    48   6 C        2.930    -0.042    29.043     8.838
    49   6 C        2.972    -0.005    28.149     8.703
    50   6 C        3.902     0.024    20.109     6.374
    51   6 C        3.761    -0.104    22.533     6.767
    52   6 C        3.761    -0.104    22.540     6.768
    53   6 C        3.761    -0.106    22.565     6.772
    54   6 C        2.918    -0.047    29.169     8.856
    55   6 C        3.067    -0.024    28.527     8.758
    56   6 C        3.067    -0.024    28.527     8.758
    57   6 C        2.918    -0.047    29.169     8.856
    58   6 C        2.972    -0.005    28.149     8.703
    59   6 C        3.902     0.024    20.109     6.374
    60   6 C        3.761    -0.104    22.540     6.768
    61   6 C        3.761    -0.106    22.565     6.772
    62   6 C        3.761    -0.104    22.533     6.767
    63   6 C        2.930    -0.042    29.043     8.838
    64   6 C        2.908    -0.055    29.365     8.886
    65   6 C        3.081     0.046    26.883     8.500
    66   6 C        2.921    -0.087    30.192     9.011
    67   6 C        2.927     0.063    26.594     8.457
    68   6 C        2.897    -0.111    30.796     9.099
    69   6 C        2.920    -0.041    29.017     8.834
    70   6 C        2.927    -0.034    28.847     8.808
    71   1 H        0.925     0.040     2.450     2.448
    72   1 H        0.925     0.037     2.486     2.466
    73   1 H        0.925     0.037     2.491     2.468
    74   1 H        0.925     0.034     2.532     2.488
    75   1 H        0.925     0.038     2.475     2.460
    76   1 H        0.925     0.041     2.430     2.438
    77   1 H        0.925     0.041     2.430     2.438
    78   1 H        0.925     0.038     2.480     2.462
    79   1 H        0.925     0.034     2.532     2.488
    80   1 H        0.926     0.047     2.362     2.403
    81   1 H        0.926     0.036     2.499     2.472
    82   1 H        0.926     0.017     2.773     2.604
    83   1 H        0.926     0.028     2.613     2.528
    84   1 H        0.925     0.030     2.587     2.515
    85   1 H        0.925     0.036     2.500     2.473
    86   1 H        0.925     0.036     2.507     2.476
    87   1 H        0.925     0.035     2.512     2.478
    88   1 H        0.925     0.034     2.534     2.490
    89   1 H        0.925     0.030     2.587     2.515
    90   1 H        0.925     0.033     2.544     2.494
    91   1 H        0.925     0.033     2.542     2.493
    92   1 H        0.925     0.034     2.525     2.485
    93   1 H        0.926     0.031     2.567     2.505
    94   1 H        0.926     0.032     2.565     2.504
    95   1 H        0.925     0.036     2.507     2.476
    96   1 H        0.925     0.030     2.587     2.515
    97   1 H        0.925     0.036     2.499     2.472
    98   1 H        0.925     0.033     2.545     2.495
    99   1 H        0.925     0.033     2.542     2.493
   100   1 H        0.925     0.034     2.525     2.485
   101   1 H        0.925     0.034     2.535     2.490
   102   1 H        0.925     0.035     2.511     2.478
   103   1 H        0.925     0.030     2.587     2.515
   104   1 H        0.926     0.028     2.614     2.528
   105   1 H        0.926     0.017     2.774     2.604
   106   1 H        0.926     0.036     2.499     2.472
   107   1 H        0.926     0.047     2.362     2.403
   108   1 H        0.925     0.038     2.480     2.463
   109   1 H        0.925     0.041     2.430     2.438
   110   1 H        0.925     0.034     2.531     2.488
   111   1 H        0.925     0.041     2.430     2.438
   112   1 H        0.925     0.034     2.532     2.488
   113   1 H        0.925     0.038     2.474     2.460
   114   1 H        0.925     0.037     2.491     2.468
   115   1 H        0.925     0.040     2.450     2.448
   116   1 H        0.925     0.037     2.486     2.466
   117   1 H        0.926     0.040     2.446     2.446
   118   1 H        0.926     0.035     2.513     2.479
   119   1 H        0.926     0.025     2.665     2.553
   120   1 H        0.926     0.023     2.691     2.565
   121   1 H        0.926     0.027     2.624     2.533
   122   1 H        0.925     0.031     2.577     2.510
   123   1 H        0.925     0.037     2.489     2.467
   124   1 H        0.925     0.035     2.517     2.481
   125   1 H        0.925     0.036     2.497     2.471
   126   1 H        0.925     0.032     2.561     2.502
   127   1 H        0.925     0.037     2.492     2.468
   128   1 H        0.925     0.036     2.506     2.476
   129   1 H        0.925     0.035     2.522     2.483
   130   1 H        0.925     0.034     2.528     2.486
   131   1 H        0.926     0.034     2.528     2.486
   132   1 H        0.926     0.034     2.528     2.486
   133   1 H        0.925     0.032     2.561     2.503
   134   1 H        0.925     0.036     2.497     2.471
   135   1 H        0.925     0.037     2.492     2.468
   136   1 H        0.925     0.034     2.527     2.486
   137   1 H        0.925     0.036     2.506     2.476
   138   1 H        0.925     0.035     2.522     2.483
   139   1 H        0.925     0.037     2.489     2.467
   140   1 H        0.925     0.035     2.517     2.481
   141   1 H        0.925     0.031     2.577     2.510
   142   1 H        0.926     0.027     2.625     2.533
   143   1 H        0.926     0.023     2.692     2.566
   144   1 H        0.926     0.025     2.664     2.552
   145   1 H        0.926     0.035     2.514     2.479
   146   1 H        0.926     0.040     2.446     2.446

molecular dipole:
                 x           y           z       tot (Debye)
 q only:       -0.450       0.001       0.001
   full:       -0.433       0.001       0.001       1.101

 projected vibrational frequencies (cm⁻¹)
eigval :       -0.00     0.00     0.00     0.00     0.00     0.00
eigval :        6.44     8.14    12.59    14.81    16.50    18.09
eigval :       20.05    23.38    23.84    27.48    31.65    36.43
eigval :       39.81    40.45    42.27    52.21    53.69    62.01
eigval :       65.21    70.78    71.32    73.62    90.15    90.70
eigval :       96.40    99.34   103.31   123.23   127.66   143.16
eigval :      156.13   156.54   164.27   165.02   174.14   174.76
eigval :      176.28   179.63   180.62   186.74   191.49   195.36
eigval :      205.15   209.58   212.40   221.29   222.12   225.04
eigval :      226.13   227.83   231.48   231.88   234.59   239.35
eigval :      247.53   247.79   259.76   261.11   269.71   276.07
eigval :      284.81   293.00   294.81   306.84   308.45   309.39
eigval :      312.70   317.43   319.01   319.34   321.09   321.34
eigval :      321.66   336.69   347.46   349.47   351.42   352.51
eigval :      353.90   359.53   361.04   367.37   374.56   375.56
eigval :      379.51   381.12   383.17   396.11   399.40   399.90
eigval :      406.21   412.17   415.06   419.35   426.01   431.17
eigval :      440.39   443.79   444.26   448.69   450.56   457.27
eigval :      458.16   463.71   465.27   467.53   469.66   474.27
eigval :      489.99   493.99   514.89   518.37   526.79   529.25
eigval :      546.68   553.81   566.37   568.36   579.76   581.34
eigval :      588.16   588.96   594.90   599.87   613.26   617.22
eigval :      617.36   622.45   638.75   644.10   650.93   663.55
eigval :      664.51   686.20   688.05   698.23   702.26   707.97
eigval :      709.03   712.13   718.53   720.32   729.71   733.48
eigval :      776.42   798.61   812.67   814.33   815.57   816.60
eigval :      820.24   821.74   829.49   831.91   844.06   869.25
eigval :      870.14   871.35   871.47   872.88   874.22   875.41
eigval :      877.73   881.16   884.12   900.03   905.91   911.61
eigval :      914.63   915.42   915.62   916.30   919.37   923.75
eigval :      928.57   928.89   931.11   932.25   936.09   946.42
eigval :      957.26   957.29   957.35   957.38   959.70   960.02
eigval :      960.19   960.46   960.59   960.75   961.09   961.62
eigval :      961.64   962.18   962.24   962.63   965.55   965.94
eigval :      966.69  1011.47  1015.37  1029.71  1032.33  1032.89
eigval :     1033.13  1033.85  1034.05  1034.75  1035.07  1035.13
eigval :     1035.63  1036.04  1036.30  1040.97  1046.08  1097.70
eigval :     1107.84  1120.92  1127.76  1139.01  1139.32  1143.15
eigval :     1143.20  1144.99  1147.03  1160.50  1169.71  1177.78
eigval :     1190.32  1199.60  1201.40  1202.52  1216.89  1224.42
eigval :     1225.09  1225.27  1225.37  1226.03  1226.37  1226.61
eigval :     1229.53  1230.71  1231.30  1231.98  1232.03  1232.78
eigval :     1238.19  1241.87  1243.55  1253.55  1257.64  1264.59
eigval :     1274.16  1274.26  1277.22  1280.59  1281.02  1283.65
eigval :     1293.01  1295.73  1299.76  1301.92  1307.86  1309.02
eigval :     1311.07  1315.61  1315.67  1331.08  1340.94  1346.10
eigval :     1349.44  1350.86  1358.80  1386.70  1395.82  1395.84
eigval :     1396.90  1399.51  1400.39  1401.01  1401.16  1401.53
eigval :     1401.67  1402.84  1403.86  1403.88  1407.03  1407.08
eigval :     1407.36  1412.55  1423.69  1425.26  1426.09  1426.12
eigval :     1426.48  1426.84  1427.58  1427.92  1432.81  1455.60
eigval :     1459.37  1480.10  1481.70  1485.31  1486.18  1487.54
eigval :     1488.15  1488.36  1488.38  1489.15  1489.47  1489.48
eigval :     1490.99  1491.13  1492.47  1493.33  1493.44  1493.85
eigval :     1498.05  1498.74  1498.94  1499.04  1500.30  1500.46
eigval :     1501.85  1503.07  1503.38  1503.61  1503.74  1503.98
eigval :     1510.66  1511.20  1511.40  1511.57  1511.97  1511.97
eigval :     1516.52  1516.57  1516.97  1517.55  1517.70  1518.65
eigval :     1538.66  1543.90  1544.17  1563.46  1567.57  1569.01
eigval :     1569.06  1580.52  1593.81  1596.59  1601.21  1601.32
eigval :     1603.00  1617.31  3015.32  3015.56  3016.19  3016.48
eigval :     3016.94  3017.95  3018.69  3018.86  3019.59  3020.71
eigval :     3021.48  3021.54  3021.71  3022.05  3022.14  3022.24
eigval :     3022.39  3022.62  3023.73  3023.96  3024.26  3024.72
eigval :     3025.62  3025.84  3026.43  3026.51  3027.20  3027.28
eigval :     3027.53  3027.63  3029.22  3029.33  3029.92  3029.95
eigval :     3032.42  3032.46  3032.67  3033.07  3033.31  3033.47
eigval :     3037.64  3037.69  3042.43  3043.69  3045.19  3045.38
eigval :     3045.52  3045.60  3046.78  3048.44  3048.66  3049.01
eigval :     3052.35  3052.47  3075.11  3075.18  3076.27  3076.39
eigval :     3078.47  3078.64  3079.65  3079.88  3088.14  3089.19
eigval :     3091.22  3091.37  3100.45  3103.30  3104.20  3108.53
eigval :     3109.08  3110.22  3110.78  3113.66  3116.20  3116.37

   temp. (K)  partition function   enthalpy   heat capacity  entropy
                                   cal/mol     cal/K/mol   cal/K/mol   J/K/mol
 298.15  VIB  0.354E+34            42253.528    256.137    263.306
         ROT  0.131E+09              888.752      2.981     40.117
         INT  0.462E+42            43142.280    259.118    303.423
         TR   0.271E+29             1481.254      4.968     46.319
         TOT                       44623.5342   264.0862   349.7420  1463.3207

       T/K    H(0)-H(T)+PV         H(T)/Eh          T*S/Eh         G(T)/Eh
   ------------------------------------------------------------------------
    298.15    0.711121E-01    0.130520E+01    0.166174E+00    0.113902E+01
   ------------------------------------------------------------------------

         :::::::::::::::::::::::::::::::::::::::::::::::::::::
         ::                  THERMODYNAMIC                  ::
         :::::::::::::::::::::::::::::::::::::::::::::::::::::
         :: total free energy        -189.231901633708 Eh   ::
         ::.................................................::
         :: total energy             -190.370925325214 Eh   ::
         :: zero point energy           1.234085294283 Eh   ::
         :: G(RRHO) w/o ZPVE           -0.095061602777 Eh   ::
         :: G(RRHO) contrib.            1.139023691506 Eh   ::
         :::::::::::::::::::::::::::::::::::::::::::::::::::::

           -------------------------------------------------
          | TOTAL ENERGY             -190.370925325214 Eh   |
          | TOTAL ENTHALPY           -189.065727902772 Eh   |
          | TOTAL FREE ENERGY        -189.231901633708 Eh   |
          | GRADIENT NORM               0.000064333545 Eh/α |
          | HOMO-LUMO GAP               2.360650920977 eV   |
           -------------------------------------------------

 * finished run on 2025/09/08 at 18:44:18.759
