   * xtb version 6.7.1 (edcfbbe) compiled by 'albert@albert-system' on 2024-07-22

   ID    Z sym.   atoms
    1    6 C      1-8, 10-19, 21-30, 32-44, 46-70
    2    7 N      9, 31, 45
    3    5 B      20
    4    1 H      71-146

          program call               : xtb data2507/toluene/TBN-TPA/TBN-TPA_toluene_S0_crest.xyz --gfn 2 --gbsa toluene --ohess vtight --parallel 40 --molden --ceasefiles --namespace data2507/toluene/TBN-TPA/TBN-TPA_toluene_S0_finalOpt
      * Solvation model:               GBSA
        Solvent                        toluene
        Solvent mass                       9.2140E+01 g/mol
          :  Hamiltonian                  GFN2-xTB          :
 * total energy  :  -190.3683300 Eh     change       -0.5084985E-08 Eh
 * total energy  :  -190.3684497 Eh     change       -0.1196830E-03 Eh
 * total energy  :  -190.3685734 Eh     change       -0.1237426E-03 Eh
 * total energy  :  -190.3686414 Eh     change       -0.6797908E-04 Eh
 * total energy  :  -190.3687435 Eh     change       -0.1021096E-03 Eh
 * total energy  :  -190.3688645 Eh     change       -0.1210171E-03 Eh
 * total energy  :  -190.3690236 Eh     change       -0.1590780E-03 Eh
 * total energy  :  -190.3691095 Eh     change       -0.8592319E-04 Eh
 * total energy  :  -190.3692192 Eh     change       -0.1096593E-03 Eh
 * total energy  :  -190.3693564 Eh     change       -0.1371717E-03 Eh
 * total energy  :  -190.3712105 Eh     change       -0.2064611E-05 Eh
 * total energy  :  -190.3712124 Eh     change       -0.1963771E-05 Eh
 * total energy  :  -190.3712138 Eh     change       -0.1427439E-05 Eh
 * total energy  :  -190.3712149 Eh     change       -0.1067514E-05 Eh
 * total energy  :  -190.3712158 Eh     change       -0.8727542E-06 Eh
 * total energy  :  -190.3712166 Eh     change       -0.8045374E-06 Eh
 * total energy  :  -190.3712173 Eh     change       -0.7587694E-06 Eh
 * total energy  :  -190.3712181 Eh     change       -0.7622322E-06 Eh
 * total energy  :  -190.3712181 Eh     change       -0.7453281E-08 Eh
   *** GEOMETRY OPTIMIZATION CONVERGED AFTER 68 ITERATIONS ***

 final structure:
================
146
 xtb: 6.7.1 (edcfbbe)
C           -2.86049432607116       -6.85608951956599        1.11945065205961
C           -1.52734767495627       -7.17799466204457        0.42751714081985
C           -0.77640262117975       -8.26020566231931        1.21751611238800
C           -1.83342817666106       -7.73105425479213       -0.96756361038383
C           -0.67893181704869       -5.91641294897610        0.38489583885632
C           -0.32554986657973       -5.28767412687766        1.57793877177668
C            0.43603542042233       -4.13583530187131        1.59181407697631
C            0.87278298184555       -3.57831510399495        0.39703833819582
N            1.63849133466086       -2.37369773869243        0.38427112728269
C            3.00587320512006       -2.45057211913401        0.57975898271426
C            3.57915491024931       -3.69017048897307        0.89125356591125
C            4.91899661685312       -3.79798405272507        1.17287771258762
C            5.75448204343629       -2.67744187793103        1.18035952206096
C            7.21932514222415       -2.84086743039875        1.55923636689599
C            7.88871720136286       -3.80575101261380        0.56885017049642
C            7.31070924874136       -3.41220761605139        2.98205835507912
C            7.98938353191191       -1.51767301803437        1.52733987489547
C            5.18547911528757       -1.46943788567598        0.82611616229224
C            3.83572296573554       -1.31323121534758        0.48018787403066
B            3.18977699655643        0.01018616203225        0.01217879668395
C            3.82823128623095        1.33825997245896       -0.45277569326167
C            5.17822698359998        1.50392762930839       -0.79321864974485
C            5.74040616406810        2.71608570064015       -1.14406976905189
C            7.20529733080393        2.88951302340966       -1.51816928331895
C            7.98377069533568        1.57127844485045       -1.48538455504022
C            7.29705706713682        3.46290631784277       -2.94013356021402
C            7.86544814485000        3.85768525951200       -0.52481948626783
C            4.89750896441584        3.83106976064599       -1.13779227153161
C            3.55731042200613        3.71387958102028       -0.86168130180213
C            2.99093037466903        2.46989285488226       -0.55504945514211
N            1.62301111609010        2.38295095973011       -0.36730696337361
C            0.84920246684108        3.58234395164763       -0.38299312487843
C            0.41989607596404        4.14162641381387       -1.57966737905735
C           -0.34586315282815        5.29074806747329       -1.56873232285135
C           -0.71100736865092        5.91498019619823       -0.37684822827895
C           -1.55952073889455        7.17641124532767       -0.42276384650928
C           -0.79929127083483        8.26223831164665       -1.19890205772818
C           -2.88501271747656        6.85891078117337       -1.13111730684432
C           -1.88109664273244        7.72261749446407        0.97152740306132
C           -0.27197715175900        5.34120788512246        0.81055659316006
C            0.49899391593673        4.19113832837594        0.81174309293046
C            0.94514686808711        1.19705120786032       -0.19201963956858
C           -0.44934854283255        1.18363207411986       -0.21974952500891
C           -1.12925536698607       -0.00617970414154       -0.00367084515328
N           -2.53308603085172       -0.01227569753883       -0.01123588403830
C           -3.33661092311162       -0.91535306805405       -0.67904686599589
C           -3.00359443367763       -1.97142688289870       -1.51488522763596
C           -4.02821195589911       -2.70319370476383       -2.07974770417131
C           -5.38324772077123       -2.42023411568765       -1.85584068449102
C           -6.44046113473356       -3.28219080757095       -2.53398848163262
C           -7.86752828477397       -2.85284020293386       -2.17859137474224
C           -6.27651880607312       -3.17310526414928       -4.05754965013324
C           -6.26274317757660       -4.74378103532574       -2.09748646909066
C           -5.70436937124011       -1.35053735526363       -1.03684952326548
C           -4.69324896889945       -0.59775509859854       -0.45274951699102
C           -4.70327993439567        0.55546084269845        0.40336701141402
C           -5.72770876950974        1.30040436604377        0.97419088185152
C           -5.42549165237934        2.37349235005558        1.79592360128400
C           -6.49785031135117        3.22804366458051        2.45949344507302
C           -7.91690547719300        2.78767830508841        2.08596297386930
C           -6.35254401497532        3.12154620284491        3.98510754887569
C           -6.32526095496655        4.69050585600502        2.02379633264697
C           -4.07570135370255        2.66759424537286        2.03651321372657
C           -3.03819116602111        1.94369712611113        1.48523842641024
C           -3.35218771698563        0.88432129949348        0.64622584610394
C           -0.44190186005284       -1.19045473949586        0.21910719622133
C            0.95285926832104       -1.19311828556336        0.20332711690126
C            1.67204890055039        0.00471519735224        0.00823206037272
C            0.53607388448275       -4.19270625427334       -0.79871299405153
C           -0.23077974145600       -5.34553099413125       -0.80047825487936
H           -2.70943984223174       -6.54789017314300        2.15036558207261
H           -3.37129675274621       -6.05072217957161        0.59522170793979
H           -3.50413293457842       -7.73312856114785        1.11793291875339
H           -0.58405280985107       -7.94498529907367        2.23937603695170
H            0.17803938693429       -8.47938528583807        0.74246580512181
H           -1.36444150564151       -9.17496466603013        1.24833575310114
H           -2.44346480381186       -8.62733578837362       -0.87514015765534
H           -0.91961208715308       -8.00076107971385       -1.49229291094422
H           -2.38742257630112       -7.00815629923356       -1.56153452527363
H           -0.65091887148537       -5.69673101633646        2.52217717548350
H            0.69547349354097       -3.66026603347676        2.52682732763867
H            2.96370924476818       -4.57718734073759        0.92371957468757
H            5.31367266400125       -4.77509018234926        1.41045711228679
H            8.94491460809504       -3.91642220756681        0.80705613013257
H            7.80123900577218       -3.42238355338467       -0.44622055411914
H            7.42820146440808       -4.78961464738377        0.60151072164234
H            8.35259918247067       -3.53394487297660        3.27249920001608
H            6.82272056115226       -4.38072463370193        3.05250011170071
H            6.83166005194776       -2.73745954152657        3.68926853216949
H            7.99436399160973       -1.09711427269803        0.52469735235521
H            7.55765684546079       -0.79554133003615        2.21699729233118
H            9.02248603566095       -1.69087660236490        1.82363677256525
H            5.78882921873174       -0.57854338221066        0.82996262776489
H            5.78750904425744        0.61707988252748       -0.79565168727337
H            9.01676004384916        1.75149902745886       -1.77785713147459
H            7.55903189097345        0.84735536181096       -2.17750334737130
H            7.98795384271455        1.14936839080241       -0.48331176101948
H            6.82493970637044        2.78546467817428       -3.64944205649179
H            6.80234608205690        4.42797219862845       -3.01112784635001
H            8.33893461876309        3.59231912195080       -3.22725951944548
H            7.77766433740258        3.47256112606411        0.48955482682585
H            8.92155134323318        3.97566025876352       -0.75991788211891
H            7.39847585632828        4.83849039624071       -0.55765986270485
H            5.28663083095620        4.81121865884632       -1.37199105515277
H            2.93628511714741        4.59693379908549       -0.89498315169756
H            0.68919949277725        3.67013285295514       -2.51395543492349
H           -0.66434390106983        5.70178517907267       -2.51446819971981
H           -0.59522612961272        7.95174617780644       -2.21995052906499
H           -1.38669262193329        9.17731790693499       -1.23210159006381
H            0.14967889730537        8.47886712304742       -0.71186143157701
H           -3.40289262658392        6.05228342221629       -0.61587915835112
H           -2.72276918281310        6.55463140763843       -2.16148667125386
H           -3.52740570599967        7.73687585626261       -1.13337540265837
H           -0.97329710300121        7.99186747069739        1.50682930571012
H           -2.49200118125419        8.61807127659988        0.87682624655358
H           -2.43963370043919        6.99593924401672        1.55660219642291
H           -0.52455833810751        5.78200607282919        1.76068694007461
H            0.83214998283564        3.75854408308094        1.74448078139095
H           -1.01020902844272        2.08024202606488       -0.42790238094603
H           -1.97379870119370       -2.21314565961398       -1.73067086948267
H           -3.75922785677533       -3.52426038871726       -2.72739703987873
H           -8.04226821206001       -2.92514057997127       -1.10732522345094
H           -8.57831076115670       -3.50691623921017       -2.68034564429958
H           -8.06233342057085       -1.83345150165656       -2.50428879894778
H           -6.37889095163487       -2.13644202111605       -4.37307149900395
H           -5.30177423437249       -3.53087126754732       -4.37791407528538
H           -7.03910244270752       -3.76476926289565       -4.56023692312413
H           -5.28994322948221       -5.12794446942649       -2.39054325671702
H           -6.35345738234206       -4.82663923595643       -1.01611073180288
H           -7.02669340422550       -5.36792014233848       -2.55692789453178
H           -6.72789034695939       -1.07704265497875       -0.84082141830858
H           -6.74644395655851        1.01838198818844        0.76567961796613
H           -8.10815719982776        1.76706514929944        2.40989511164581
H           -8.07812126927288        2.85787185454542        1.01243136888971
H           -8.63927939712645        3.43657927167825        2.57781112523190
H           -5.38363914544775        3.48463161762446        4.31701475788494
H           -7.12432352338042        3.70985918387883        4.47756058530051
H           -6.45350153646306        2.08470942162383        4.30050766182641
H           -5.35936063178292        5.08223560268136        2.32943395507407
H           -7.09993211151074        5.30940324051229        2.47224288180514
H           -6.40200169452717        4.77151993706711        0.94119348574287
H           -3.82161406909121        3.49153621795983        2.68650945281826
H           -2.01316695154899        2.19405401540130        1.71350620698214
H           -0.99773631180184       -2.09130143272684        0.42226477902635
H            0.87583938885341       -3.76187721149606       -1.72988176248509
H           -0.47348059279920       -5.79035950287500       -1.75130730869818

          :  Hamiltonian                  GFN2-xTB          :
         :: gradient norm              0.000063411714 Eh/a0 ::
         :: HOMO-LUMO gap              2.369615882044 eV    ::
         :: SCC energy              -193.646638830554 Eh    ::
         :: -> dispersion             -0.191894353263 Eh    ::
         :: -> Gsolv                  -0.069882658441 Eh    ::
         :: repulsion energy           3.275420712894 Eh    ::

    * Orbital Energies and Occupations

         #    Occupation            Energy/Eh            Energy/eV
      -------------------------------------------------------------
         1        2.0000           -0.6659130             -18.1204
       ...           ...                  ...                  ...
       167        2.0000           -0.3975542             -10.8180
       168        2.0000           -0.3970335             -10.8038
       169        2.0000           -0.3946163             -10.7381
       170        2.0000           -0.3916054             -10.6561
       171        2.0000           -0.3901350             -10.6161
       172        2.0000           -0.3863681             -10.5136
       173        2.0000           -0.3863477             -10.5131
       174        2.0000           -0.3733735             -10.1600
       175        2.0000           -0.3727441             -10.1429
       176        2.0000           -0.3678382             -10.0094
       177        2.0000           -0.3567544              -9.7078
       178        2.0000           -0.3497880              -9.5182
       179        2.0000           -0.3379403              -9.1958 (HOMO)
       180                         -0.2508585              -6.8262 (LUMO)
       181                         -0.2357270              -6.4145
       182                         -0.2280772              -6.2063
       183                         -0.2270110              -6.1773
       184                         -0.2262450              -6.1564
       185                         -0.2262129              -6.1556
       186                         -0.2165904              -5.8937
       187                         -0.2141677              -5.8278
       188                         -0.2122927              -5.7768
       189                         -0.2051970              -5.5837
       190                         -0.1961484              -5.3375
       ...                                ...                  ...
       356                          0.7474805              20.3400
      -------------------------------------------------------------
                  HL-Gap            0.0870818 Eh            2.3696 eV

     #   Z          covCN         q      C6AA      α(0)
     1   6 C        3.761    -0.106    22.562     6.771
     2   6 C        3.902     0.026    20.078     6.369
     3   6 C        3.761    -0.106    22.575     6.773
     4   6 C        3.761    -0.108    22.614     6.779
     5   6 C        2.973     0.011    27.778     8.645
     6   6 C        2.927    -0.035    28.868     8.811
     7   6 C        2.919    -0.041    29.015     8.833
     8   6 C        2.933     0.064    26.558     8.452
     9   7 N        2.755    -0.059    22.377     7.026
    10   6 C        2.926     0.057    26.720     8.477
    11   6 C        2.917    -0.060    29.493     8.906
    12   6 C        2.927    -0.036    28.906     8.817
    13   6 C        2.968    -0.007    28.202     8.711
    14   6 C        3.902     0.024    20.120     6.376
    15   6 C        3.761    -0.103    22.515     6.764
    16   6 C        3.761    -0.103    22.516     6.764
    17   6 C        3.761    -0.105    22.550     6.769
    18   6 C        2.930    -0.047    29.157     8.855
    19   6 C        2.886    -0.088    30.192     9.008
    20   5 B        2.724     0.188    18.559     7.219
    21   6 C        2.886    -0.088    30.192     9.008
    22   6 C        2.930    -0.047    29.157     8.855
    23   6 C        2.968    -0.007    28.202     8.711
    24   6 C        3.902     0.024    20.120     6.376
    25   6 C        3.761    -0.105    22.550     6.769
    26   6 C        3.761    -0.103    22.516     6.764
    27   6 C        3.761    -0.103    22.515     6.764
    28   6 C        2.927    -0.036    28.906     8.817
    29   6 C        2.917    -0.060    29.493     8.906
    30   6 C        2.926     0.057    26.720     8.477
    31   7 N        2.755    -0.059    22.377     7.026
    32   6 C        2.933     0.064    26.558     8.452
    33   6 C        2.919    -0.041    29.015     8.833
    34   6 C        2.927    -0.035    28.868     8.811
    35   6 C        2.973     0.011    27.778     8.645
    36   6 C        3.902     0.026    20.078     6.369
    37   6 C        3.761    -0.106    22.574     6.773
    38   6 C        3.761    -0.106    22.563     6.771
    39   6 C        3.761    -0.108    22.614     6.779
    40   6 C        2.925    -0.038    28.951     8.824
    41   6 C        2.921    -0.041    29.019     8.834
    42   6 C        2.928     0.062    26.600     8.458
    43   6 C        2.921    -0.088    30.202     9.012
    44   6 C        2.911     0.063    26.586     8.455
    45   7 N        2.803    -0.055    22.305     7.014
    46   6 C        3.080     0.046    26.883     8.500
    47   6 C        2.908    -0.055    29.366     8.886
    48   6 C        2.930    -0.042    29.046     8.838
    49   6 C        2.971    -0.005    28.149     8.703
    50   6 C        3.902     0.024    20.109     6.374
    51   6 C        3.761    -0.106    22.567     6.772
    52   6 C        3.761    -0.104    22.531     6.767
    53   6 C        3.761    -0.103    22.520     6.765
    54   6 C        2.918    -0.047    29.167     8.856
    55   6 C        3.067    -0.023    28.520     8.757
    56   6 C        3.067    -0.023    28.520     8.757
    57   6 C        2.918    -0.047    29.167     8.856
    58   6 C        2.972    -0.005    28.149     8.703
    59   6 C        3.902     0.024    20.109     6.374
    60   6 C        3.761    -0.106    22.567     6.772
    61   6 C        3.761    -0.104    22.532     6.767
    62   6 C        3.761    -0.103    22.521     6.765
    63   6 C        2.930    -0.042    29.046     8.839
    64   6 C        2.908    -0.055    29.366     8.886
    65   6 C        3.080     0.046    26.883     8.500
    66   6 C        2.922    -0.088    30.202     9.012
    67   6 C        2.928     0.062    26.600     8.458
    68   6 C        2.897    -0.111    30.795     9.099
    69   6 C        2.921    -0.041    29.019     8.834
    70   6 C        2.925    -0.038    28.950     8.824
    71   1 H        0.925     0.037     2.488     2.466
    72   1 H        0.925     0.034     2.528     2.487
    73   1 H        0.925     0.041     2.431     2.438
    74   1 H        0.925     0.038     2.480     2.463
    75   1 H        0.925     0.034     2.531     2.488
    76   1 H        0.925     0.041     2.431     2.438
    77   1 H        0.925     0.040     2.450     2.448
    78   1 H        0.925     0.037     2.487     2.466
    79   1 H        0.925     0.037     2.488     2.467
    80   1 H        0.926     0.040     2.454     2.450
    81   1 H        0.926     0.036     2.497     2.471
    82   1 H        0.926     0.017     2.773     2.604
    83   1 H        0.926     0.021     2.720     2.579
    84   1 H        0.925     0.035     2.511     2.478
    85   1 H        0.925     0.031     2.567     2.506
    86   1 H        0.925     0.033     2.540     2.492
    87   1 H        0.925     0.035     2.516     2.481
    88   1 H        0.925     0.033     2.540     2.492
    89   1 H        0.925     0.030     2.580     2.512
    90   1 H        0.925     0.036     2.502     2.474
    91   1 H        0.925     0.034     2.533     2.489
    92   1 H        0.925     0.034     2.528     2.486
    93   1 H        0.926     0.040     2.450     2.448
    94   1 H        0.926     0.040     2.450     2.448
    95   1 H        0.925     0.034     2.528     2.486
    96   1 H        0.925     0.034     2.533     2.489
    97   1 H        0.925     0.036     2.502     2.473
    98   1 H        0.925     0.030     2.580     2.512
    99   1 H        0.925     0.033     2.540     2.492
   100   1 H        0.925     0.035     2.516     2.481
   101   1 H        0.925     0.031     2.567     2.506
   102   1 H        0.925     0.035     2.511     2.478
   103   1 H        0.925     0.033     2.540     2.492
   104   1 H        0.926     0.021     2.720     2.579
   105   1 H        0.926     0.017     2.773     2.604
   106   1 H        0.926     0.036     2.497     2.471
   107   1 H        0.926     0.040     2.455     2.450
   108   1 H        0.925     0.038     2.480     2.463
   109   1 H        0.925     0.041     2.431     2.438
   110   1 H        0.925     0.034     2.532     2.488
   111   1 H        0.925     0.034     2.528     2.486
   112   1 H        0.925     0.037     2.487     2.466
   113   1 H        0.925     0.041     2.431     2.438
   114   1 H        0.925     0.037     2.487     2.466
   115   1 H        0.925     0.040     2.450     2.448
   116   1 H        0.925     0.037     2.488     2.467
   117   1 H        0.926     0.047     2.360     2.402
   118   1 H        0.926     0.035     2.521     2.483
   119   1 H        0.926     0.025     2.662     2.551
   120   1 H        0.926     0.023     2.682     2.561
   121   1 H        0.926     0.026     2.637     2.539
   122   1 H        0.925     0.035     2.520     2.482
   123   1 H        0.925     0.036     2.505     2.475
   124   1 H        0.925     0.034     2.525     2.485
   125   1 H        0.925     0.031     2.575     2.509
   126   1 H        0.925     0.035     2.518     2.482
   127   1 H        0.925     0.037     2.488     2.467
   128   1 H        0.925     0.035     2.516     2.481
   129   1 H        0.925     0.032     2.562     2.503
   130   1 H        0.925     0.037     2.490     2.468
   131   1 H        0.926     0.035     2.523     2.484
   132   1 H        0.926     0.035     2.523     2.484
   133   1 H        0.925     0.034     2.525     2.485
   134   1 H        0.925     0.035     2.520     2.482
   135   1 H        0.925     0.036     2.505     2.475
   136   1 H        0.925     0.035     2.518     2.482
   137   1 H        0.925     0.037     2.488     2.467
   138   1 H        0.925     0.031     2.574     2.509
   139   1 H        0.925     0.035     2.516     2.481
   140   1 H        0.925     0.037     2.490     2.468
   141   1 H        0.925     0.032     2.563     2.503
   142   1 H        0.926     0.026     2.637     2.539
   143   1 H        0.926     0.023     2.682     2.561
   144   1 H        0.926     0.025     2.661     2.551
   145   1 H        0.926     0.035     2.521     2.483
   146   1 H        0.926     0.047     2.360     2.402

molecular dipole:
                 x           y           z       tot (Debye)
 q only:       -0.449      -0.000       0.000
   full:       -0.440       0.000       0.000       1.119

 projected vibrational frequencies (cm⁻¹)
eigval :       -0.00    -0.00     0.00     0.00     0.00     0.00
eigval :        9.15    12.39    13.84    17.90    21.93    23.22
eigval :       25.26    26.79    27.29    34.56    35.68    38.13
eigval :       40.10    41.54    41.62    58.02    59.39    65.67
eigval :       67.12    73.64    75.07    75.67    90.50    91.28
eigval :       94.79   101.92   105.53   125.91   128.28   153.86
eigval :      156.89   159.96   166.00   167.45   174.33   179.10
eigval :      181.46   182.00   182.89   194.28   197.09   198.98
eigval :      210.50   213.87   215.92   223.27   225.96   228.69
eigval :      228.94   231.33   232.47   233.75   235.58   240.01
eigval :      248.36   251.02   257.31   261.60   267.49   273.03
eigval :      281.53   289.45   299.12   309.33   311.38   314.27
eigval :      315.58   318.29   319.05   319.58   321.67   324.87
eigval :      329.13   336.96   345.88   347.66   348.56   357.73
eigval :      359.76   360.39   361.95   367.45   375.53   376.19
eigval :      380.55   381.59   383.41   396.15   400.07   400.41
eigval :      406.27   410.72   414.14   416.34   427.31   431.34
eigval :      441.18   441.35   445.08   447.71   451.21   456.58
eigval :      457.10   462.21   466.64   468.82   472.65   474.59
eigval :      489.62   495.73   516.59   519.55   527.01   529.50
eigval :      548.36   553.82   567.93   568.90   580.50   581.23
eigval :      589.25   589.54   595.77   600.32   613.03   617.18
eigval :      618.81   624.43   639.74   644.21   650.63   664.94
eigval :      665.08   684.66   687.98   699.45   702.25   708.66
eigval :      709.24   712.72   718.95   720.31   729.54   733.95
eigval :      776.43   798.21   812.60   813.86   817.99   820.40
eigval :      822.47   823.69   831.59   831.97   845.77   867.43
eigval :      869.87   870.09   870.42   870.57   872.96   874.13
eigval :      874.14   874.74   881.06   896.33   906.44   913.38
eigval :      913.55   914.01   914.29   921.96   923.14   924.05
eigval :      927.96   928.14   932.03   932.56   935.69   947.58
eigval :      958.91   958.98   959.15   959.17   959.34   960.00
eigval :      960.24   962.28   962.38   962.48   962.82   962.87
eigval :      963.42   963.54   964.45   964.61   965.24   965.29
eigval :      970.34  1011.57  1015.15  1031.46  1033.89  1034.07
eigval :     1034.79  1034.88  1035.36  1035.48  1035.55  1035.68
eigval :     1035.94  1036.59  1037.14  1042.01  1045.96  1096.65
eigval :     1108.20  1120.52  1129.44  1138.97  1139.22  1143.13
eigval :     1143.29  1144.17  1147.79  1158.96  1169.25  1176.71
eigval :     1189.28  1197.66  1199.09  1202.00  1215.83  1225.09
eigval :     1225.59  1225.68  1225.79  1225.95  1225.97  1226.55
eigval :     1230.41  1231.14  1231.63  1231.93  1231.95  1232.30
eigval :     1238.70  1242.17  1246.10  1250.79  1254.96  1264.86
eigval :     1274.16  1274.23  1277.43  1280.11  1282.28  1283.93
eigval :     1291.02  1294.90  1295.04  1302.21  1308.40  1309.22
eigval :     1310.13  1314.18  1316.67  1334.02  1346.14  1348.57
eigval :     1350.52  1354.67  1358.83  1386.85  1395.23  1395.34
eigval :     1397.66  1400.45  1401.75  1402.33  1402.49  1402.85
eigval :     1403.12  1403.43  1403.48  1404.34  1406.18  1406.27
eigval :     1408.26  1412.75  1424.19  1426.79  1426.81  1426.87
eigval :     1426.92  1427.95  1428.60  1429.19  1433.32  1455.79
eigval :     1459.30  1480.20  1481.58  1485.10  1486.11  1487.27
eigval :     1489.37  1489.45  1489.73  1490.22  1490.84  1491.00
eigval :     1491.69  1491.86  1493.40  1493.54  1494.09  1494.86
eigval :     1498.11  1499.84  1500.01  1500.20  1500.72  1501.86
eigval :     1503.31  1503.72  1504.20  1504.30  1504.34  1504.62
eigval :     1509.54  1511.14  1511.35  1511.46  1511.87  1512.09
eigval :     1516.54  1516.63  1517.15  1518.87  1519.63  1520.41
eigval :     1535.80  1541.31  1543.52  1563.84  1567.27  1569.14
eigval :     1569.20  1579.88  1597.46  1599.65  1601.32  1601.66
eigval :     1602.94  1617.05  3015.58  3015.74  3016.47  3016.48
eigval :     3017.88  3018.10  3019.28  3019.66  3021.18  3021.32
eigval :     3021.84  3022.05  3022.27  3022.28  3022.55  3022.58
eigval :     3022.99  3023.00  3023.81  3024.00  3024.61  3024.77
eigval :     3026.16  3026.17  3026.27  3026.35  3028.01  3028.02
eigval :     3029.42  3029.56  3029.95  3030.34  3030.37  3030.60
eigval :     3033.51  3033.57  3033.93  3034.35  3034.48  3038.92
eigval :     3039.68  3039.82  3041.42  3041.46  3044.70  3044.77
eigval :     3044.83  3045.00  3045.13  3045.38  3048.32  3048.46
eigval :     3050.16  3051.24  3069.13  3069.20  3074.73  3074.94
eigval :     3075.78  3075.84  3077.68  3077.77  3085.15  3085.85
eigval :     3086.93  3088.09  3091.67  3091.82  3109.87  3111.24
eigval :     3111.59  3114.07  3115.90  3115.94  3130.95  3136.82

   temp. (K)  partition function   enthalpy   heat capacity  entropy
                                   cal/mol     cal/K/mol   cal/K/mol   J/K/mol
 298.15  VIB  0.158E+33            42031.433    256.584    259.967
         ROT  0.131E+09              888.752      2.981     40.118
         INT  0.207E+41            42920.186    259.565    300.084
         TR   0.271E+29             1481.254      4.968     46.319
         TOT                       44401.4397   264.5327   346.4034  1449.3517

       T/K    H(0)-H(T)+PV         H(T)/Eh          T*S/Eh         G(T)/Eh
   ------------------------------------------------------------------------
    298.15    0.707582E-01    0.130554E+01    0.164587E+00    0.114095E+01
   ------------------------------------------------------------------------

         :::::::::::::::::::::::::::::::::::::::::::::::::::::
         ::                  THERMODYNAMIC                  ::
         :::::::::::::::::::::::::::::::::::::::::::::::::::::
         :: total free energy        -189.230264398845 Eh   ::
         ::.................................................::
         :: total energy             -190.371218119673 Eh   ::
         :: zero point energy           1.234782940920 Eh   ::
         :: G(RRHO) w/o ZPVE           -0.093829220092 Eh   ::
         :: G(RRHO) contrib.            1.140953720827 Eh   ::
         :::::::::::::::::::::::::::::::::::::::::::::::::::::

           -------------------------------------------------
          | TOTAL ENERGY             -190.371218119673 Eh   |
          | TOTAL ENTHALPY           -189.065676980624 Eh   |
          | TOTAL FREE ENERGY        -189.230264398845 Eh   |
          | GRADIENT NORM               0.000063413255 Eh/α |
          | HOMO-LUMO GAP               2.369616356938 eV   |
           -------------------------------------------------

 * finished run on 2025/09/08 at 19:19:40.792
