   * xtb version 6.7.1 (edcfbbe) compiled by 'albert@albert-system' on 2024-07-22

   ID    Z sym.   atoms
    1    6 C      1-8, 10-19, 21-30, 32-44, 46-70
    2    7 N      9, 31, 45
    3    5 B      20
    4    1 H      71-146

          program call               : xtb data2507/toluene/TBN-TPA/TBN-TPA_toluene_S0_finalOpt.xtbopt.xyz --gfn 2 --uhf 2 --gbsa toluene --ohess vtight --parallel 40 --molden --ceasefiles --namespace data2507/toluene/TBN-TPA/TBN-TPA_toluene_T1_preOpt
      * Solvation model:               GBSA
        Solvent                        toluene
        Solvent mass                       9.2140E+01 g/mol
          :  Hamiltonian                  GFN2-xTB          :
 * total energy  :  -190.2780545 Eh     change       -0.3452101E-08 Eh
 * total energy  :  -190.2789999 Eh     change       -0.9453178E-03 Eh
 * total energy  :  -190.2792247 Eh     change       -0.2248246E-03 Eh
 * total energy  :  -190.2792427 Eh     change       -0.1807032E-04 Eh
 * total energy  :  -190.2792541 Eh     change       -0.1133184E-04 Eh
 * total energy  :  -190.2792583 Eh     change       -0.4232323E-05 Eh
 * total energy  :  -190.2792689 Eh     change       -0.1059074E-04 Eh
 * total energy  :  -190.2792738 Eh     change       -0.4929112E-05 Eh
 * total energy  :  -190.2792852 Eh     change       -0.1135155E-04 Eh
 * total energy  :  -190.2792946 Eh     change       -0.9376898E-05 Eh
 * total energy  :  -190.2793434 Eh     change       -0.6433802E-06 Eh
 * total energy  :  -190.2793439 Eh     change       -0.4955173E-06 Eh
 * total energy  :  -190.2793444 Eh     change       -0.4397874E-06 Eh
 * total energy  :  -190.2793448 Eh     change       -0.4092277E-06 Eh
 * total energy  :  -190.2793451 Eh     change       -0.3607997E-06 Eh
 * total energy  :  -190.2793454 Eh     change       -0.2893977E-06 Eh
 * total energy  :  -190.2793457 Eh     change       -0.2403160E-06 Eh
 * total energy  :  -190.2793459 Eh     change       -0.2040902E-06 Eh
 * total energy  :  -190.2793459 Eh     change       -0.2524786E-08 Eh
   *** GEOMETRY OPTIMIZATION CONVERGED AFTER 44 ITERATIONS ***

 final structure:
================
146
 xtb: 6.7.1 (edcfbbe)
C           -2.83821349708061       -6.84932683846596        1.24353577474625
C           -1.53901687934200       -7.16409233756813        0.48679302159695
C           -0.75828076942986       -8.26354261825524        1.22235785129049
C           -1.90918745730187       -7.69133183803920       -0.90261134066767
C           -0.68948184147520       -5.90431875397764        0.42787593786865
C           -0.25670780556071       -5.31196984685523        1.61378754495024
C            0.51340989291653       -4.16616397422823        1.61335209361514
C            0.87508064900735       -3.57348308696372        0.40946209230908
N            1.64939449358540       -2.37844522615646        0.38069871202612
C            3.01596276686510       -2.46480446162384        0.56313335667637
C            3.58577662016942       -3.70914855865520        0.84530255021791
C            4.93554015730122       -3.82735168219997        1.12057809800644
C            5.76388641022213       -2.70125926913697        1.14879550011471
C            7.22919479805859       -2.86786237367911        1.51690436796707
C            7.89513594030662       -3.81799457801349        0.50943911258198
C            7.32398696319988       -3.46285294495362        2.93042474235380
C            8.00155530518408       -1.54573746594068        1.50414771249429
C            5.19607665847167       -1.47986824587717        0.81831020600331
C            3.84753444782040       -1.31229244353984        0.46348506068273
B            3.20524284745882        0.01054460381590        0.01095086651652
C            3.84162469344573        1.33754665353536       -0.43777964471155
C            5.19101645104428        1.51378862810279       -0.78505540239853
C            5.75299371391616        2.73895333388429       -1.11150136207779
C            7.21918066259634        2.91489201405767       -1.47172442698259
C            7.99975528288570        1.59764239109861       -1.45510539724385
C            7.31751228049752        3.51065610398609       -2.88466922160403
C            7.87395494102940        3.86907936316666       -0.46079684469128
C            4.91750713133302        3.85984688981912       -1.08678573587994
C            3.56703694688030        3.73303662207863       -0.81891297578723
C            3.00334196534382        2.48483361305142       -0.54151413956958
N            1.63621052514364        2.38943762299138       -0.36795153122991
C            0.85455284720262        3.57954050089214       -0.39917777701822
C            0.49917677073505        4.17434026059590       -1.60393258208102
C           -0.27668345711663        5.31624757030797       -1.60667576219678
C           -0.72135889379597        5.90277691010355       -0.42225270101192
C           -1.57529995236491        7.15945142612389       -0.48362830761109
C           -0.79290566313266        8.26419826192777       -1.20946627976920
C           -2.86741650068532        6.84245293206109       -1.25144388268555
C           -1.95807326930750        7.68074725846791        0.90460441866917
C           -0.35661431662913        5.29330575892070        0.77294198145073
C            0.41909618799287        4.14737477440504        0.78915774489583
C            0.95454855405531        1.19284326583790       -0.19131181016432
C           -0.43762361912621        1.18496894302630       -0.22911144732772
C           -1.13919830850684       -0.00418982874917       -0.00687229070078
N           -2.53824526703118       -0.00962845922722       -0.01443139703640
C           -3.34331117961772       -0.91584473701299       -0.67752364668765
C           -3.00997870575274       -1.97590338020938       -1.50708495375742
C           -4.03335038727720       -2.71114694904783       -2.07008217342220
C           -5.38968802073427       -2.42840251312037       -1.84446459419193
C           -6.44583972901737       -3.29263457159908       -2.52107156301084
C           -7.87360337327600       -2.86545112732362       -2.16577588482044
C           -6.28294019863076       -3.18414761984270       -4.04490604323538
C           -6.26578383205742       -4.75383127444986       -2.08400758197811
C           -5.71183650873330       -1.35796968830090       -1.02783569910057
C           -4.70189824902163       -0.59743680237138       -0.44909755463431
C           -4.71138268738997        0.55942594196718        0.39721328339152
C           -5.73397224653807        1.31132424998122        0.96493208912969
C           -5.42977976482095        2.38484075908229        1.78438558282234
C           -6.50036099096920        3.24046995094610        2.44916116913478
C           -7.92060222141161        2.80063601125205        2.07944764407998
C           -6.35219387280685        3.13484681547890        3.97468715781154
C           -6.32817597418830        4.70272458583318        2.01244700051958
C           -4.07840576617393        2.67947952762036        2.02412779285887
C           -3.04277046721264        1.95296085000991        1.47235105329504
C           -3.35808204570670        0.88967235238519        0.63988483563720
C           -0.43138410574375       -1.18833319312476        0.22250241546090
C            0.96109085242152       -1.18666523883274        0.19756547802194
C            1.69283262804504        0.00558053264770        0.00600129302792
C            0.45253254769528       -4.14779518718148       -0.78040628423781
C           -0.31774958842600       -5.29742270747630       -0.76646840732150
H           -2.63799709945460       -6.54808041047855        2.26819380889883
H           -3.37490740660703       -6.04130935202242        0.74988657774273
H           -3.47995097357343       -7.72746666100865        1.26595033726006
H           -0.52481968975012       -7.97241043035476        2.24270044785195
H            0.17594029353691       -8.47265717249743        0.70451817549536
H           -1.34584364009476       -9.17846404755674        1.25617882823048
H           -2.51161844371373       -8.59148382877873       -0.79892276233917
H           -1.02015991825673       -7.94697155195495       -1.47489231567786
H           -2.49322198672788       -6.95976050857498       -1.45552641822286
H           -0.52491246851275       -5.74617121425335        2.56463056831259
H            0.83706686579608       -3.72128192997364        2.54328848028708
H            2.97253785234548       -4.59768508991215        0.86144984996502
H            5.32997851115302       -4.80933238824128        1.33284156844422
H            8.95212467071645       -3.93100516848879        0.74288256236856
H            7.80389994362661       -3.41885470875401       -0.49915524893956
H            7.43530580443576       -4.80240414027443        0.52867194261359
H            8.36691106848539       -3.59151864518112        3.21390513831122
H            6.83331098849853       -4.43084465099138        2.98672178803257
H            6.84956136349498       -2.79796578634832        3.64993185522403
H            8.00036039552235       -1.10685646608520        0.50940501115250
H            7.57565687487351       -0.83522894531613        2.20926031445119
H            9.03622322992702       -1.72641116382344        1.79043348592348
H            5.80182308435887       -0.59127268724868        0.83782683657438
H            5.80238491240027        0.62899856588588       -0.80188502254257
H            9.03488101982897        1.78485350595652       -1.73550170655209
H            7.58222920125497        0.88480483312292       -2.16286287719590
H            7.99567780106942        1.15834988127102       -0.46055265779501
H            6.85046688407723        2.84311702199357       -3.60655648927066
H            6.82143564988074        4.47576579857654       -2.94322201314709
H            8.36104266981024        3.64544334333195       -3.16301345636209
H            7.78085723640030        3.46888649501213        0.54720085342309
H            8.93120639708371        3.98939747053245       -0.68934742071336
H            7.40753670691562        4.85034344074105       -0.48172007890490
H            5.30703108459700        4.84445187682205       -1.29595708525754
H            2.94846206254398        4.61779534564784       -0.83758203134278
H            0.83247176631800        3.73425467192801       -2.53274544623105
H           -0.53959042260401        5.75222827157150       -2.55818874755744
H           -0.55085330128891        7.97749751158828       -2.22906025247451
H           -1.38327853303415        9.17726731944403       -1.24443303500340
H            0.13671174389454        8.47461287324460       -0.68392331946970
H           -3.40543167178697        6.03150993137405       -0.76408833720742
H           -2.65807693631570        6.54440503197617       -2.27521434902532
H           -3.51181094596006        7.71856945854663       -1.27680488425137
H           -1.07438031501403        7.93777990048758        1.48447384920043
H           -2.56303375887658        8.57900975682877        0.79924094246711
H           -2.54357667136309        6.94524214082687        1.45070782126302
H           -0.67251995856885        5.70301400577394        1.71790039944531
H            0.69405283477585        3.68709272194876        1.72746779471330
H           -0.99476944408064        2.08452427326913       -0.43733488921565
H           -1.97978938456530       -2.21709773945875       -1.72286432886425
H           -3.76437314992264       -3.53254409329918       -2.71710638874731
H           -8.04877478143638       -2.93907741401724       -1.09463888747784
H           -8.58353062581583       -3.51958740445146       -2.66873641803108
H           -8.06935362928562       -1.84581635003164       -2.49020171148197
H           -6.38861694443683       -2.14794069252267       -4.36091224699746
H           -5.30718964412072       -3.53898036626574       -4.36549299852921
H           -7.04392649143592       -3.77842699977678       -4.54699161720108
H           -5.29334595482128       -5.13717579834013       -2.37927140208209
H           -6.35354837777848       -4.83596497277542       -1.00231519354608
H           -7.03032333491142       -5.37904200736312       -2.54108515520845
H           -6.73588632336200       -1.08781574736770       -0.82943627026699
H           -6.75348021371407        1.03218104668888        0.75583555061265
H           -8.11074615124595        1.77953826890318        2.40259127928332
H           -8.08517233520043        2.87199161153689        1.00648129105182
H           -8.64157466751400        3.44880014966708        2.57440102403379
H           -5.38233036015954        3.49720604699448        4.30457778845751
H           -7.12253398959974        3.72406385859961        4.46838152108335
H           -6.45341046881025        2.09822662224027        4.29079456896239
H           -5.36207681833068        5.09446620342509        2.31733872316412
H           -7.10258237296691        5.32193635590134        2.46098253439151
H           -6.40540236912433        4.78305699393360        0.92981151103977
H           -3.82352206421605        3.50357006571840        2.67341898816878
H           -2.01705717450002        2.20332625105092        1.69874187302695
H           -0.98432631397240       -2.09165841152361        0.42549479334783
H            0.73287455233930       -3.68938155744580       -1.71802977881638
H           -0.62408908061804       -5.71189076970530       -1.71249438080506

          :  Hamiltonian                  GFN2-xTB          :
         :: gradient norm              0.000030229825 Eh/a0 ::
         :: HOMO-LUMO gap              0.352137318268 eV    ::
         :: SCC energy              -193.538600419494 Eh    ::
         :: -> dispersion             -0.191934109514 Eh    ::
         :: -> Gsolv                  -0.070001884146 Eh    ::
         :: repulsion energy           3.259254542756 Eh    ::

    * Orbital Energies and Occupations

         #    Occupation            Energy/Eh            Energy/eV
      -------------------------------------------------------------
         1        2.0000           -0.6654845             -18.1088
       ...           ...                  ...                  ...
       168        2.0000           -0.3967342             -10.7957
       169        2.0000           -0.3930452             -10.6953
       170        2.0000           -0.3922414             -10.6734
       171        2.0000           -0.3902394             -10.6190
       172        2.0000           -0.3837577             -10.4426
       173        2.0000           -0.3817540             -10.3881
       174        2.0000           -0.3696406             -10.0584
       175        2.0000           -0.3678234             -10.0090
       176        2.0000           -0.3656323              -9.9494
       177        2.0000           -0.3559212              -9.6851
       178        1.9626           -0.3493135              -9.5053
       179        1.0374           -0.3431437              -9.3374
       180        0.9989           -0.2473884              -6.7318 (HOMO)
       181        0.0011           -0.2344477              -6.3796 (LUMO)
       182        0.0000           -0.2305423              -6.2734
       183        0.0000           -0.2290441              -6.2326
       184        0.0000           -0.2280137              -6.2046
       185        0.0000           -0.2279694              -6.2034
       186                         -0.2198353              -5.9820
       187                         -0.2149951              -5.8503
       188                         -0.2108148              -5.7366
       189                         -0.2027075              -5.5160
       190                         -0.1960530              -5.3349
       191                         -0.1785821              -4.8595
       ...                                ...                  ...
       356                          0.7488683              20.3777
      -------------------------------------------------------------
                  HL-Gap            0.0129407 Eh            0.3521 eV

     #   Z          covCN         q      C6AA      α(0)
     1   6 C        3.761    -0.106    22.566     6.772
     2   6 C        3.902     0.026    20.074     6.369
     3   6 C        3.761    -0.106    22.581     6.774
     4   6 C        3.761    -0.108    22.619     6.780
     5   6 C        2.973     0.011    27.767     8.644
     6   6 C        2.927    -0.034    28.853     8.809
     7   6 C        2.919    -0.040    28.998     8.831
     8   6 C        2.932     0.062    26.620     8.462
     9   7 N        2.755    -0.035    21.928     6.955
    10   6 C        2.923     0.059    26.686     8.472
    11   6 C        2.915    -0.063    29.571     8.917
    12   6 C        2.923    -0.048    29.204     8.862
    13   6 C        2.967     0.004    27.926     8.668
    14   6 C        3.902     0.024    20.113     6.375
    15   6 C        3.761    -0.102    22.503     6.762
    16   6 C        3.761    -0.102    22.503     6.762
    17   6 C        3.761    -0.104    22.543     6.768
    18   6 C        2.925    -0.061    29.505     8.908
    19   6 C        2.883    -0.073    29.816     8.952
    20   5 B        2.724     0.138    19.312     7.364
    21   6 C        2.883    -0.073    29.816     8.952
    22   6 C        2.925    -0.061    29.505     8.908
    23   6 C        2.967     0.004    27.926     8.668
    24   6 C        3.902     0.024    20.113     6.375
    25   6 C        3.761    -0.104    22.543     6.768
    26   6 C        3.761    -0.102    22.503     6.762
    27   6 C        3.761    -0.102    22.504     6.762
    28   6 C        2.923    -0.048    29.204     8.862
    29   6 C        2.915    -0.063    29.571     8.917
    30   6 C        2.923     0.059    26.686     8.472
    31   7 N        2.755    -0.035    21.928     6.955
    32   6 C        2.932     0.062    26.621     8.462
    33   6 C        2.919    -0.040    28.998     8.831
    34   6 C        2.927    -0.034    28.854     8.809
    35   6 C        2.973     0.011    27.768     8.644
    36   6 C        3.902     0.026    20.074     6.369
    37   6 C        3.761    -0.106    22.581     6.774
    38   6 C        3.761    -0.106    22.566     6.772
    39   6 C        3.761    -0.108    22.619     6.780
    40   6 C        2.925    -0.038    28.933     8.821
    41   6 C        2.921    -0.040    28.999     8.831
    42   6 C        2.925     0.052    26.826     8.494
    43   6 C        2.919    -0.063    29.558     8.915
    44   6 C        2.906     0.041    27.089     8.534
    45   7 N        2.799    -0.051    22.223     7.001
    46   6 C        3.080     0.042    26.972     8.514
    47   6 C        2.908    -0.055    29.366     8.886
    48   6 C        2.930    -0.045    29.108     8.848
    49   6 C        2.971    -0.006    28.165     8.705
    50   6 C        3.902     0.024    20.112     6.375
    51   6 C        3.761    -0.105    22.558     6.771
    52   6 C        3.761    -0.104    22.525     6.766
    53   6 C        3.761    -0.103    22.514     6.764
    54   6 C        2.917    -0.048    29.182     8.859
    55   6 C        3.065    -0.025    28.564     8.764
    56   6 C        3.065    -0.025    28.564     8.764
    57   6 C        2.917    -0.048    29.182     8.858
    58   6 C        2.971    -0.006    28.166     8.705
    59   6 C        3.902     0.024    20.112     6.375
    60   6 C        3.761    -0.105    22.558     6.771
    61   6 C        3.761    -0.104    22.525     6.766
    62   6 C        3.761    -0.103    22.514     6.764
    63   6 C        2.930    -0.045    29.108     8.848
    64   6 C        2.908    -0.055    29.366     8.886
    65   6 C        3.080     0.042    26.972     8.514
    66   6 C        2.919    -0.063    29.559     8.916
    67   6 C        2.925     0.052    26.825     8.494
    68   6 C        2.895    -0.107    30.697     9.084
    69   6 C        2.921    -0.040    28.998     8.831
    70   6 C        2.925    -0.038    28.933     8.821
    71   1 H        0.925     0.037     2.484     2.465
    72   1 H        0.925     0.034     2.525     2.485
    73   1 H        0.925     0.042     2.426     2.436
    74   1 H        0.925     0.038     2.475     2.460
    75   1 H        0.925     0.034     2.528     2.487
    76   1 H        0.925     0.042     2.428     2.437
    77   1 H        0.925     0.040     2.446     2.446
    78   1 H        0.925     0.037     2.484     2.465
    79   1 H        0.925     0.037     2.484     2.464
    80   1 H        0.926     0.042     2.428     2.437
    81   1 H        0.926     0.038     2.475     2.460
    82   1 H        0.926     0.015     2.809     2.621
    83   1 H        0.926     0.016     2.796     2.615
    84   1 H        0.925     0.036     2.500     2.473
    85   1 H        0.925     0.032     2.561     2.503
    86   1 H        0.925     0.034     2.528     2.486
    87   1 H        0.925     0.036     2.502     2.473
    88   1 H        0.925     0.034     2.525     2.485
    89   1 H        0.925     0.031     2.571     2.507
    90   1 H        0.925     0.036     2.497     2.471
    91   1 H        0.925     0.034     2.526     2.486
    92   1 H        0.925     0.034     2.529     2.487
    93   1 H        0.926     0.035     2.513     2.479
    94   1 H        0.926     0.035     2.513     2.479
    95   1 H        0.925     0.034     2.529     2.487
    96   1 H        0.925     0.034     2.526     2.486
    97   1 H        0.925     0.036     2.497     2.471
    98   1 H        0.925     0.031     2.571     2.507
    99   1 H        0.925     0.034     2.525     2.485
   100   1 H        0.925     0.036     2.502     2.473
   101   1 H        0.925     0.032     2.561     2.503
   102   1 H        0.925     0.036     2.500     2.473
   103   1 H        0.925     0.034     2.528     2.486
   104   1 H        0.926     0.016     2.796     2.615
   105   1 H        0.926     0.015     2.808     2.621
   106   1 H        0.926     0.038     2.475     2.460
   107   1 H        0.926     0.042     2.429     2.437
   108   1 H        0.925     0.038     2.475     2.460
   109   1 H        0.925     0.042     2.429     2.437
   110   1 H        0.925     0.034     2.529     2.487
   111   1 H        0.925     0.034     2.525     2.485
   112   1 H        0.925     0.037     2.484     2.465
   113   1 H        0.925     0.042     2.426     2.436
   114   1 H        0.925     0.037     2.484     2.465
   115   1 H        0.925     0.040     2.447     2.446
   116   1 H        0.925     0.037     2.484     2.465
   117   1 H        0.926     0.049     2.336     2.390
   118   1 H        0.926     0.036     2.500     2.473
   119   1 H        0.926     0.033     2.540     2.492
   120   1 H        0.926     0.021     2.712     2.575
   121   1 H        0.926     0.025     2.666     2.553
   122   1 H        0.925     0.034     2.526     2.485
   123   1 H        0.925     0.035     2.512     2.479
   124   1 H        0.925     0.034     2.531     2.488
   125   1 H        0.925     0.031     2.579     2.511
   126   1 H        0.925     0.035     2.520     2.483
   127   1 H        0.925     0.037     2.495     2.470
   128   1 H        0.925     0.035     2.518     2.481
   129   1 H        0.925     0.031     2.566     2.505
   130   1 H        0.925     0.036     2.497     2.471
   131   1 H        0.926     0.032     2.554     2.499
   132   1 H        0.926     0.032     2.554     2.499
   133   1 H        0.925     0.034     2.531     2.488
   134   1 H        0.925     0.034     2.526     2.485
   135   1 H        0.925     0.035     2.512     2.479
   136   1 H        0.925     0.035     2.520     2.482
   137   1 H        0.925     0.037     2.495     2.470
   138   1 H        0.925     0.031     2.579     2.511
   139   1 H        0.925     0.035     2.518     2.481
   140   1 H        0.925     0.036     2.497     2.471
   141   1 H        0.925     0.031     2.566     2.505
   142   1 H        0.926     0.024     2.666     2.553
   143   1 H        0.926     0.021     2.713     2.576
   144   1 H        0.926     0.033     2.540     2.492
   145   1 H        0.926     0.036     2.500     2.473
   146   1 H        0.926     0.049     2.336     2.390

molecular dipole:
                 x           y           z       tot (Debye)
 q only:       -0.460      -0.003       0.002
   full:       -0.468      -0.002       0.002       1.191

 projected vibrational frequencies (cm⁻¹)
eigval :       -0.00    -0.00    -0.00     0.00     0.00     0.00
eigval :        5.94    12.75    13.84    16.07    22.62    23.91
eigval :       24.64    25.39    28.05    32.92    37.20    38.43
eigval :       39.94    41.17    42.21    57.06    59.18    65.64
eigval :       66.41    68.68    74.02    74.69    89.48    90.44
eigval :       96.41   101.88   104.31   124.53   127.52   149.94
eigval :      155.78   158.46   163.60   167.49   173.83   177.76
eigval :      178.46   178.92   181.06   192.53   194.61   198.35
eigval :      209.04   211.98   212.61   222.77   226.13   227.74
eigval :      227.94   229.41   231.43   234.16   236.40   239.79
eigval :      244.92   251.02   256.03   257.72   260.73   272.63
eigval :      279.11   285.68   295.09   308.94   309.82   313.44
eigval :      316.69   317.69   318.71   318.96   321.15   323.71
eigval :      328.68   337.05   344.34   346.38   347.66   350.92
eigval :      353.58   359.59   360.41   365.53   371.22   373.78
eigval :      377.20   380.59   382.20   393.00   393.27   397.47
eigval :      398.43   406.90   408.40   414.48   421.83   427.05
eigval :      429.89   438.76   441.22   445.85   446.39   454.61
eigval :      456.42   461.36   462.08   466.33   469.43   469.69
eigval :      485.28   492.53   507.58   515.67   523.73   525.73
eigval :      527.16   551.95   555.73   560.20   576.73   579.29
eigval :      582.91   587.70   590.79   596.79   609.04   610.67
eigval :      615.23   616.03   635.30   637.50   643.86   659.64
eigval :      661.77   662.61   683.77   689.27   697.55   699.89
eigval :      703.71   707.06   716.17   717.54   727.81   729.39
eigval :      770.08   786.26   792.75   794.93   799.69   813.61
eigval :      815.43   819.27   821.71   830.73   841.48   844.23
eigval :      864.48   866.95   867.75   869.19   869.28   870.63
eigval :      870.79   872.31   872.41   878.56   879.92   880.87
eigval :      900.55   909.87   911.10   913.05   913.75   918.96
eigval :      924.18   924.88   927.62   927.76   932.40   943.98
eigval :      957.74   958.45   958.69   959.02   959.56   959.63
eigval :      960.70   962.22   962.31   962.52   962.73   962.90
eigval :      963.46   964.36   964.78   964.96   965.15   965.24
eigval :      965.44  1007.03  1012.54  1030.34  1030.75  1032.20
eigval :     1033.40  1034.76  1034.88  1035.00  1035.21  1035.40
eigval :     1035.56  1035.86  1036.70  1038.28  1041.15  1088.20
eigval :     1088.27  1114.84  1128.29  1133.43  1136.85  1138.91
eigval :     1139.71  1143.37  1143.65  1153.19  1161.42  1175.18
eigval :     1182.29  1190.16  1197.64  1199.31  1203.22  1220.46
eigval :     1221.08  1222.70  1224.91  1225.14  1225.32  1225.77
eigval :     1225.79  1227.94  1228.42  1229.30  1231.29  1231.76
eigval :     1231.82  1237.77  1240.38  1244.72  1246.36  1255.88
eigval :     1258.59  1265.13  1273.46  1273.69  1277.75  1279.55
eigval :     1282.87  1285.28  1287.27  1295.29  1302.01  1305.74
eigval :     1307.11  1308.97  1312.17  1312.40  1312.58  1339.83
eigval :     1347.99  1348.30  1357.98  1358.48  1370.59  1375.81
eigval :     1383.04  1395.09  1395.26  1400.31  1401.11  1401.24
eigval :     1401.85  1402.94  1403.63  1403.92  1404.05  1404.32
eigval :     1404.45  1405.91  1406.16  1410.54  1413.33  1418.16
eigval :     1425.85  1426.27  1427.01  1427.04  1428.53  1428.71
eigval :     1441.80  1448.11  1469.26  1476.09  1477.92  1481.30
eigval :     1483.49  1485.48  1488.35  1488.47  1488.86  1489.39
eigval :     1490.83  1491.11  1491.58  1491.75  1492.19  1492.54
eigval :     1492.89  1494.32  1494.97  1498.39  1498.84  1499.01
eigval :     1499.31  1500.29  1500.55  1501.43  1502.92  1503.46
eigval :     1503.57  1504.50  1504.64  1508.66  1509.98  1510.75
eigval :     1511.44  1511.94  1512.08  1512.17  1515.93  1516.40
eigval :     1516.58  1519.12  1520.00  1520.80  1531.72  1552.13
eigval :     1556.53  1557.85  1558.22  1567.70  1586.34  1590.47
eigval :     1590.93  1592.44  3015.63  3015.97  3016.89  3016.93
eigval :     3017.26  3017.45  3018.89  3019.12  3021.53  3021.89
eigval :     3022.01  3022.09  3022.12  3022.15  3022.22  3022.26
eigval :     3022.95  3023.03  3023.25  3023.57  3025.08  3025.13
eigval :     3025.97  3026.06  3026.21  3026.24  3027.43  3027.61
eigval :     3028.95  3029.19  3030.28  3030.36  3030.38  3030.88
eigval :     3033.45  3033.64  3033.70  3034.06  3034.48  3039.55
eigval :     3040.34  3040.43  3042.05  3042.09  3044.72  3044.97
eigval :     3045.05  3045.25  3045.32  3045.41  3048.49  3048.51
eigval :     3049.58  3050.08  3073.13  3073.45  3075.03  3075.04
eigval :     3076.42  3076.57  3078.14  3078.40  3085.94  3086.76
eigval :     3088.37  3088.85  3092.85  3093.02  3104.14  3104.85
eigval :     3109.48  3112.48  3117.25  3117.46  3133.07  3139.19

   temp. (K)  partition function   enthalpy   heat capacity  entropy
                                   cal/mol     cal/K/mol   cal/K/mol   J/K/mol
 298.15  VIB  0.420E+33            42326.798    258.194    262.276
         ROT  0.131E+09              888.752      2.981     40.121
         INT  0.549E+41            43215.551    261.175    302.396
         TR   0.271E+29             1481.254      4.968     46.319
         TOT                       44696.8045   266.1435   348.7154  1459.0251

       T/K    H(0)-H(T)+PV         H(T)/Eh          T*S/Eh         G(T)/Eh
   ------------------------------------------------------------------------
    298.15    0.712289E-01    0.130181E+01    0.165686E+00    0.113612E+01
   ------------------------------------------------------------------------

         :::::::::::::::::::::::::::::::::::::::::::::::::::::
         ::                  THERMODYNAMIC                  ::
         :::::::::::::::::::::::::::::::::::::::::::::::::::::
         :: total free energy        -189.143224366180 Eh   ::
         ::.................................................::
         :: total energy             -190.279345880572 Eh   ::
         :: zero point energy           1.230578545174 Eh   ::
         :: G(RRHO) w/o ZPVE           -0.094457030782 Eh   ::
         :: G(RRHO) contrib.            1.136121514392 Eh   ::
         :::::::::::::::::::::::::::::::::::::::::::::::::::::

           -------------------------------------------------
          | TOTAL ENERGY             -190.279345880572 Eh   |
          | TOTAL ENTHALPY           -188.977538443485 Eh   |
          | TOTAL FREE ENERGY        -189.143224366180 Eh   |
          | GRADIENT NORM               0.000030317962 Eh/α |
          | HOMO-LUMO GAP               0.352135611631 eV   |
           -------------------------------------------------

 * finished run on 2025/09/08 at 19:20:05.810
