   * xtb version 6.7.1 (edcfbbe) compiled by 'albert@albert-system' on 2024-07-22

   ID    Z sym.   atoms
    1    7 N      1, 17, 19, 36
    2    6 C      2-16, 18, 20-35, 37-48
    3    1 H      49-74

          program call               : xtb data2507/gas/DCzBNPh-1/DCzBNPh-1_gas_T1_crest.xyz --gfn 2 --spinpol --tblite --uhf 2 --ohess vtight --parallel 40 --molden --ceasefiles --namespace data2507/gas/DCzBNPh-1/DCzBNPh-1_gas_T1_finalOpt
 * total energy  :  -119.0776102 Eh     change       -0.2475139E-07 Eh
 * total energy  :  -119.0776312 Eh     change       -0.2104781E-04 Eh
 * total energy  :  -119.0776570 Eh     change       -0.2577497E-04 Eh
 * total energy  :  -119.0776785 Eh     change       -0.2153240E-04 Eh
 * total energy  :  -119.0777131 Eh     change       -0.3461058E-04 Eh
 * total energy  :  -119.0777230 Eh     change       -0.9815949E-05 Eh
 * total energy  :  -119.0777849 Eh     change       -0.6196508E-04 Eh
 * total energy  :  -119.0778015 Eh     change       -0.1657276E-04 Eh
 * total energy  :  -119.0778351 Eh     change       -0.3359514E-04 Eh
 * total energy  :  -119.0778506 Eh     change       -0.1545450E-04 Eh
 * total energy  :  -119.0779846 Eh     change       -0.2458400E-06 Eh
 * total energy  :  -119.0779848 Eh     change       -0.1767391E-06 Eh
 * total energy  :  -119.0779850 Eh     change       -0.1990033E-06 Eh
 * total energy  :  -119.0779853 Eh     change       -0.2936991E-06 Eh
 * total energy  :  -119.0779855 Eh     change       -0.2355442E-06 Eh
 * total energy  :  -119.0779857 Eh     change       -0.1712204E-06 Eh
 * total energy  :  -119.0779859 Eh     change       -0.2182064E-06 Eh
 * total energy  :  -119.0779861 Eh     change       -0.1653203E-06 Eh
 * total energy  :  -119.0779861 Eh     change       -0.2336077E-07 Eh
   *** GEOMETRY OPTIMIZATION CONVERGED AFTER 68 ITERATIONS ***

 final structure:
================
74
 xtb: 6.7.1 (edcfbbe)
N           -6.68807530881981       -0.09059340636446       -1.87225070038682
C           -5.79218841999621       -0.70644576455118       -1.49880475394343
C           -4.69482952749907       -1.47460875020220       -1.07248466885188
C           -4.62498953661446       -2.83614552794629       -1.39639262929865
C           -3.51888410300147       -3.58347868802710       -1.06813234020380
C           -2.43518831241926       -3.01297194054818       -0.38396173004330
C           -1.22410431006232       -3.77534254627068       -0.09178459717382
C           -1.24684244421117       -5.17173640914526        0.10521862112773
C           -0.05528234672515       -5.84485089117029        0.33261765965028
C            1.14741102438729       -5.18124956966586        0.39111185853539
C            1.21008674695915       -3.76765782664797        0.22992278590651
C            2.42152305336977       -3.02227406457427        0.37135371245322
C            3.62782589107977       -3.61262467443186        0.88150930518000
C            4.75817288918459       -2.88685287300976        1.09065902218113
C            4.80844317048034       -1.49608409199865        0.81614456579818
C            5.91242198463044       -0.74143868245608        1.18182741155182
N            6.84354602759634       -0.12970120692328        1.49506061245914
C            3.62229916396336       -0.89600304519805        0.26118998589593
N            3.59688078891568        0.47874601451338        0.01443644536389
C            2.64482823790844        1.35125402308410        0.50224024955133
C            1.54126853937277        1.09709015514065        1.30674534085243
C            0.76343052993327        2.17182664215025        1.69459497043558
C            1.07527624814769        3.47015767612523        1.30254729897046
C            2.18426004998242        3.73167125737720        0.51464236805411
C            2.97562339912665        2.67005520815713        0.10946169019686
C            4.18387851640364        2.57170068834884       -0.66940201446779
C            4.96913695593616        3.49771321269042       -1.33496608788719
C            6.07996018303819        3.04514318627494       -2.02822762560185
C            6.39453343121272        1.69014315294607       -2.07830493912984
C            5.62233793160772        0.74680214976788       -1.42665985623313
C            4.52972664411820        1.19990181282153       -0.69942395342434
C            2.49692841022841       -1.64356980680223        0.05652461421592
C           -0.01075182433339       -3.11758979156374       -0.03263019001759
C           -2.52978558204671       -1.66576338177046       -0.02095200111847
C           -3.62013540699959       -0.89290952334170       -0.37006541523108
N           -3.61627287931207        0.47380217253711       -0.05934219815384
C           -4.60176908209247        1.17714894520465        0.60012975024976
C           -5.76473677101607        0.71277253326769        1.19835394807625
C           -6.57910633051669        1.63922818499365        1.82157806507722
C           -6.24255983893573        2.98952806853117        1.86382598636080
C           -5.06948066455436        3.45226719900861        1.29415947722210
C           -4.23739176837680        2.54255788610220        0.66069676570279
C           -2.96766897200268        2.65694819041893       -0.00761257320429
C           -2.13172738580085        3.72324094025930       -0.30047595170889
C           -0.96734639248090        3.47931149817870       -1.00715497112083
C           -0.63574725854056        2.19296031644487       -1.42387921114819
C           -1.45417102496805        1.11489371076787       -1.14675182094426
C           -2.61930521232150        1.35268533413447       -0.42943426706524
H           -5.44808721697865       -3.28303476564902       -1.93451398368739
H           -3.47349221169632       -4.61824317013200       -1.36972704441497
H           -2.18096918351814       -5.70994442310241        0.09808943260117
H           -0.07442767249313       -6.91719463115792        0.46677065958126
H            2.04868420425062       -5.75068586416981        0.54695508053070
H            3.63728467902012       -4.66086296068057        1.13066394934863
H            5.64517561624433       -3.35456115614559        1.49265922820427
H            1.30899961468876        0.09633951192190        1.63788005015716
H           -0.10201484892730        2.00210354636631        2.31710737516174
H            0.44803949498851        4.28413499808698        1.63177280414988
H            2.43470776542024        4.74175526867831        0.22851402514596
H            4.71862156186820        4.54731379048888       -1.31420189373029
H            6.70867599950681        3.75235500914836       -2.54766489955610
H            7.25721251461290        1.36764915731706       -2.64066775714297
H            5.86389383479145       -0.30297085637257       -1.48423646057012
H            1.65695428280984       -1.14114257495993       -0.39668962084811
H           -0.00766559999486       -2.05415302311259       -0.20341844149859
H           -1.75107785268796       -1.20415258381773        0.56749868954524
H           -6.02792835079023       -0.33362298778801        1.18150799320624
H           -7.49482409307151        1.30745963415294        2.28652236736784
H           -6.90684803313195        3.68327803832881        2.35652715391165
H           -4.80456025749911        4.49752243135911        1.34145244049154
H           -2.39303841602801        4.72382750585267        0.00847202413134
H           -0.30923839380912        4.29763273136334       -1.25533612857593
H            0.27674221450584        2.03773476162468       -1.97995944928537
H           -1.20663869992614        0.12438271700844       -1.49834282163117

 projected vibrational frequencies (cm⁻¹)
eigval :       -0.00    -0.00    -0.00    -0.00     0.00     0.00
eigval :        7.94    12.18    26.13    27.66    31.45    43.15
eigval :       50.51    57.05    61.84    64.23    78.28    86.08
eigval :      102.44   106.68   116.75   118.98   130.08   137.15
eigval :      148.08   151.82   169.84   186.57   201.53   210.97
eigval :      220.98   230.23   237.53   249.36   271.14   271.60
eigval :      277.98   292.50   297.33   303.59   337.55   353.75
eigval :      367.86   372.52   387.82   394.19   398.81   408.96
eigval :      418.97   420.24   430.13   433.97   435.12   457.00
eigval :      478.78   493.93   513.24   514.84   516.07   524.09
eigval :      532.36   535.20   538.21   541.60   545.37   552.77
eigval :      574.00   583.91   584.95   594.34   601.34   618.99
eigval :      623.42   626.29   632.70   644.32   653.63   673.53
eigval :      674.06   679.69   693.09   707.01   709.60   712.55
eigval :      722.07   742.56   753.16   754.68   767.33   768.18
eigval :      775.78   778.29   781.03   792.08   815.33   826.40
eigval :      834.87   840.50   850.22   866.30   866.55   868.01
eigval :      876.48   886.87   891.73   895.08   897.62   902.32
eigval :      902.83   905.00   906.07   912.45   913.64   919.48
eigval :      920.02   920.88   921.92   926.14   951.24   971.07
eigval :     1010.48  1010.92  1033.29  1067.72  1067.75  1069.08
eigval :     1070.09  1072.41  1083.65  1094.22  1111.26  1127.95
eigval :     1139.59  1143.94  1152.24  1154.48  1172.37  1175.68
eigval :     1177.20  1178.96  1182.38  1186.41  1211.27  1222.26
eigval :     1227.54  1229.57  1230.94  1232.49  1237.30  1246.73
eigval :     1253.97  1273.96  1283.86  1286.33  1287.82  1289.66
eigval :     1292.30  1308.52  1318.64  1327.68  1335.51  1343.66
eigval :     1348.99  1351.97  1360.90  1362.71  1368.06  1370.99
eigval :     1405.03  1406.51  1410.04  1412.96  1416.34  1421.60
eigval :     1441.18  1453.17  1459.38  1463.02  1471.37  1480.21
eigval :     1483.35  1486.55  1491.24  1499.91  1542.86  1564.90
eigval :     1566.00  1573.39  1577.54  1579.53  1581.96  1583.47
eigval :     1599.39  1604.67  2224.39  2327.18  3072.13  3078.98
eigval :     3083.12  3084.29  3084.79  3086.30  3086.62  3086.78
eigval :     3088.84  3089.05  3089.91  3091.45  3092.47  3094.36
eigval :     3095.82  3096.11  3098.43  3099.79  3101.63  3103.17
eigval :     3103.64  3104.76  3105.46  3106.49  3116.79  3117.13

   temp. (K)  partition function   enthalpy   heat capacity  entropy
                                   cal/mol     cal/K/mol   cal/K/mol   J/K/mol
 298.15  VIB  0.470E+17            22118.623    141.057    136.895
         ROT  0.675E+08              888.752      2.981     38.805
         INT  0.317E+25            23007.376    144.038    175.700
         TR   0.146E+29             1481.254      4.968     45.091
         TOT                       24488.6297   149.0064   220.7914   923.7911

       T/K    H(0)-H(T)+PV         H(T)/Eh          T*S/Eh         G(T)/Eh
   ------------------------------------------------------------------------
    298.15    0.390251E-01    0.588897E+00    0.104905E+00    0.483991E+00
   ------------------------------------------------------------------------

         :::::::::::::::::::::::::::::::::::::::::::::::::::::
         ::                  THERMODYNAMIC                  ::
         :::::::::::::::::::::::::::::::::::::::::::::::::::::
         :: total free energy        -118.593994579776 Eh   ::
         ::.................................................::
         :: total energy             -119.077986075293 Eh   ::
         :: zero point energy           0.549871490327 Eh   ::
         :: G(RRHO) w/o ZPVE           -0.065879994810 Eh   ::
         :: G(RRHO) contrib.            0.483991495517 Eh   ::
         :::::::::::::::::::::::::::::::::::::::::::::::::::::

           -------------------------------------------------
          | TOTAL ENERGY             -119.077986075293 Eh   |
          | TOTAL ENTHALPY           -118.489089469462 Eh   |
          | TOTAL FREE ENERGY        -118.593994579776 Eh   |
          | GRADIENT NORM               0.000121823243 Eh/α |
           -------------------------------------------------

 * finished run on 2025/08/24 at 06:24:58.437
