   * xtb version 6.7.1 (edcfbbe) compiled by 'albert@albert-system' on 2024-07-22

   ID    Z sym.   atoms
    1    7 N      1, 17, 19, 36
    2    6 C      2-16, 18, 20-35, 37-48
    3    1 H      49-74

          program call               : xtb data2507/gas/DCzBNPh-1/DCzBNPh-1.xyz --gfn 2 --ohess vtight --parallel 40 --molden --ceasefiles --namespace data2507/gas/DCzBNPh-1/DCzBNPh-1_gas_S0_preOpt
          :  Hamiltonian                  GFN2-xTB          :
 * total energy  :  -119.1432263 Eh     change       -0.3552643E-08 Eh
 * total energy  :  -119.1580964 Eh     change       -0.1487010E-01 Eh
 * total energy  :  -119.1599284 Eh     change       -0.1831966E-02 Eh
 * total energy  :  -119.1613766 Eh     change       -0.1448187E-02 Eh
 * total energy  :  -119.1624781 Eh     change       -0.1101526E-02 Eh
 * total energy  :  -119.1628468 Eh     change       -0.3687142E-03 Eh
 * total energy  :  -119.1631482 Eh     change       -0.3014235E-03 Eh
 * total energy  :  -119.1632896 Eh     change       -0.1413771E-03 Eh
 * total energy  :  -119.1633991 Eh     change       -0.1095369E-03 Eh
 * total energy  :  -119.1634378 Eh     change       -0.3867975E-04 Eh
 * total energy  :  -119.1643768 Eh     change       -0.1489515E-05 Eh
 * total energy  :  -119.1643781 Eh     change       -0.1321676E-05 Eh
 * total energy  :  -119.1643793 Eh     change       -0.1198579E-05 Eh
 * total energy  :  -119.1643804 Eh     change       -0.1108443E-05 Eh
 * total energy  :  -119.1643815 Eh     change       -0.1050622E-05 Eh
 * total energy  :  -119.1643825 Eh     change       -0.1019255E-05 Eh
 * total energy  :  -119.1643835 Eh     change       -0.1011165E-05 Eh
 * total energy  :  -119.1643845 Eh     change       -0.1021778E-05 Eh
 * total energy  :  -119.1643845 Eh     change       -0.6615309E-08 Eh
   *** GEOMETRY OPTIMIZATION CONVERGED AFTER 94 ITERATIONS ***

 final structure:
================
74
 xtb: 6.7.1 (edcfbbe)
N           -6.66081955928847       -2.86934086479535       -2.62714483255408
C           -5.75984987844836       -2.33291985812877       -2.16304982548819
C           -4.62233493207831       -1.67002104886793       -1.65068885185923
C           -3.35560646177399       -2.07206037658106       -2.07745743137961
C           -2.23088553407628       -1.39376616239485       -1.66127444191855
C           -2.34342287200490       -0.28894512161322       -0.81495816992683
C           -1.14608721408472        0.44940820063818       -0.38805619487002
C           -1.13961846179832        1.84232809167165       -0.37480910703589
C           -0.00001351568610        2.52981114107659       -0.00004722203387
C            1.13960330263968        1.84237154564041        0.37475932113348
C            1.14608682714800        0.44945298888318        0.38812152276601
C            2.34343090315429       -0.28886188480787        0.81506491289770
C            2.23090752165102       -1.39362868410423        1.66145365491064
C            3.35563350475543       -2.07190747847987        2.07764766068848
C            4.62235580459452       -1.66990051823892        1.65082506693322
C            5.75988106981577       -2.33277386376984        2.16321224076854
N            6.66081445390403       -2.86923204406389        2.62731355635995
C            4.74710848875263       -0.57811482245473        0.77410987727160
N            5.99725900694763       -0.17366507489796        0.30997273474474
C            6.49433403465565        1.11702861662907        0.36022473605524
C            5.92600125696361        2.26130199496591        0.89841048563130
C            6.65827369458878        3.43249452039314        0.84208495649425
C            7.92945017178130        3.46735751865520        0.27509136743215
C            8.51023343148961        2.32426603762507       -0.23786712791675
C            7.79317514504360        1.13641379069930       -0.19418520301809
C            8.08346791100274       -0.20907932338486       -0.60793888433320
C            9.17405508795489       -0.79971093385971       -1.23168474139145
C            9.11556453328468       -2.14675106979460       -1.52809525396786
C            7.98134615743663       -2.89719138471732       -1.23003047973280
C            6.88342564968293       -2.33075404118350       -0.61087747498108
C            6.95222835418500       -0.98693122456640       -0.27842429966637
C            3.60282096698987        0.10301666598482        0.37678322885011
C            0.00000218249554       -0.23501293100975        0.00006432855112
C           -3.60282112874879        0.10297033043008       -0.37673349383728
C           -4.74710397552659       -0.57817731312287       -0.77404663293371
N           -5.99726175469850       -0.17368143911436       -0.30996820563211
C           -6.95224416549413       -0.98688558546070        0.27849095991441
C           -6.88345865210856       -2.33068133428569        0.61105551224793
C           -7.98139061786727       -2.89705455247973        1.23024729411808
C           -9.11560564305645       -2.14657817473859        1.52823420475747
C           -9.17407988056595       -0.79956237163070        1.23170907794644
C           -8.08348046459179       -0.20899433860390        0.60792483225046
C           -7.79317302472033        1.13645815191205        0.19404946394764
C           -8.51022577866919        2.32431887123939        0.23760061435317
C           -7.92942643682058        3.46735645275642       -0.27545999440865
C           -6.65823648888580        3.43243281797773       -0.84242006599869
C           -5.92597131387044        2.26122997444579       -0.89862038530546
C           -6.49432233968749        1.11701265087285       -0.36033556185013
H           -3.27268884469575       -2.91357458650778       -2.74948596154013
H           -1.25779856375768       -1.70094696961802       -2.01290090332458
H           -2.02080048731629        2.38575990004116       -0.68161441443933
H           -0.00001864697208        3.60963798791893       -0.00009532651359
H            2.02077865620604        2.38583867259311        0.68152118683543
H            1.25782856371570       -1.70077397148313        2.01313287511801
H            3.27272960065091       -2.91336469076625        2.74974823143675
H            4.95032849379012        2.24065606641173        1.36112279048093
H            6.23646942111661        4.33869854388584        1.25113571644795
H            8.46919144878651        4.40206689843165        0.24805445334116
H            9.50302685396692        2.34744151145040       -0.66061804368410
H           10.04466517927233       -0.21242463251795       -1.48118215464588
H            9.95489972932614       -2.62750319849366       -2.00770837060653
H            7.95620533180708       -3.94469432627068       -1.49007590138424
H            6.00480840269095       -2.92262784216196       -0.40221467303950
H            3.70059048818752        0.92712741948685       -0.31424578341926
H            0.00001149677775       -1.31538416063997        0.00010089103526
H           -3.70060409572112        0.92712753827754        0.31423924757816
H           -6.00485534044752       -2.92258729984807        0.40242551810682
H           -7.95627475537637       -3.94454235842477        1.49035515603734
H           -9.95495116818237       -2.62728146525812        2.00787794418084
H          -10.04468253558048       -0.21224482473321        1.48115851122931
H           -9.50301254297938        2.34755023216749        0.66036381930983
H           -8.46915076575377        4.40207755868915       -0.24849842766048
H           -6.23642070193240        4.33859365799063       -1.25155363308764
H           -4.95029558395016        2.24052879806078       -1.36132347678127

          :  Hamiltonian                  GFN2-xTB          :
         :: gradient norm              0.000073307166 Eh/a0 ::
         :: HOMO-LUMO gap              2.192916686703 eV    ::
         :: SCC energy              -121.501256779750 Eh    ::
         :: -> dispersion             -0.105995864229 Eh    ::
         :: repulsion energy           2.336872251312 Eh    ::

    * Orbital Energies and Occupations

         #    Occupation            Energy/Eh            Energy/eV
      -------------------------------------------------------------
         1        2.0000           -0.6895324             -18.7631
       ...           ...                  ...                  ...
        99        2.0000           -0.4250434             -11.5660
       100        2.0000           -0.4245894             -11.5537
       101        2.0000           -0.4244141             -11.5489
       102        2.0000           -0.4224698             -11.4960
       103        2.0000           -0.4222977             -11.4913
       104        2.0000           -0.4162885             -11.3278
       105        2.0000           -0.4102919             -11.1646
       106        2.0000           -0.4102158             -11.1625
       107        2.0000           -0.4100928             -11.1592
       108        2.0000           -0.3837358             -10.4420
       109        2.0000           -0.3837355             -10.4420
       110        2.0000           -0.3715058             -10.1092
       111        2.0000           -0.3714498             -10.1077 (HOMO)
       112                         -0.2908616              -7.9147 (LUMO)
       113                         -0.2860241              -7.7831
       114                         -0.2569263              -6.9913
       115                         -0.2568475              -6.9892
       116                         -0.2482945              -6.7564
       117                         -0.2482822              -6.7561
       118                         -0.2435487              -6.6273
       119                         -0.2406585              -6.5487
       120                         -0.2269882              -6.1767
       121                         -0.2269876              -6.1766
       122                         -0.2113041              -5.7499
       ...                                ...                  ...
       218                          1.1654225              31.7128
      -------------------------------------------------------------
                  HL-Gap            0.0805882 Eh            2.1929 eV

     #   Z          covCN         q      C6AA      α(0)
     1   7 N        0.911    -0.234    26.118     7.391
     2   6 C        1.911     0.116    28.254     8.584
     3   6 C        2.974     0.002    27.969     8.675
     4   6 C        2.926    -0.021    28.533     8.760
     5   6 C        2.922    -0.037    28.927     8.820
     6   6 C        2.976     0.018    27.606     8.619
     7   6 C        2.977     0.011    27.765     8.643
     8   6 C        2.925    -0.032    28.791     8.799
     9   6 C        2.917    -0.027    28.683     8.782
    10   6 C        2.925    -0.032    28.791     8.799
    11   6 C        2.977     0.011    27.765     8.643
    12   6 C        2.976     0.018    27.606     8.619
    13   6 C        2.922    -0.037    28.927     8.820
    14   6 C        2.926    -0.021    28.533     8.760
    15   6 C        2.974     0.002    27.969     8.675
    16   6 C        1.911     0.116    28.254     8.584
    17   7 N        0.911    -0.234    26.118     7.391
    18   6 C        2.914     0.074    26.347     8.417
    19   7 N        2.803    -0.047    22.146     6.989
    20   6 C        3.071     0.047    26.870     8.499
    21   6 C        2.910    -0.050    29.250     8.868
    22   6 C        2.924    -0.033    28.819     8.804
    23   6 C        2.920    -0.039    28.974     8.827
    24   6 C        2.913    -0.031    28.781     8.797
    25   6 C        3.067    -0.014    28.285     8.721
    26   6 C        3.068    -0.014    28.293     8.722
    27   6 C        2.913    -0.031    28.773     8.796
    28   6 C        2.920    -0.037    28.929     8.820
    29   6 C        2.925    -0.029    28.732     8.790
    30   6 C        2.910    -0.045    29.114     8.848
    31   6 C        3.070     0.049    26.834     8.494
    32   6 C        2.927    -0.047    29.174     8.858
    33   6 C        2.930    -0.037    28.911     8.818
    34   6 C        2.927    -0.047    29.174     8.858
    35   6 C        2.914     0.074    26.347     8.417
    36   7 N        2.803    -0.047    22.146     6.989
    37   6 C        3.070     0.049    26.834     8.494
    38   6 C        2.910    -0.045    29.114     8.848
    39   6 C        2.925    -0.029    28.732     8.790
    40   6 C        2.920    -0.037    28.929     8.820
    41   6 C        2.913    -0.031    28.773     8.796
    42   6 C        3.068    -0.014    28.293     8.722
    43   6 C        3.067    -0.014    28.285     8.721
    44   6 C        2.913    -0.031    28.781     8.797
    45   6 C        2.920    -0.039    28.974     8.827
    46   6 C        2.924    -0.033    28.819     8.804
    47   6 C        2.910    -0.050    29.250     8.868
    48   6 C        3.071     0.047    26.870     8.499
    49   1 H        0.926     0.046     2.364     2.405
    50   1 H        0.926     0.043     2.415     2.430
    51   1 H        0.926     0.037     2.490     2.468
    52   1 H        0.926     0.039     2.459     2.452
    53   1 H        0.926     0.037     2.490     2.468
    54   1 H        0.926     0.043     2.415     2.430
    55   1 H        0.926     0.046     2.364     2.405
    56   1 H        0.926     0.023     2.689     2.564
    57   1 H        0.926     0.031     2.579     2.511
    58   1 H        0.926     0.031     2.571     2.507
    59   1 H        0.926     0.035     2.523     2.484
    60   1 H        0.926     0.035     2.522     2.483
    61   1 H        0.926     0.033     2.544     2.494
    62   1 H        0.926     0.035     2.520     2.483
    63   1 H        0.926     0.023     2.685     2.562
    64   1 H        0.926     0.048     2.342     2.393
    65   1 H        0.926     0.037     2.488     2.466
    66   1 H        0.926     0.048     2.342     2.393
    67   1 H        0.926     0.023     2.685     2.562
    68   1 H        0.926     0.035     2.520     2.483
    69   1 H        0.926     0.033     2.544     2.494
    70   1 H        0.926     0.035     2.522     2.483
    71   1 H        0.926     0.035     2.523     2.484
    72   1 H        0.926     0.031     2.571     2.507
    73   1 H        0.926     0.031     2.579     2.511
    74   1 H        0.926     0.023     2.689     2.564

molecular dipole:
                 x           y           z       tot (Debye)
 q only:        0.000       1.095      -0.000
   full:        0.000       1.429      -0.000       3.632

 projected vibrational frequencies (cm⁻¹)
eigval :       -0.00    -0.00    -0.00    -0.00     0.00     0.00
eigval :        9.08    10.32    15.51    26.06    26.96    39.24
eigval :       43.71    56.41    64.97    69.84    72.46    91.04
eigval :       96.31   104.29   105.02   126.92   127.14   144.64
eigval :      146.07   150.99   150.99   183.91   208.04   216.03
eigval :      224.75   241.67   247.37   270.15   271.63   272.72
eigval :      281.52   289.20   295.55   306.65   330.24   354.31
eigval :      372.02   374.21   396.84   397.02   417.95   421.74
eigval :      422.02   427.49   437.21   437.42   456.91   490.42
eigval :      504.05   516.42   518.41   519.31   521.95   536.19
eigval :      541.08   541.23   544.82   546.75   554.54   555.67
eigval :      584.58   586.88   593.44   604.33   615.62   627.61
eigval :      634.51   648.21   655.14   672.69   673.17   675.33
eigval :      693.69   694.77   703.15   706.99   710.59   717.10
eigval :      729.96   755.97   756.04   768.69   768.72   780.22
eigval :      780.22   793.54   807.80   833.45   835.75   862.48
eigval :      868.60   868.65   870.98   871.00   890.46   890.98
eigval :      893.35   896.63   898.85   901.45   902.68   902.82
eigval :      906.25   908.89   918.90   919.59   921.97   922.00
eigval :      922.93   923.24   930.97   934.73   981.84   990.91
eigval :     1012.35  1012.94  1071.32  1071.46  1075.12  1075.12
eigval :     1084.69  1090.00  1095.61  1102.22  1134.42  1145.19
eigval :     1145.83  1153.14  1153.38  1174.04  1176.51  1181.05
eigval :     1181.17  1185.86  1190.22  1190.90  1215.98  1221.93
eigval :     1231.14  1236.31  1236.49  1238.75  1242.82  1243.65
eigval :     1258.70  1276.41  1294.89  1298.92  1299.98  1300.07
eigval :     1310.10  1311.50  1315.47  1318.22  1348.69  1350.78
eigval :     1358.64  1358.64  1362.47  1362.88  1395.53  1409.29
eigval :     1423.60  1427.81  1428.10  1438.88  1456.39  1457.94
eigval :     1472.01  1474.61  1480.63  1487.32  1487.35  1488.51
eigval :     1538.14  1538.53  1574.04  1575.86  1576.94  1579.23
eigval :     1583.69  1591.03  1591.11  1592.13  1600.55  1600.55
eigval :     1614.39  1614.47  2368.20  2368.79  3074.99  3075.01
eigval :     3078.88  3078.89  3080.11  3081.94  3081.94  3082.05
eigval :     3083.14  3083.15  3087.08  3087.44  3087.68  3089.11
eigval :     3089.13  3091.59  3091.61  3093.53  3094.11  3096.73
eigval :     3097.86  3097.91  3099.08  3099.37  3099.87  3099.89

   temp. (K)  partition function   enthalpy   heat capacity  entropy
                                   cal/mol     cal/K/mol   cal/K/mol   J/K/mol
 298.15  VIB  0.922E+17            21848.893    138.545    135.951
         ROT  0.529E+08              888.752      2.981     38.321
         INT  0.488E+25            22737.646    141.526    174.272
         TR   0.146E+29             1481.254      4.968     45.091
         TOT                       24218.8996   146.4940   219.3627   917.8137

       T/K    H(0)-H(T)+PV         H(T)/Eh          T*S/Eh         G(T)/Eh
   ------------------------------------------------------------------------
    298.15    0.385953E-01    0.593253E+00    0.104226E+00    0.489026E+00
   ------------------------------------------------------------------------

         :::::::::::::::::::::::::::::::::::::::::::::::::::::
         ::                  THERMODYNAMIC                  ::
         :::::::::::::::::::::::::::::::::::::::::::::::::::::
         :: total free energy        -118.675358305323 Eh   ::
         ::.................................................::
         :: total energy             -119.164384528440 Eh   ::
         :: zero point energy           0.554657266829 Eh   ::
         :: G(RRHO) w/o ZPVE           -0.065631043712 Eh   ::
         :: G(RRHO) contrib.            0.489026223117 Eh   ::
         :::::::::::::::::::::::::::::::::::::::::::::::::::::

           -------------------------------------------------
          | TOTAL ENERGY             -119.164384528440 Eh   |
          | TOTAL ENTHALPY           -118.571131988391 Eh   |
          | TOTAL FREE ENERGY        -118.675358305323 Eh   |
          | GRADIENT NORM               0.000073298286 Eh/α |
          | HOMO-LUMO GAP               2.192916608247 eV   |
           -------------------------------------------------

 * finished run on 2025/08/24 at 06:14:29.153
