   * xtb version 6.7.1 (edcfbbe) compiled by 'albert@albert-system' on 2024-07-22

   ID    Z sym.   atoms
    1    7 N      1, 17, 19, 36
    2    6 C      2-16, 18, 20-35, 37-48
    3    1 H      49-74

          program call               : xtb data2507/gas/DCzBNPh-1/DCzBNPh-1_gas_S0_finalOpt.xtbopt.xyz --gfn 2 --spinpol --tblite --uhf 2 --ohess vtight --parallel 40 --molden --ceasefiles --namespace data2507/gas/DCzBNPh-1/DCzBNPh-1_gas_T1_preOpt
 * total energy  :  -119.0697308 Eh     change       -0.4528758E-07 Eh
 * total energy  :  -119.0727287 Eh     change       -0.2997910E-02 Eh
 * total energy  :  -119.0735890 Eh     change       -0.8603314E-03 Eh
 * total energy  :  -119.0737245 Eh     change       -0.1355018E-03 Eh
 * total energy  :  -119.0739023 Eh     change       -0.1777064E-03 Eh
 * total energy  :  -119.0740732 Eh     change       -0.1709620E-03 Eh
 * total energy  :  -119.0741928 Eh     change       -0.1195380E-03 Eh
 * total energy  :  -119.0742720 Eh     change       -0.7922295E-04 Eh
 * total energy  :  -119.0743327 Eh     change       -0.6072337E-04 Eh
 * total energy  :  -119.0743728 Eh     change       -0.4008882E-04 Eh
 * total energy  :  -119.0748904 Eh     change       -0.4148879E-06 Eh
 * total energy  :  -119.0748910 Eh     change       -0.5939140E-06 Eh
 * total energy  :  -119.0748915 Eh     change       -0.5137129E-06 Eh
 * total energy  :  -119.0748922 Eh     change       -0.7396758E-06 Eh
 * total energy  :  -119.0748931 Eh     change       -0.8378461E-06 Eh
 * total energy  :  -119.0748939 Eh     change       -0.8686401E-06 Eh
 * total energy  :  -119.0748950 Eh     change       -0.1027963E-05 Eh
 * total energy  :  -119.0748963 Eh     change       -0.1303849E-05 Eh
 * total energy  :  -119.0748963 Eh     change       -0.5728253E-09 Eh
   *** GEOMETRY OPTIMIZATION CONVERGED AFTER 94 ITERATIONS ***

 final structure:
================
74
 xtb: 6.7.1 (edcfbbe)
N           -6.60940446926950        0.12449328034794       -1.71835713258299
C           -5.67413102644676       -0.51703478970596       -1.52956775926738
C           -4.54102055914740       -1.31425827236989       -1.29628975193615
C           -4.43239966051977       -2.58244396459893       -1.88461482723593
C           -3.34249003921156       -3.38367232659577       -1.63926785038439
C           -2.30911279502417       -2.95917904896352       -0.79052000699617
C           -1.09697837479345       -3.74857411808013       -0.59043747577637
C           -1.08906610528007       -5.15790389405512       -0.61152868891760
C            0.10717169797491       -5.83518859834900       -0.41930347978076
C            1.29020088837274       -5.16536735474931       -0.20380788394719
C            1.31958942032518       -3.74567380217878       -0.17798298828470
C            2.49566495027611       -2.98120415878772        0.10711631201189
C            3.63585999736502       -3.53207563628831        0.77848051850620
C            4.68469372663100       -2.75491209390254        1.16300948155527
C            4.70511989782846       -1.35661965578213        0.91717446238477
C            5.69362404782595       -0.55656607255417        1.46893889383459
N            6.52917464807358        0.09491103945889        1.93494023439393
C            3.60068755672623       -0.80375972135125        0.17583128851333
N            3.52907057051725        0.56438711051671       -0.09061145664033
C            2.40491182829273        1.33659841023022        0.13323277536364
C            1.20899602405997        0.99822688850046        0.75475991993765
C            0.23208009306474        1.97162592467440        0.85406756143437
C            0.43844885724709        3.25587461000565        0.35827756540137
C            1.64602066517833        3.61231701405159       -0.21942791114717
C            2.64025673271862        2.65302271123429       -0.32757015354273
C            3.98371023695339        2.66493318476004       -0.84864221801655
C            4.76624051000989        3.64102085317048       -1.44166366894074
C            6.03713681185536        3.29757052914802       -1.87329361204613
C            6.51510469153891        1.99722431197326       -1.73913975948859
C            5.75008398211531        1.00457730863771       -1.15551289552350
C            4.49094851320039        1.35301546774235       -0.68517386250639
C            2.56171120345691       -1.60626106048928       -0.20801965857822
C            0.09789355944711       -3.08513018647707       -0.38932073534816
C           -2.43700935374931       -1.70719188637180       -0.17985842724221
C           -3.51347237640304       -0.88135920888082       -0.43293326409857
N           -3.56123545807540        0.38338821806941        0.17323887134817
C           -3.43070110949570        0.62153555908433        1.52449605332301
C           -3.35493614820660       -0.28328441057995        2.57491205457852
C           -3.24082497314636        0.22681081354777        3.85486589832913
C           -3.21062972917106        1.59918791850325        4.08939843809992
C           -3.30442907105383        2.50494526166801        3.04713345515833
C           -3.41772231453301        2.01786520382460        1.75408890229557
C           -3.53067065224568        2.64213152126014        0.46233545927707
C           -3.53985904250816        3.96150293192046        0.03856304374425
C           -3.62579230155591        4.21880395235998       -1.31834809603140
C           -3.68823376906715        3.18064011556213       -2.24389329558869
C           -3.67863697572296        1.85723717029992       -1.84561663532009
C           -3.61628149165072        1.59431034979911       -0.48433306907326
H           -5.22176269312708       -2.91714273878348       -2.54162783734238
H           -3.26679570763091       -4.34144281061184       -2.13051053595221
H           -2.00757211408340       -5.70602587330978       -0.74977381139190
H            0.10750811575482       -6.91588747321911       -0.44004286631624
H            2.20359290380755       -5.72544664083717       -0.08208933591540
H            3.64621401907637       -4.58351126932982        1.01785980191609
H            5.52287091830727       -3.18508081951770        1.69175130475753
H            1.05165425648068        0.01170984646591        1.16423011390431
H           -0.70681724406924        1.73471089975121        1.33171853110059
H           -0.35505110937196        3.98322159573625        0.43894615845209
H            1.81283631019768        4.61690463487213       -0.57647497284066
H            4.39071599681405        4.64511180875236       -1.56652116583844
H            6.66501505392063        4.04630195913559       -2.33199157035625
H            7.50237329521273        1.75615017920584       -2.10187352241150
H            6.12403444872137       -0.00338487565343       -1.07124881795173
H            1.79077254761838       -1.15728473574857       -0.81505280269154
H            0.08235229237486       -2.00788471327927       -0.38669879351763
H           -1.67949658943935       -1.35683684887413        0.50510571210321
H           -3.39124974959858       -1.34802846818686        2.40037260655526
H           -3.17688839725974       -0.45390662215169        4.69025331622221
H           -3.11945759912774        1.95889060453319        5.10303376312111
H           -3.29192946085920        3.56780160275646        3.23383892825262
H           -3.47927717911933        4.76763765767735        0.75413011929147
H           -3.63868130316825        5.23979931622184       -1.66893408429599
H           -3.74359426770999        3.41347600023832       -3.29632250425554
H           -3.71687959538548        1.06053753447981       -2.57226512419445

 projected vibrational frequencies (cm⁻¹)
eigval :       -0.00    -0.00    -0.00     0.00     0.00     0.00
eigval :        4.07    13.65    23.96    24.73    27.64    34.19
eigval :       46.15    55.48    58.85    68.36    71.55    82.34
eigval :      100.19   103.59   110.24   115.55   129.25   137.31
eigval :      142.84   148.36   172.42   181.88   205.03   216.50
eigval :      223.31   234.66   239.44   245.53   269.26   270.26
eigval :      271.48   296.80   300.67   306.60   327.82   353.04
eigval :      364.45   374.95   389.13   393.37   399.00   408.99
eigval :      419.37   419.56   432.28   433.36   436.84   458.20
eigval :      478.63   495.51   512.65   514.49   515.59   524.43
eigval :      530.11   534.21   535.96   542.07   547.22   554.96
eigval :      579.44   583.73   584.74   594.08   600.21   617.79
eigval :      619.63   628.70   639.69   642.55   653.15   672.75
eigval :      674.25   679.38   691.38   706.42   710.01   712.93
eigval :      721.71   748.53   752.92   754.76   766.68   767.79
eigval :      776.07   777.04   787.20   792.90   819.82   830.49
eigval :      837.84   852.35   862.79   865.12   865.43   868.06
eigval :      882.85   887.53   893.04   896.38   896.60   902.26
eigval :      902.83   904.52   908.37   912.69   914.13   919.44
eigval :      919.55   921.71   925.12   927.52   955.85   972.29
eigval :     1010.60  1011.04  1041.11  1067.66  1068.05  1068.35
eigval :     1070.35  1072.34  1083.76  1095.60  1108.75  1124.68
eigval :     1139.69  1143.31  1148.09  1154.04  1172.32  1175.03
eigval :     1176.70  1178.30  1183.07  1185.74  1207.84  1223.19
eigval :     1226.80  1228.90  1230.38  1232.14  1236.80  1246.18
eigval :     1247.75  1272.95  1285.20  1285.75  1287.71  1290.53
eigval :     1295.12  1308.89  1318.15  1327.21  1332.71  1339.62
eigval :     1348.76  1351.61  1360.90  1361.36  1367.15  1373.04
eigval :     1404.75  1405.86  1408.74  1411.88  1414.12  1420.03
eigval :     1440.16  1449.83  1457.98  1461.01  1469.34  1478.63
eigval :     1480.39  1482.25  1484.81  1496.58  1542.57  1563.99
eigval :     1564.55  1572.72  1576.43  1576.96  1580.53  1582.89
eigval :     1597.91  1604.41  2219.91  2324.08  3071.49  3082.43
eigval :     3082.72  3083.14  3083.84  3085.92  3086.36  3087.57
eigval :     3087.98  3088.91  3089.72  3092.01  3093.44  3094.24
eigval :     3095.35  3095.55  3095.65  3099.06  3099.79  3101.39
eigval :     3101.78  3102.27  3102.59  3106.32  3107.28  3113.50

   temp. (K)  partition function   enthalpy   heat capacity  entropy
                                   cal/mol     cal/K/mol   cal/K/mol   J/K/mol
 298.15  VIB  0.190E+18            22178.040    140.524    138.096
         ROT  0.661E+08              888.752      2.981     38.766
         INT  0.126E+26            23066.793    143.505    176.862
         TR   0.146E+29             1481.254      4.968     45.091
         TOT                       24548.0467   148.4734   221.9528   928.6507

       T/K    H(0)-H(T)+PV         H(T)/Eh          T*S/Eh         G(T)/Eh
   ------------------------------------------------------------------------
    298.15    0.391198E-01    0.588792E+00    0.105457E+00    0.483335E+00
   ------------------------------------------------------------------------

         :::::::::::::::::::::::::::::::::::::::::::::::::::::
         ::                  THERMODYNAMIC                  ::
         :::::::::::::::::::::::::::::::::::::::::::::::::::::
         :: total free energy        -118.591561280535 Eh   ::
         ::.................................................::
         :: total energy             -119.074896270741 Eh   ::
         :: zero point energy           0.549672144666 Eh   ::
         :: G(RRHO) w/o ZPVE           -0.066337154460 Eh   ::
         :: G(RRHO) contrib.            0.483334990206 Eh   ::
         :::::::::::::::::::::::::::::::::::::::::::::::::::::

           -------------------------------------------------
          | TOTAL ENERGY             -119.074896270741 Eh   |
          | TOTAL ENTHALPY           -118.486104323616 Eh   |
          | TOTAL FREE ENERGY        -118.591561280535 Eh   |
          | GRADIENT NORM               0.000088006142 Eh/α |
           -------------------------------------------------

 * finished run on 2025/08/24 at 06:18:46.701
