   * xtb version 6.7.1 (edcfbbe) compiled by 'albert@albert-system' on 2024-07-22

   ID    Z sym.   atoms
    1    7 N      1, 17, 19, 36
    2    6 C      2-16, 18, 20-35, 37-48
    3    1 H      49-74

          program call               : xtb data2507/gas/DCzBNPh-1/DCzBNPh-1_gas_S0_crest.xyz --gfn 2 --ohess vtight --parallel 40 --molden --ceasefiles --namespace data2507/gas/DCzBNPh-1/DCzBNPh-1_gas_S0_finalOpt
          :  Hamiltonian                  GFN2-xTB          :
 * total energy  :  -119.1650057 Eh     change       -0.3916853E-08 Eh
 * total energy  :  -119.1650056 Eh     change        0.2025368E-07 Eh
 * total energy  :  -119.1650075 Eh     change       -0.1841507E-05 Eh
 * total energy  :  -119.1650096 Eh     change       -0.2101275E-05 Eh
 * total energy  :  -119.1650106 Eh     change       -0.9806621E-06 Eh
 * total energy  :  -119.1650117 Eh     change       -0.1095798E-05 Eh
 * total energy  :  -119.1650132 Eh     change       -0.1532182E-05 Eh
 * total energy  :  -119.1650153 Eh     change       -0.2069100E-05 Eh
 * total energy  :  -119.1650171 Eh     change       -0.1843370E-05 Eh
 * total energy  :  -119.1650190 Eh     change       -0.1920451E-05 Eh
 * total energy  :  -119.1650239 Eh     change       -0.6536184E-06 Eh
 * total energy  :  -119.1650246 Eh     change       -0.6716575E-06 Eh
 * total energy  :  -119.1650251 Eh     change       -0.5344088E-06 Eh
 * total energy  :  -119.1650255 Eh     change       -0.3930207E-06 Eh
 * total energy  :  -119.1650257 Eh     change       -0.2029250E-06 Eh
 * total energy  :  -119.1650259 Eh     change       -0.1511484E-06 Eh
 * total energy  :  -119.1650261 Eh     change       -0.2182804E-06 Eh
 * total energy  :  -119.1650263 Eh     change       -0.1822913E-06 Eh
 * total energy  :  -119.1650263 Eh     change       -0.5068429E-08 Eh
   *** GEOMETRY OPTIMIZATION CONVERGED AFTER 22 ITERATIONS ***

 final structure:
================
74
 xtb: 6.7.1 (edcfbbe)
N           -6.40828558485287        0.36943487679463       -2.11226084584398
C           -5.50455305469822       -0.28956964498309       -1.86005268642777
C           -4.41591393325589       -1.13443328589615       -1.55021057769751
C           -4.23725037656074       -2.32082051198420       -2.26466862900329
C           -3.19043005840380       -3.16803404507219       -1.96928687462680
C           -2.30107439941672       -2.86299982030742       -0.93679149270015
C           -1.10464622318492       -3.67924277633106       -0.68772369952339
C           -1.08040285665377       -5.06405631843009       -0.83452935101499
C            0.09890815832788       -5.75959692725893       -0.63045833870857
C            1.26495727458313       -5.09971104210605       -0.28257523545977
C            1.26274513655412       -3.71539725719262       -0.12671761163086
C            2.44711398563101       -2.94570506636416        0.27739065422295
C            3.40610441086571       -3.45894372446920        1.15331123948664
C            4.44414260432450       -2.66597938587607        1.59455595329069
C            4.53802120028782       -1.32570514133430        1.20959884735580
C            5.54185570070924       -0.51667152179505        1.78557717295034
N            6.34982741091902        0.11772418576146        2.29537783583807
C            3.59165621035597       -0.80141597754739        0.31379304730765
N            3.58148070819745        0.53731104380635       -0.07346300516351
C            2.44791390488770        1.33561580343394       -0.05414388557991
C            1.18402067985099        1.06389507367413        0.44984434641445
C            0.22196480511163        2.05167658752933        0.35552829602567
C            0.50904840965483        3.28955110773732       -0.21363260290450
C            1.77742254950342        3.58031175784874       -0.67649335957976
C            2.76032464758394        2.60206513469453       -0.59313383657575
C            4.15117533513767        2.55976617360727       -0.95568098497748
C            5.01049170346504        3.47983078217260       -1.54047136098383
C            6.31343360824850        3.09936040294328       -1.79309552540307
C            6.75640236082111        1.81480207976221       -1.48970204644542
C            5.91916385930137        0.88084704497591       -0.90916240902788
C            4.62084966397427        1.26999308678670       -0.62098843082581
C            2.58825663487033       -1.63384226963232       -0.16329534241017
C            0.07061135924561       -3.02930132743493       -0.33121638539047
C           -2.50620873227339       -1.70058335393067       -0.19971618467730
C           -3.53122527028997       -0.81764961387678       -0.50639118305506
N           -3.64013573856024        0.37909991309322        0.20411469636279
C           -3.65093748385642        0.49617779007594        1.58225816348055
C           -3.73270606034332       -0.49514444193379        2.54811451274718
C           -3.75902194789155       -0.10077826333891        3.87276878588051
C           -3.71375631358660        1.24418983616413        4.23126354161589
C           -3.65053332188030        2.23504114498613        3.27139502899928
C           -3.62116119689399        1.86380405899755        1.93397225958823
C           -3.56025975437754        2.60201478583136        0.70203772482496
C           -3.46138583024456        3.95491455685451        0.40643186649753
C           -3.36632631805347        4.33604875405277       -0.91709448440429
C           -3.35541260759954        3.38820167057289       -1.93703710669560
C           -3.45342825792710        2.03639524474171       -1.66742833983023
C           -3.57418959935425        1.65069825384480       -0.34203999381934
H           -4.92499024661034       -2.55809540951802       -3.06303595627261
H           -3.04095161336992       -4.05838698023804       -2.56038660028989
H           -1.98369277358502       -5.59802177360202       -1.08880390333222
H            0.11000034431902       -6.83329792104887       -0.74695934983236
H            2.17958649747815       -5.65827643822787       -0.15262874696992
H            3.32122596544831       -4.47301125835675        1.51202395912213
H            5.18127941294294       -3.06266086495911        2.27729835632622
H            0.95935566145464        0.11787022862392        0.92116887608843
H           -0.77110344486331        1.86574241442123        0.73681637241314
H           -0.27482683489152        4.02906878245246       -0.27827446987303
H            2.00709456011865        4.54916429181885       -1.09304534068749
H            4.66059754061813        4.46907923391518       -1.79373823006432
H            6.99976711426039        3.80164162015370       -2.24189646895695
H            7.77568261087132        1.53936175968278       -1.71464986027736
H            6.27295942000340       -0.11602969767827       -0.69434196127307
H            1.91080189498974       -1.23259218637075       -0.90149225347693
H            0.05408877234002       -1.95730923814534       -0.21698216621213
H           -1.84935673867383       -1.45138253221509        0.62008756498181
H           -3.78349576828759       -1.53991032546920        2.27830035113435
H           -3.81976077643274       -0.85258264731498        4.64567955121422
H           -3.73611194120261        1.51164491870627        5.27704845026730
H           -3.62792178050952        3.27757552819449        3.54975222767914
H           -3.45117054721469        4.68743068487954        1.19932142392006
H           -3.29014157216051        5.38324173157169       -1.16946940746888
H           -3.26433300529667        3.71488171726878       -2.96195724281636
H           -3.42938178869768        1.31255356420875       -2.46806841174173

          :  Hamiltonian                  GFN2-xTB          :
         :: gradient norm              0.000071943096 Eh/a0 ::
         :: HOMO-LUMO gap              2.117432326996 eV    ::
         :: SCC energy              -121.500580094766 Eh    ::
         :: -> dispersion             -0.110909338451 Eh    ::
         :: repulsion energy           2.335553812036 Eh    ::

    * Orbital Energies and Occupations

         #    Occupation            Energy/Eh            Energy/eV
      -------------------------------------------------------------
         1        2.0000           -0.6894004             -18.7595
       ...           ...                  ...                  ...
        99        2.0000           -0.4246202             -11.5545
       100        2.0000           -0.4238627             -11.5339
       101        2.0000           -0.4232816             -11.5181
       102        2.0000           -0.4220196             -11.4837
       103        2.0000           -0.4214516             -11.4683
       104        2.0000           -0.4149041             -11.2901
       105        2.0000           -0.4097175             -11.1490
       106        2.0000           -0.4094824             -11.1426
       107        2.0000           -0.4087031             -11.1214
       108        2.0000           -0.3831736             -10.4267
       109        2.0000           -0.3830640             -10.4237
       110        2.0000           -0.3708668             -10.0918
       111        2.0000           -0.3708470             -10.0913 (HOMO)
       112                         -0.2930328              -7.9738 (LUMO)
       113                         -0.2867520              -7.8029
       114                         -0.2566367              -6.9834
       115                         -0.2562622              -6.9732
       116                         -0.2480486              -6.7497
       117                         -0.2476572              -6.7391
       118                         -0.2429737              -6.6117
       119                         -0.2394229              -6.5150
       120                         -0.2264000              -6.1607
       121                         -0.2262574              -6.1568
       122                         -0.2111830              -5.7466
       ...                                ...                  ...
       218                          1.1669389              31.7540
      -------------------------------------------------------------
                  HL-Gap            0.0778142 Eh            2.1174 eV

     #   Z          covCN         q      C6AA      α(0)
     1   7 N        0.911    -0.232    26.082     7.386
     2   6 C        1.910     0.116    28.253     8.584
     3   6 C        2.973     0.003    27.952     8.672
     4   6 C        2.925    -0.021    28.533     8.760
     5   6 C        2.921    -0.037    28.908     8.817
     6   6 C        2.976     0.018    27.610     8.619
     7   6 C        2.975     0.011    27.773     8.644
     8   6 C        2.922    -0.031    28.786     8.798
     9   6 C        2.917    -0.028    28.691     8.784
    10   6 C        2.922    -0.031    28.783     8.798
    11   6 C        2.975     0.011    27.768     8.644
    12   6 C        2.975     0.017    27.619     8.621
    13   6 C        2.921    -0.037    28.915     8.818
    14   6 C        2.927    -0.021    28.538     8.761
    15   6 C        2.972     0.002    27.973     8.676
    16   6 C        1.910     0.115    28.261     8.585
    17   7 N        0.911    -0.233    26.115     7.391
    18   6 C        2.913     0.074    26.354     8.418
    19   7 N        2.803    -0.047    22.150     6.990
    20   6 C        3.072     0.046    26.888     8.502
    21   6 C        2.910    -0.050    29.241     8.867
    22   6 C        2.924    -0.032    28.797     8.800
    23   6 C        2.920    -0.038    28.948     8.823
    24   6 C        2.913    -0.031    28.772     8.796
    25   6 C        3.064    -0.014    28.290     8.722
    26   6 C        3.069    -0.014    28.297     8.722
    27   6 C        2.913    -0.031    28.779     8.797
    28   6 C        2.920    -0.038    28.936     8.821
    29   6 C        2.925    -0.029    28.733     8.791
    30   6 C        2.910    -0.045    29.116     8.848
    31   6 C        3.066     0.049    26.833     8.494
    32   6 C        2.933    -0.048    29.202     8.862
    33   6 C        2.939    -0.039    28.961     8.826
    34   6 C        2.930    -0.047    29.158     8.856
    35   6 C        2.915     0.075    26.335     8.415
    36   7 N        2.803    -0.050    22.207     6.999
    37   6 C        3.072     0.047    26.866     8.499
    38   6 C        2.910    -0.051    29.258     8.869
    39   6 C        2.924    -0.032    28.810     8.802
    40   6 C        2.920    -0.039    28.968     8.826
    41   6 C        2.913    -0.031    28.781     8.797
    42   6 C        3.066    -0.014    28.304     8.724
    43   6 C        3.068    -0.014    28.289     8.721
    44   6 C        2.913    -0.031    28.770     8.795
    45   6 C        2.920    -0.037    28.931     8.821
    46   6 C        2.925    -0.029    28.726     8.789
    47   6 C        2.910    -0.045    29.119     8.848
    48   6 C        3.070     0.050    26.803     8.489
    49   1 H        0.926     0.047     2.361     2.403
    50   1 H        0.926     0.044     2.401     2.423
    51   1 H        0.926     0.038     2.474     2.459
    52   1 H        0.926     0.038     2.469     2.457
    53   1 H        0.926     0.038     2.471     2.458
    54   1 H        0.926     0.044     2.402     2.424
    55   1 H        0.926     0.047     2.363     2.404
    56   1 H        0.926     0.020     2.741     2.589
    57   1 H        0.926     0.028     2.621     2.532
    58   1 H        0.926     0.032     2.554     2.499
    59   1 H        0.926     0.035     2.511     2.478
    60   1 H        0.926     0.034     2.523     2.484
    61   1 H        0.926     0.033     2.546     2.495
    62   1 H        0.926     0.035     2.515     2.480
    63   1 H        0.926     0.025     2.655     2.548
    64   1 H        0.926     0.048     2.344     2.394
    65   1 H        0.926     0.040     2.449     2.447
    66   1 H        0.926     0.048     2.349     2.397
    67   1 H        0.926     0.024     2.678     2.559
    68   1 H        0.926     0.030     2.579     2.512
    69   1 H        0.926     0.031     2.572     2.508
    70   1 H        0.926     0.034     2.525     2.485
    71   1 H        0.926     0.034     2.529     2.487
    72   1 H        0.926     0.032     2.563     2.503
    73   1 H        0.926     0.034     2.532     2.488
    74   1 H        0.926     0.022     2.697     2.568

molecular dipole:
                 x           y           z       tot (Debye)
 q only:        0.197      -1.653      -0.402
   full:        0.207      -2.376      -0.502       6.196

 projected vibrational frequencies (cm⁻¹)
eigval :       -0.00    -0.00    -0.00     0.00     0.00     0.00
eigval :        5.94    13.85    22.69    25.66    27.53    35.51
eigval :       44.97    57.62    64.56    70.47    78.27    79.46
eigval :      101.05   104.96   110.04   118.54   135.01   138.36
eigval :      145.13   151.74   175.52   181.29   214.92   224.59
eigval :      232.60   237.01   244.35   257.68   270.75   271.24
eigval :      273.45   299.77   305.26   308.63   327.81   357.48
eigval :      373.76   374.67   395.44   398.55   414.70   421.41
eigval :      422.83   432.23   435.84   438.60   466.39   483.43
eigval :      503.56   517.06   518.63   519.13   522.49   537.41
eigval :      539.71   540.93   541.81   545.15   555.05   559.05
eigval :      585.60   585.85   594.36   601.21   616.10   621.44
eigval :      632.02   652.62   657.62   672.30   672.74   673.70
eigval :      692.51   695.50   703.60   705.99   711.79   717.67
eigval :      730.83   755.50   756.01   768.03   769.65   779.72
eigval :      781.51   791.89   809.15   830.93   834.60   861.61
eigval :      867.33   869.19   869.98   871.83   880.55   893.29
eigval :      894.59   898.57   899.69   901.76   902.45   903.38
eigval :      906.01   912.13   916.93   917.29   921.79   922.04
eigval :      923.14   927.03   930.79   936.69   981.48   992.38
eigval :     1012.24  1012.72  1070.79  1071.95  1074.80  1075.14
eigval :     1087.47  1090.28  1095.72  1109.53  1126.36  1144.89
eigval :     1148.10  1152.55  1153.02  1175.38  1176.80  1180.57
eigval :     1181.19  1188.56  1189.60  1193.99  1228.01  1229.43
eigval :     1236.17  1236.39  1237.24  1240.66  1243.00  1246.69
eigval :     1268.41  1291.87  1294.10  1298.56  1299.09  1300.48
eigval :     1309.22  1311.77  1314.00  1322.47  1346.15  1349.96
eigval :     1358.06  1358.42  1360.66  1362.27  1404.08  1406.11
eigval :     1415.96  1427.33  1427.81  1434.68  1444.35  1463.89
eigval :     1473.43  1474.60  1482.13  1486.71  1487.42  1493.06
eigval :     1537.66  1539.23  1572.94  1575.60  1576.34  1577.01
eigval :     1581.07  1589.68  1591.05  1593.20  1599.46  1600.62
eigval :     1613.26  1614.49  2367.39  2369.79  3069.75  3074.83
eigval :     3079.35  3079.99  3080.91  3082.10  3082.77  3083.79
eigval :     3084.83  3087.10  3087.83  3089.35  3089.84  3090.64
eigval :     3091.50  3092.68  3094.04  3096.37  3097.56  3098.09
eigval :     3099.20  3099.67  3100.70  3101.25  3101.85  3107.54

   temp. (K)  partition function   enthalpy   heat capacity  entropy
                                   cal/mol     cal/K/mol   cal/K/mol   J/K/mol
 298.15  VIB  0.673E+17            21801.534    138.488    135.401
         ROT  0.666E+08              888.752      2.981     38.781
         INT  0.449E+25            22690.287    141.469    174.182
         TR   0.146E+29             1481.254      4.968     45.091
         TOT                       24171.5407   146.4371   219.2736   917.4407

       T/K    H(0)-H(T)+PV         H(T)/Eh          T*S/Eh         G(T)/Eh
   ------------------------------------------------------------------------
    298.15    0.385198E-01    0.593464E+00    0.104184E+00    0.489280E+00
   ------------------------------------------------------------------------

         :::::::::::::::::::::::::::::::::::::::::::::::::::::
         ::                  THERMODYNAMIC                  ::
         :::::::::::::::::::::::::::::::::::::::::::::::::::::
         :: total free energy        -118.675745904851 Eh   ::
         ::.................................................::
         :: total energy             -119.165026282730 Eh   ::
         :: zero point energy           0.554944532444 Eh   ::
         :: G(RRHO) w/o ZPVE           -0.065664154565 Eh   ::
         :: G(RRHO) contrib.            0.489280377879 Eh   ::
         :::::::::::::::::::::::::::::::::::::::::::::::::::::

           -------------------------------------------------
          | TOTAL ENERGY             -119.165026282730 Eh   |
          | TOTAL ENTHALPY           -118.571561948335 Eh   |
          | TOTAL FREE ENERGY        -118.675745904851 Eh   |
          | GRADIENT NORM               0.000071953700 Eh/α |
          | HOMO-LUMO GAP               2.117432154142 eV   |
           -------------------------------------------------

 * finished run on 2025/08/24 at 06:18:29.830
