   * xtb version 6.7.1 (edcfbbe) compiled by 'albert@albert-system' on 2024-07-22

   ID    Z sym.   atoms
    1    6 C      1-6, 8-11, 13, 14, 16-39
    2    5 B      7
    3   35 Br     12
    4    7 N      15
    5    1 H      40-72

          program call               : xtb data2507/toluene/CzBroB/CzBroB_toluene_T1_crest.xyz --gfn 2 --uhf 2 --gbsa toluene --ohess vtight --parallel 40 --molden --ceasefiles --namespace data2507/toluene/CzBroB/CzBroB_toluene_T1_finalOpt
      * Solvation model:               GBSA
        Solvent                        toluene
        Solvent mass                       9.2140E+01 g/mol
          :  Hamiltonian                  GFN2-xTB          :
 * total energy  :  -102.1587378 Eh     change       -0.2800277E-08 Eh
 * total energy  :  -102.1588656 Eh     change       -0.1278107E-03 Eh
 * total energy  :  -102.1589280 Eh     change       -0.6239717E-04 Eh
 * total energy  :  -102.1589506 Eh     change       -0.2259131E-04 Eh
 * total energy  :  -102.1589706 Eh     change       -0.2001995E-04 Eh
 * total energy  :  -102.1589917 Eh     change       -0.2111749E-04 Eh
 * total energy  :  -102.1590104 Eh     change       -0.1870289E-04 Eh
 * total energy  :  -102.1590223 Eh     change       -0.1191566E-04 Eh
 * total energy  :  -102.1590295 Eh     change       -0.7173032E-05 Eh
 * total energy  :  -102.1590351 Eh     change       -0.5608266E-05 Eh
 * total energy  :  -102.1590878 Eh     change       -0.2883877E-06 Eh
 * total energy  :  -102.1590880 Eh     change       -0.2680866E-06 Eh
 * total energy  :  -102.1590883 Eh     change       -0.2546559E-06 Eh
 * total energy  :  -102.1590885 Eh     change       -0.2192886E-06 Eh
 * total energy  :  -102.1590887 Eh     change       -0.1697612E-06 Eh
 * total energy  :  -102.1590888 Eh     change       -0.1554446E-06 Eh
 * total energy  :  -102.1590890 Eh     change       -0.1342425E-06 Eh
 * total energy  :  -102.1590891 Eh     change       -0.1074791E-06 Eh
 * total energy  :  -102.1590892 Eh     change       -0.9519015E-07 Eh
   *** GEOMETRY OPTIMIZATION CONVERGED AFTER 42 ITERATIONS ***

 final structure:
================
72
 xtb: 6.7.1 (edcfbbe)
C           -0.35051183907852        5.31774768470150       -1.14564874975917
C           -0.70311387933385        3.87253518018273       -1.00517590601804
C           -1.68956737390118        3.45941500081074       -0.10808848841423
C           -2.03096168279107        2.13135506479952        0.03164530337152
C           -3.11538750906217        1.74918246464982        0.98889496945845
C           -1.33240865401385        1.13359206454853       -0.69536322887647
B           -1.44683966762880       -0.38143713567193       -0.32542818635808
C           -0.22246353403774       -1.22963814483486       -0.03537373750581
C           -0.26829901463763       -2.65182653244819       -0.14207669486766
C            0.82836590617633       -3.45828590331208       -0.06689569025265
C            2.08849123001319       -2.87729206996693        0.15778701489865
Br           3.64480813940386       -3.98892047895878        0.30838377684679
C            2.20494850305205       -1.50839175505184        0.32636741951131
C            1.09024549260305       -0.69073950413791        0.26447220096674
N            1.30012629272014        0.67971670926964        0.45835781761144
C            0.74469742688681        1.46251800474310        1.45223185263712
C           -0.13008089180484        1.10344092274650        2.46625583419086
C           -0.50353863759597        2.07737528237519        3.37381832885431
C           -0.01265497290358        3.37700274673172        3.28510230473730
C            0.88964623954459        3.73168796492991        2.29799057323633
C            1.27950681963296        2.76958999345829        1.37983606387925
C            2.23417685651565        2.75834691503641        0.30344309295652
C            3.08163387137174        3.71545457202673       -0.23022514975359
C            3.91828087308188        3.35371011915708       -1.27257911770827
C            3.91515839874806        2.05513954723684       -1.77699818093134
C            3.07760657450188        1.08380980539415       -1.25999895877967
C            2.23313087104481        1.44025039611656       -0.21511781284313
C           -2.88713192722041       -1.06156990468630       -0.28361337975060
C           -3.74588870954600       -0.94129856269812       -1.39077288553225
C           -3.32389714557920       -0.20427119058558       -2.62654888215878
C           -4.99038548795619       -1.54994747047037       -1.38116154569953
C           -5.43698579931436       -2.28483524200626       -0.29029505466922
C           -6.78784146158301       -2.93660969525677       -0.31015069521026
C           -4.59240411193945       -2.39709263591293        0.79872307885637
C           -3.33665484790605       -1.79790204138601        0.82143883299429
C           -2.55128702586575       -1.94273594629021        2.09408208642032
C           -0.43543211247285        1.56992775150352       -1.70468726958814
C            0.14985864350887        0.62116392754913       -2.70602783737080
C           -0.11214838581920        2.91046584992764       -1.81489258342564
H           -0.48842850442597        5.84106600633417       -0.20217643252049
H            0.68015982623866        5.43049524199089       -1.47445535066129
H           -0.99469649198129        5.79094255293767       -1.88909254906395
H           -2.19313599803832        4.20294624614198        0.49429934971897
H           -2.77178430421438        0.95942966079767        1.65122404024853
H           -3.98132286715552        1.36916329635269        0.44767892707578
H           -3.42470759214499        2.60504524689847        1.58417927641193
H           -1.23235565188778       -3.10252353926712       -0.32741130735844
H            0.74418948124954       -4.52878793281035       -0.18044937869589
H            3.16706947240975       -1.07413698457434        0.55965179414424
H           -0.49495523046264        0.09344878481770        2.54946675566498
H           -1.18406079134163        1.82296399302224        4.17273813000480
H           -0.32867800688481        4.11207879625715        4.01056461232977
H            1.29296761598755        4.73167642464385        2.24922736813701
H            3.08948503088473        4.72115919969023        0.16160897959551
H            4.58750361463238        4.08490831890182       -1.70147018479574
H            4.58151745966864        1.80062511243379       -2.58812116859283
H            3.08451719182671        0.07949816441935       -1.65515980229633
H           -2.45701772236818       -0.69004339229439       -3.07129425506196
H           -3.04734325933784        0.82070104907225       -2.38712273703455
H           -4.12698675419122       -0.18698228985967       -3.36026397070874
H           -5.62740995577931       -1.46167688681124       -2.25144794203998
H           -7.55439988552860       -2.22150541556795       -0.60632953334210
H           -6.80038089105954       -3.75523844345243       -1.03080995256849
H           -7.04145645851139       -3.33681431371138        0.66873616522501
H           -4.91604574700336       -2.95216134279539        1.66957806399002
H           -1.50602518946199       -1.69551362163574        1.94351618106081
H           -2.96348203960870       -1.28596845343768        2.86218858946847
H           -2.61479620226059       -2.96457370593153        2.46551310355539
H            1.15515587804837        0.92915563069536       -2.98515979757748
H            0.17150498303264       -0.39774594180661       -2.33039375377003
H           -0.45996301652281        0.63474019782966       -3.61092506670335
H            0.61140806878000        3.21752411038696       -2.55790371809710

          :  Hamiltonian                  GFN2-xTB          :
         :: gradient norm              0.000033271277 Eh/a0 ::
         :: HOMO-LUMO gap              0.455614611964 eV    ::
         :: SCC energy              -103.946952173440 Eh    ::
         :: -> dispersion             -0.112870747658 Eh    ::
         :: -> Gsolv                  -0.037275920933 Eh    ::
         :: repulsion energy           1.787863001057 Eh    ::

    * Orbital Energies and Occupations

         #    Occupation            Energy/Eh            Energy/eV
      -------------------------------------------------------------
         1        2.0000           -0.8299228             -22.5833
       ...           ...                  ...                  ...
        85        2.0000           -0.4115003             -11.1975
        86        2.0000           -0.4071985             -11.0804
        87        2.0000           -0.4014516             -10.9241
        88        2.0000           -0.3969104             -10.8005
        89        2.0000           -0.3921161             -10.6700
        90        2.0000           -0.3899981             -10.6124
        91        2.0000           -0.3857408             -10.4965
        92        2.0000           -0.3805533             -10.3554
        93        2.0000           -0.3782462             -10.2926
        94        1.9999           -0.3739541             -10.1758
        95        1.9977           -0.3703622             -10.0781
        96        1.0024           -0.3588556              -9.7650
        97        0.9999           -0.2683803              -7.3030 (HOMO)
        98        0.0001           -0.2516372              -6.8474 (LUMO)
        99                         -0.2309976              -6.2858
       100                         -0.2253169              -6.1312
       101                         -0.2224971              -6.0545
       102                         -0.2109823              -5.7411
       103                         -0.2101304              -5.7179
       104                         -0.2053245              -5.5872
       105                         -0.1992061              -5.4207
       106                         -0.1928976              -5.2490
       107                         -0.1907551              -5.1907
       108                         -0.1601198              -4.3571
       ...                                ...                  ...
       194                          0.7387569              20.1026
      -------------------------------------------------------------
                  HL-Gap            0.0167430 Eh            0.4556 eV

     #   Z          covCN         q      C6AA      α(0)
     1   6 C        3.758    -0.108    22.619     6.781
     2   6 C        2.962     0.020    27.561     8.611
     3   6 C        2.926    -0.053    29.324     8.880
     4   6 C        2.963     0.015    27.686     8.631
     5   6 C        3.759    -0.114    22.724     6.796
     6   6 C        2.888    -0.058    29.435     8.895
     7   5 B        2.710     0.181    18.695     7.251
     8   6 C        2.878    -0.084    30.099     8.994
     9   6 C        2.921    -0.043    29.065     8.841
    10   6 C        2.961    -0.045    29.126     8.852
    11   6 C        2.912     0.050    26.886     8.503
    12  35 Br       1.037    -0.233   191.546    22.315
    13   6 C        2.980    -0.050    29.238     8.870
    14   6 C        2.909     0.038    27.157     8.545
    15   7 N        2.801    -0.008    21.416     6.873
    16   6 C        3.079     0.049    26.815     8.490
    17   6 C        2.910    -0.043    29.071     8.841
    18   6 C        2.923    -0.031    28.773     8.796
    19   6 C        2.920    -0.035    28.876     8.812
    20   6 C        2.912    -0.030    28.761     8.794
    21   6 C        3.066    -0.012    28.248     8.715
    22   6 C        3.066    -0.010    28.205     8.709
    23   6 C        2.912    -0.030    28.760     8.794
    24   6 C        2.920    -0.035    28.869     8.811
    25   6 C        2.922    -0.034    28.838     8.806
    26   6 C        2.909    -0.040    29.005     8.831
    27   6 C        3.079     0.050    26.802     8.488
    28   6 C        2.886    -0.063    29.572     8.915
    29   6 C        2.966     0.008    27.847     8.656
    30   6 C        3.759    -0.112    22.684     6.790
    31   6 C        2.931    -0.057    29.414     8.894
    32   6 C        2.961     0.004    27.925     8.668
    33   6 C        3.757    -0.105    22.557     6.772
    34   6 C        2.932    -0.057    29.427     8.896
    35   6 C        2.965     0.008    27.837     8.654
    36   6 C        3.760    -0.108    22.616     6.780
    37   6 C        2.963     0.015    27.678     8.629
    38   6 C        3.759    -0.113    22.702     6.793
    39   6 C        2.926    -0.055    29.363     8.886
    40   1 H        0.925     0.048     2.345     2.395
    41   1 H        0.925     0.047     2.352     2.398
    42   1 H        0.924     0.054     2.267     2.355
    43   1 H        0.925     0.028     2.608     2.525
    44   1 H        0.925     0.058     2.221     2.331
    45   1 H        0.925     0.053     2.284     2.363
    46   1 H        0.925     0.040     2.453     2.449
    47   1 H        0.926     0.037     2.487     2.466
    48   1 H        0.926     0.028     2.611     2.527
    49   1 H        0.926     0.034     2.524     2.485
    50   1 H        0.926     0.042     2.427     2.436
    51   1 H        0.926     0.040     2.450     2.448
    52   1 H        0.926     0.038     2.478     2.462
    53   1 H        0.926     0.040     2.447     2.446
    54   1 H        0.926     0.041     2.439     2.442
    55   1 H        0.926     0.037     2.487     2.466
    56   1 H        0.926     0.036     2.496     2.471
    57   1 H        0.926     0.039     2.461     2.453
    58   1 H        0.925     0.046     2.367     2.406
    59   1 H        0.925     0.051     2.307     2.375
    60   1 H        0.925     0.036     2.498     2.472
    61   1 H        0.925     0.021     2.712     2.575
    62   1 H        0.925     0.041     2.434     2.440
    63   1 H        0.924     0.042     2.424     2.435
    64   1 H        0.925     0.037     2.485     2.465
    65   1 H        0.925     0.021     2.713     2.576
    66   1 H        0.925     0.045     2.384     2.415
    67   1 H        0.924     0.041     2.437     2.441
    68   1 H        0.925     0.037     2.488     2.467
    69   1 H        0.925     0.043     2.413     2.429
    70   1 H        0.925     0.048     2.341     2.392
    71   1 H        0.924     0.053     2.281     2.362
    72   1 H        0.925     0.026     2.641     2.541

molecular dipole:
                 x           y           z       tot (Debye)
 q only:       -1.293       2.653      -0.157
   full:       -1.525       2.696      -0.218       7.893

 projected vibrational frequencies (cm⁻¹)
eigval :       -0.00    -0.00    -0.00    -0.00     0.00     0.00
eigval :       17.88    27.18    31.69    37.66    40.59    45.16
eigval :       51.09    54.01    64.74    74.67    75.97    81.19
eigval :       92.13   102.76   108.68   117.98   127.53   135.16
eigval :      138.16   150.21   155.80   164.49   168.35   175.48
eigval :      182.59   188.69   192.58   203.13   209.87   216.19
eigval :      257.67   272.78   276.06   279.91   285.11   300.40
eigval :      306.49   311.75   323.36   329.12   373.61   393.87
eigval :      395.43   423.33   425.28   434.21   452.40   466.49
eigval :      471.98   480.33   483.32   493.09   499.51   511.68
eigval :      515.27   519.87   525.41   537.99   543.08   551.89
eigval :      565.74   581.68   594.55   598.27   599.55   603.59
eigval :      632.07   645.48   663.05   668.45   674.34   707.01
eigval :      729.28   755.91   769.88   779.37   793.37   833.41
eigval :      836.47   847.61   862.94   864.41   866.21   868.82
eigval :      874.44   881.23   892.68   901.89   906.83   907.54
eigval :      915.69   921.93   927.64   959.61   960.55   970.59
eigval :      971.58  1009.53  1011.07  1016.49  1021.42  1023.11
eigval :     1025.96  1026.75  1029.25  1032.49  1033.66  1036.40
eigval :     1039.42  1041.03  1056.00  1065.03  1067.15  1077.38
eigval :     1087.75  1108.95  1132.21  1140.29  1169.98  1177.44
eigval :     1180.51  1189.62  1195.19  1199.43  1222.83  1224.21
eigval :     1228.45  1231.91  1234.44  1273.94  1285.07  1290.79
eigval :     1295.00  1300.24  1317.20  1329.82  1336.25  1341.66
eigval :     1363.74  1368.36  1390.04  1392.66  1393.89  1396.26
eigval :     1398.27  1399.51  1403.59  1408.55  1410.57  1415.55
eigval :     1417.83  1424.86  1431.87  1434.53  1454.91  1460.04
eigval :     1464.65  1468.75  1473.79  1475.21  1477.66  1479.71
eigval :     1480.29  1480.84  1481.91  1485.10  1486.22  1487.79
eigval :     1493.88  1523.44  1538.35  1564.11  1566.97  1572.19
eigval :     1577.55  1581.05  1598.51  2978.99  2980.46  2982.65
eigval :     2990.67  3005.50  3011.91  3012.40  3015.95  3021.69
eigval :     3029.34  3030.95  3032.38  3033.52  3034.69  3035.72
eigval :     3046.15  3048.72  3050.10  3053.28  3061.29  3064.00
eigval :     3064.90  3072.22  3074.58  3076.75  3077.76  3082.96
eigval :     3085.88  3087.65  3090.80  3094.16  3096.48  3120.38

   temp. (K)  partition function   enthalpy   heat capacity  entropy
                                   cal/mol     cal/K/mol   cal/K/mol   J/K/mol
 298.15  VIB  0.217E+17            22015.138    133.099    138.197
         ROT  0.401E+08              888.752      2.981     37.770
         INT  0.870E+24            22903.890    136.080    175.967
         TR   0.132E+29             1481.254      4.968     44.888
         TOT                       24385.1439   141.0480   220.8542   924.0540

       T/K    H(0)-H(T)+PV         H(T)/Eh          T*S/Eh         G(T)/Eh
   ------------------------------------------------------------------------
    298.15    0.388602E-01    0.608355E+00    0.104935E+00    0.503420E+00
   ------------------------------------------------------------------------

         :::::::::::::::::::::::::::::::::::::::::::::::::::::
         ::                  THERMODYNAMIC                  ::
         :::::::::::::::::::::::::::::::::::::::::::::::::::::
         :: total free energy        -101.655669443565 Eh   ::
         ::.................................................::
         :: total energy             -102.159089172442 Eh   ::
         :: zero point energy           0.569494485069 Eh   ::
         :: G(RRHO) w/o ZPVE           -0.066074756193 Eh   ::
         :: G(RRHO) contrib.            0.503419728877 Eh   ::
         :::::::::::::::::::::::::::::::::::::::::::::::::::::

           -------------------------------------------------
          | TOTAL ENERGY             -102.159089172442 Eh   |
          | TOTAL ENTHALPY           -101.550734486977 Eh   |
          | TOTAL FREE ENERGY        -101.655669443565 Eh   |
          | GRADIENT NORM               0.000033608098 Eh/α |
          | HOMO-LUMO GAP               0.455600843268 eV   |
           -------------------------------------------------

 * finished run on 2025/08/23 at 23:58:24.172
