   * xtb version 6.7.1 (edcfbbe) compiled by 'albert@albert-system' on 2024-07-22

   ID    Z sym.   atoms
    1    6 C      1-6, 8-11, 13, 14, 16-39
    2    5 B      7
    3   35 Br     12
    4    7 N      15
    5    1 H      40-72

          program call               : xtb data2507/toluene/CzBroB/CzBroB_toluene_S0_crest.xyz --gfn 2 --gbsa toluene --ohess vtight --parallel 40 --molden --ceasefiles --namespace data2507/toluene/CzBroB/CzBroB_toluene_S0_finalOpt
      * Solvation model:               GBSA
        Solvent                        toluene
        Solvent mass                       9.2140E+01 g/mol
          :  Hamiltonian                  GFN2-xTB          :
 * total energy  :  -102.2466358 Eh     change       -0.3060052E-08 Eh
 * total energy  :  -102.2467375 Eh     change       -0.1017243E-03 Eh
 * total energy  :  -102.2468047 Eh     change       -0.6727261E-04 Eh
 * total energy  :  -102.2468434 Eh     change       -0.3861927E-04 Eh
 * total energy  :  -102.2468950 Eh     change       -0.5162347E-04 Eh
 * total energy  :  -102.2469588 Eh     change       -0.6379006E-04 Eh
 * total energy  :  -102.2470089 Eh     change       -0.5008293E-04 Eh
 * total energy  :  -102.2470319 Eh     change       -0.2303013E-04 Eh
 * total energy  :  -102.2470410 Eh     change       -0.9141612E-05 Eh
 * total energy  :  -102.2470468 Eh     change       -0.5790806E-05 Eh
 * total energy  :  -102.2470856 Eh     change        0.3075392E-07 Eh
 * total energy  :  -102.2470858 Eh     change       -0.2234997E-06 Eh
 * total energy  :  -102.2470860 Eh     change       -0.1226822E-06 Eh
 * total energy  :  -102.2470861 Eh     change       -0.1429686E-06 Eh
 * total energy  :  -102.2470863 Eh     change       -0.1931197E-06 Eh
 * total energy  :  -102.2470865 Eh     change       -0.1814137E-06 Eh
 * total energy  :  -102.2470867 Eh     change       -0.2390212E-06 Eh
 * total energy  :  -102.2470868 Eh     change       -0.1229235E-06 Eh
 * total energy  :  -102.2470869 Eh     change       -0.7358807E-08 Eh
   *** GEOMETRY OPTIMIZATION CONVERGED AFTER 59 ITERATIONS ***

 final structure:
================
72
 xtb: 6.7.1 (edcfbbe)
C           -1.00547937369778        5.33684538793229       -1.46300812826706
C           -1.14583863637751        3.86595775708286       -1.21433689249844
C           -1.98912252113672        3.38150537396973       -0.22463159472695
C           -2.12498677325225        2.02481406383777        0.01647802899300
C           -3.08869092586899        1.57429036518096        1.07548977897462
C           -1.38110562954940        1.09028921413741       -0.72825418639622
B           -1.41626602841415       -0.42793725443419       -0.33731580232735
C           -0.06099410974229       -1.20492612914558       -0.09968272642560
C           -0.04163264889509       -2.57928378264054       -0.37576560399570
C            1.10361872065649       -3.34804850925946       -0.30455728362857
C            2.28582645664156       -2.73849145241382        0.07805935067876
Br           3.89629022748649       -3.77391189556378        0.20218563221846
C            2.32354876564516       -1.39178207308341        0.37866241925911
C            1.16464657063645       -0.62451095473018        0.28123558176959
N            1.30012530270528        0.74894998394872        0.55295816629351
C            0.69223776741945        1.47251557426822        1.55702274494448
C           -0.11567383278445        1.03288815852688        2.59340772977611
C           -0.55300381453651        1.96536928487497        3.51485936346203
C           -0.19375806429371        3.30724954934490        3.41622540445162
C            0.63977612054580        3.74502153818730        2.40638036210591
C            1.09974578277019        2.82350768745704        1.47538391248711
C            2.01836833383279        2.90614479729842        0.37577757707078
C            2.75280712240496        3.94478598759968       -0.18108635057713
C            3.59375157173789        3.66886655077787       -1.24096695481778
C            3.70882661887714        2.37483426908386       -1.74445204946129
C            2.98518947261266        1.32607880437049       -1.20890488374409
C            2.13527081014666        1.59831246900355       -0.14654284772375
C           -2.76261327424559       -1.23687676110539       -0.25334749865107
C           -3.64665850520349       -1.23893458052063       -1.35279516254080
C           -3.31275748820614       -0.49515411436797       -2.61305192699436
C           -4.82499127347503       -1.96373943315031       -1.31210653843477
C           -5.19314634227206       -2.70027492190738       -0.19337966195919
C           -6.48730878490374       -3.45527298366948       -0.16815111823886
C           -4.32961951449756       -2.70240721828180        0.88711089804154
C           -3.13201457620757       -1.99765003661497        0.86852989053506
C           -2.30042318530946       -2.04282072672499        2.11842904803360
C           -0.58309825820330        1.58019033815370       -1.77488365552766
C            0.09143834245566        0.66247864175443       -2.75440788616094
C           -0.47175368184043        2.94462248898032       -1.99846844681473
H           -1.22576477634961        5.90543728948758       -0.56219332506274
H            0.00229020286447        5.57483755113969       -1.79725545432440
H           -1.70136517518476        5.65295693377843       -2.24206430088092
H           -2.55185254628966        4.08220123507721        0.37739332575703
H           -3.45533757441463        2.42502557099074        1.64558358421038
H           -2.61843818748663        0.87525773568247        1.75935663973469
H           -3.94015558899539        1.07408016660056        0.61506361575477
H           -0.96511763211077       -3.05477494130396       -0.67072858788069
H            1.07969244649908       -4.40113445790530       -0.53783052787898
H            3.24590918641624       -0.92275992575209        0.68779875447384
H           -0.37987521479783       -0.00798580346761        2.68808943624093
H           -1.18292940012322        1.64656235784895        4.33281213796262
H           -0.55980525293690        4.00770395390834        4.15277498205929
H            0.94150483641451        4.78013203964299        2.34632770573578
H            2.66648918415428        4.94706156524975        0.21127743490978
H            4.17588106697103        4.46238980439394       -1.68682958806219
H            4.37978452220411        2.18642732678697       -2.57041337009844
H            3.08465246362022        0.32692899321675       -1.60667554526767
H           -2.39195583588745       -0.87900647743669       -3.04745588655795
H           -3.16914372756134        0.56305001936830       -2.40773813744785
H           -4.11056172702522       -0.60361195427352       -3.34465640048377
H           -5.48020905722800       -1.95649530034182       -2.17293649382155
H           -6.55179445955967       -4.09027561375498        0.71231107631158
H           -7.32694636735426       -2.75963989638086       -0.15416922005965
H           -6.58606812632094       -4.07611685068545       -1.05765624409514
H           -4.58879112692092       -3.26803684589670        1.77218619971390
H           -2.38309388626869       -3.01884425190269        2.59376911551026
H           -1.25451167568499       -1.84453619980884        1.90911713825374
H           -2.66064809741734       -1.29822410545275        2.83020095388938
H           -0.49069110958644        0.63292190184285       -3.67686296188501
H            1.08270403630103        1.03466441677032       -3.00444828689633
H            0.17267607860939       -0.35089847651871       -2.37319662615619
H            0.16071301768464        3.29391708105149       -2.80354909804249

          :  Hamiltonian                  GFN2-xTB          :
         :: gradient norm              0.000171101985 Eh/a0 ::
         :: HOMO-LUMO gap              2.152208660963 eV    ::
         :: SCC energy              -104.045541076072 Eh    ::
         :: -> dispersion             -0.110781573809 Eh    ::
         :: -> Gsolv                  -0.036499731303 Eh    ::
         :: repulsion energy           1.798454222608 Eh    ::

    * Orbital Energies and Occupations

         #    Occupation            Energy/Eh            Energy/eV
      -------------------------------------------------------------
         1        2.0000           -0.8412776             -22.8923
       ...           ...                  ...                  ...
        84        2.0000           -0.4148691             -11.2892
        85        2.0000           -0.4142544             -11.2724
        86        2.0000           -0.4128162             -11.2333
        87        2.0000           -0.4050247             -11.0213
        88        2.0000           -0.4040523             -10.9948
        89        2.0000           -0.4037254             -10.9859
        90        2.0000           -0.3950961             -10.7511
        91        2.0000           -0.3825895             -10.4108
        92        2.0000           -0.3819069             -10.3922
        93        2.0000           -0.3760770             -10.2336
        94        2.0000           -0.3745472             -10.1919
        95        2.0000           -0.3712807             -10.1031
        96        2.0000           -0.3612096              -9.8290 (HOMO)
        97                         -0.2821172              -7.6768 (LUMO)
        98                         -0.2476664              -6.7393
        99                         -0.2426065              -6.6017
       100                         -0.2299897              -6.2583
       101                         -0.2217912              -6.0352
       102                         -0.2121193              -5.7721
       103                         -0.2098035              -5.7090
       104                         -0.2084048              -5.6710
       105                         -0.2051607              -5.5827
       106                         -0.1918263              -5.2199
       107                         -0.1852276              -5.0403
       ...                                ...                  ...
       194                          0.7479724              20.3534
      -------------------------------------------------------------
                  HL-Gap            0.0790924 Eh            2.1522 eV

     #   Z          covCN         q      C6AA      α(0)
     1   6 C        3.757    -0.106    22.569     6.773
     2   6 C        2.963     0.012    27.736     8.638
     3   6 C        2.929    -0.056    29.388     8.890
     4   6 C        2.967     0.012    27.755     8.641
     5   6 C        3.759    -0.112    22.692     6.791
     6   6 C        2.889    -0.083    30.073     8.991
     7   5 B        2.707     0.256    17.633     7.043
     8   6 C        2.880    -0.071    29.760     8.943
     9   6 C        2.930    -0.027    28.683     8.783
    10   6 C        2.976    -0.039    28.960     8.827
    11   6 C        2.916     0.085    26.109     8.379
    12  35 Br       1.052    -0.195   190.456    22.252
    13   6 C        2.990    -0.047    29.164     8.859
    14   6 C        2.916     0.069    26.455     8.434
    15   7 N        2.804    -0.047    22.143     6.989
    16   6 C        3.078     0.051    26.780     8.484
    17   6 C        2.911    -0.053    29.310     8.878
    18   6 C        2.924    -0.034    28.837     8.806
    19   6 C        2.920    -0.042    29.047     8.838
    20   6 C        2.913    -0.034    28.838     8.806
    21   6 C        3.070    -0.017    28.351     8.731
    22   6 C        3.069    -0.016    28.338     8.729
    23   6 C        2.913    -0.034    28.843     8.807
    24   6 C        2.920    -0.043    29.063     8.840
    25   6 C        2.924    -0.036    28.891     8.814
    26   6 C        2.910    -0.050    29.250     8.868
    27   6 C        3.082     0.051    26.775     8.483
    28   6 C        2.886    -0.083    30.084     8.992
    29   6 C        2.967     0.013    27.727     8.637
    30   6 C        3.759    -0.115    22.752     6.800
    31   6 C        2.930    -0.057    29.424     8.896
    32   6 C        2.962     0.013    27.724     8.636
    33   6 C        3.757    -0.108    22.610     6.779
    34   6 C        2.931    -0.057    29.427     8.896
    35   6 C        2.966     0.012    27.749     8.640
    36   6 C        3.760    -0.109    22.629     6.782
    37   6 C        2.967     0.011    27.769     8.644
    38   6 C        3.759    -0.109    22.642     6.784
    39   6 C        2.931    -0.056    29.402     8.893
    40   1 H        0.925     0.040     2.447     2.446
    41   1 H        0.925     0.041     2.437     2.441
    42   1 H        0.924     0.046     2.375     2.410
    43   1 H        0.925     0.021     2.711     2.575
    44   1 H        0.925     0.036     2.501     2.473
    45   1 H        0.925     0.046     2.376     2.411
    46   1 H        0.925     0.049     2.338     2.391
    47   1 H        0.926     0.058     2.227     2.334
    48   1 H        0.926     0.055     2.254     2.348
    49   1 H        0.926     0.054     2.272     2.357
    50   1 H        0.926     0.028     2.615     2.529
    51   1 H        0.926     0.030     2.582     2.513
    52   1 H        0.926     0.028     2.617     2.530
    53   1 H        0.926     0.030     2.584     2.514
    54   1 H        0.926     0.030     2.582     2.513
    55   1 H        0.926     0.027     2.630     2.536
    56   1 H        0.926     0.028     2.611     2.527
    57   1 H        0.926     0.027     2.630     2.536
    58   1 H        0.925     0.045     2.389     2.417
    59   1 H        0.925     0.051     2.312     2.378
    60   1 H        0.925     0.039     2.467     2.456
    61   1 H        0.925     0.024     2.667     2.554
    62   1 H        0.925     0.040     2.454     2.450
    63   1 H        0.924     0.046     2.375     2.410
    64   1 H        0.925     0.044     2.397     2.421
    65   1 H        0.925     0.024     2.674     2.557
    66   1 H        0.925     0.041     2.438     2.442
    67   1 H        0.925     0.038     2.471     2.458
    68   1 H        0.924     0.043     2.409     2.427
    69   1 H        0.924     0.046     2.368     2.406
    70   1 H        0.925     0.041     2.437     2.441
    71   1 H        0.925     0.036     2.505     2.475
    72   1 H        0.925     0.021     2.719     2.579

molecular dipole:
                 x           y           z       tot (Debye)
 q only:       -1.417       0.184      -0.249
   full:       -1.591       0.291      -0.271       4.169

 projected vibrational frequencies (cm⁻¹)
eigval :       -0.00    -0.00    -0.00    -0.00     0.00     0.00
eigval :      -19.37    11.02    22.75    26.79    34.68    37.15
eigval :       45.16    57.59    57.93    61.48    76.51    88.56
eigval :      100.14   104.57   118.89   122.72   128.61   131.59
eigval :      134.87   145.95   159.78   164.14   167.65   181.16
eigval :      183.21   193.39   196.68   202.15   205.10   213.90
eigval :      262.18   274.25   274.91   282.47   285.75   305.25
eigval :      311.46   321.81   328.17   335.42   381.86   399.12
eigval :      420.85   427.45   431.88   438.74   462.05   485.60
eigval :      489.16   492.57   496.99   504.67   512.54   513.91
eigval :      519.78   525.59   537.04   542.39   550.69   565.01
eigval :      584.74   591.89   599.86   601.56   610.29   612.32
eigval :      647.51   672.78   678.42   680.31   702.14   706.86
eigval :      736.50   757.95   772.75   785.23   825.42   837.45
eigval :      840.35   868.02   868.80   876.90   877.35   888.18
eigval :      888.66   890.50   899.38   905.90   907.06   923.67
eigval :      925.79   930.21   932.11   962.53   963.37   974.60
eigval :      976.23  1011.80  1019.87  1022.32  1028.36  1028.60
eigval :     1029.24  1032.21  1033.46  1034.50  1040.49  1041.08
eigval :     1042.57  1043.37  1068.75  1071.16  1074.06  1107.19
eigval :     1110.14  1142.57  1151.23  1161.04  1174.47  1179.48
eigval :     1181.50  1192.62  1207.86  1219.24  1235.06  1235.51
eigval :     1236.83  1239.89  1242.61  1287.82  1297.96  1300.39
eigval :     1301.75  1305.10  1332.01  1334.87  1337.86  1360.16
eigval :     1363.03  1388.23  1396.90  1398.81  1399.01  1399.26
eigval :     1403.36  1407.63  1424.14  1426.73  1427.96  1428.74
eigval :     1445.37  1447.36  1454.72  1473.81  1475.19  1475.63
eigval :     1478.25  1479.04  1479.61  1482.22  1483.39  1483.89
eigval :     1485.14  1487.91  1489.19  1491.17  1497.52  1534.14
eigval :     1554.46  1556.58  1558.26  1574.65  1591.18  1599.27
eigval :     1599.96  1602.26  1615.92  2981.47  2983.70  2985.39
eigval :     2995.19  3006.88  3014.95  3021.32  3021.51  3027.71
eigval :     3030.17  3030.47  3032.78  3033.22  3037.13  3038.53
eigval :     3056.29  3056.31  3057.90  3059.69  3061.72  3062.14
eigval :     3065.09  3068.43  3070.12  3074.46  3077.47  3082.20
eigval :     3087.41  3087.55  3090.47  3092.82  3102.13  3109.94

   temp. (K)  partition function   enthalpy   heat capacity  entropy
                                   cal/mol     cal/K/mol   cal/K/mol   J/K/mol
 298.15  VIB  0.105E+18            21833.978    130.654    137.669
         ROT  0.405E+08              888.752      2.981     37.789
         INT  0.424E+25            22722.731    133.635    175.458
         TR   0.132E+29             1481.254      4.968     44.888
         TOT                       24203.9847   138.6035   220.3460   921.9277

       T/K    H(0)-H(T)+PV         H(T)/Eh          T*S/Eh         G(T)/Eh
   ------------------------------------------------------------------------
    298.15    0.385715E-01    0.611841E+00    0.104693E+00    0.507147E+00
   ------------------------------------------------------------------------

         :::::::::::::::::::::::::::::::::::::::::::::::::::::
         ::                  THERMODYNAMIC                  ::
         :::::::::::::::::::::::::::::::::::::::::::::::::::::
         :: total free energy        -101.739939676888 Eh   ::
         ::.................................................::
         :: total energy             -102.247086851126 Eh   ::
         :: zero point energy           0.573269163922 Eh   ::
         :: G(RRHO) w/o ZPVE           -0.066121989683 Eh   ::
         :: G(RRHO) contrib.            0.507147174239 Eh   ::
         :::::::::::::::::::::::::::::::::::::::::::::::::::::

           -------------------------------------------------
          | TOTAL ENERGY             -102.247086851126 Eh   |
          | TOTAL ENTHALPY           -101.635246182466 Eh   |
          | TOTAL FREE ENERGY        -101.739939676888 Eh   |
          | GRADIENT NORM               0.000171098771 Eh/α |
          | HOMO-LUMO GAP               2.152213260062 eV   |
           -------------------------------------------------

 * finished run on 2025/08/23 at 23:54:25.245
