   * xtb version 6.7.1 (edcfbbe) compiled by 'albert@albert-system' on 2024-07-22

   ID    Z sym.   atoms
    1    6 C      1-6, 8-11, 13, 14, 16-39
    2    5 B      7
    3   35 Br     12
    4    7 N      15
    5    1 H      40-72

          program call               : xtb data2507/toluene/CzBroB/CzBroB_toluene_S0_finalOpt.xtbopt.xyz --gfn 2 --uhf 2 --gbsa toluene --ohess vtight --parallel 40 --molden --ceasefiles --namespace data2507/toluene/CzBroB/CzBroB_toluene_T1_preOpt
      * Solvation model:               GBSA
        Solvent                        toluene
        Solvent mass                       9.2140E+01 g/mol
          :  Hamiltonian                  GFN2-xTB          :
 * total energy  :  -102.1529718 Eh     change       -0.7729938E-08 Eh
 * total energy  :  -102.1564408 Eh     change       -0.3468959E-02 Eh
 * total energy  :  -102.1578345 Eh     change       -0.1393769E-02 Eh
 * total energy  :  -102.1580614 Eh     change       -0.2268796E-03 Eh
 * total energy  :  -102.1583670 Eh     change       -0.3056067E-03 Eh
 * total energy  :  -102.1584949 Eh     change       -0.1279337E-03 Eh
 * total energy  :  -102.1586687 Eh     change       -0.1737254E-03 Eh
 * total energy  :  -102.1588064 Eh     change       -0.1377781E-03 Eh
 * total energy  :  -102.1588684 Eh     change       -0.6194710E-04 Eh
 * total energy  :  -102.1588985 Eh     change       -0.3014878E-04 Eh
 * total energy  :  -102.1590649 Eh     change       -0.5558966E-06 Eh
 * total energy  :  -102.1590653 Eh     change       -0.3648700E-06 Eh
 * total energy  :  -102.1590655 Eh     change       -0.2709256E-06 Eh
 * total energy  :  -102.1590659 Eh     change       -0.3334679E-06 Eh
 * total energy  :  -102.1590664 Eh     change       -0.5357963E-06 Eh
 * total energy  :  -102.1590673 Eh     change       -0.9235475E-06 Eh
 * total energy  :  -102.1590675 Eh     change       -0.1793389E-06 Eh
 * total energy  :  -102.1590680 Eh     change       -0.4590358E-06 Eh
 * total energy  :  -102.1590680 Eh     change       -0.8332367E-07 Eh
   *** GEOMETRY OPTIMIZATION CONVERGED AFTER 46 ITERATIONS ***

 final structure:
================
72
 xtb: 6.7.1 (edcfbbe)
C           -0.77617892561003        5.28359436831456       -1.18190176075171
C           -1.00857253430222        3.81585092842888       -1.02595734247861
C           -1.94483523591586        3.32720627276472       -0.11409389578160
C           -2.17483748319891        1.97594117093738        0.03374449598377
C           -3.21311048662616        1.51039081095477        1.00502604849616
C           -1.40677551004120        1.03525329872522       -0.69925663384148
B           -1.39864822792881       -0.48307871920299       -0.32564530090852
C           -0.10757069550407       -1.22982829266262       -0.04498349397504
C           -0.03783717308441       -2.65104802729873       -0.15071446025669
C            1.12232962616259       -3.36441075452012       -0.08767742691346
C            2.33265483063631       -2.68148959976547        0.12432059447308
Br           3.97647808251969       -3.66122672396299        0.26009147907812
C            2.33789333232222       -1.30757862899894        0.29245943417253
C            1.15917131387366       -0.58442701797843        0.24262453390971
N            1.25712230431990        0.79868253074538        0.43602475285521
C            0.65036947536997        1.53195873739457        1.43760915753902
C           -0.17755282569132        1.10000976083115        2.46245779294021
C           -0.62109286803270        2.03903509373399        3.37530503992585
C           -0.24500193942472        3.37594596753827        3.28021648613446
C            0.61195141436008        3.80566250003931        2.28249483124643
C            1.07193900872629        2.87957525037188        1.35976199874426
C            2.01103442456967        2.94847876800441        0.27192010331164
C            2.76950878610555        3.97318846311867       -0.27019645185826
C            3.62028612514604        3.68323494856163       -1.32346591668248
C            3.71901789914387        2.38923142437108       -1.83008059850576
C            2.97269437343798        1.35091165703791       -1.30379335286784
C            2.11433959188853        1.63499594422109       -0.24822483564476
C           -2.78021589641222       -1.27474050627800       -0.26635075685028
C           -3.65890261075613       -1.22322672823112       -1.36337627128098
C           -3.30644694353640       -0.46270130521818       -2.60657031875381
C           -4.85525495499987       -1.92127027688624       -1.33646698536619
C           -5.23274591047486       -2.68358451054193       -0.23830939657280
C           -6.54131834175096       -3.41694759637441       -0.23149555012686
C           -4.36817604795445       -2.73011585235264        0.83962046475090
C           -3.15940290147423       -2.04035562469263        0.84486254957871
C           -2.34944650877969       -2.12466039067244        2.10749539721912
C           -0.55878487307968        1.53966655899459       -1.71971360010323
C            0.09304845185788        0.63692284926120       -2.72250556927314
C           -0.34962443633647        2.90136536113376       -1.83942390774719
H           -1.03981391013059        5.81654143189160       -0.27142717945913
H            0.26538022717102        5.48030505995003       -1.42738178008598
H           -1.39068416090620        5.67668778381408       -1.99385442518113
H           -2.49980087355649        4.02897311652948        0.49317749749178
H           -3.58429506945708        2.34009950431849        1.60195971710917
H           -2.79875046384711        0.75319659514733        1.66493146754804
H           -4.05124697666737        1.05929676830689        0.47476597848913
H           -0.96365288827857       -3.17935056231092       -0.32601515006702
H            1.12572635767712       -4.43820234001834       -0.20165130156578
H            3.26321083559893       -0.79540606712358        0.51636132314363
H           -0.45323910414150        0.06246745931259        2.54999222946130
H           -1.26690455116450        1.72774906672416        4.18283986605876
H           -0.61428583036902        4.08198681841122        4.00932763888721
H            0.92667936028258        4.83669380501091        2.22907246664796
H            2.69896218491434        4.97563453518707        0.12377022189621
H            4.22105692911209        4.46795027751441       -1.75913516955081
H            4.39403110472998        2.19172517210738       -2.64986573067417
H            3.05866795150576        0.35089561764316       -1.70037820686366
H           -2.41218470821495       -0.88671124106354       -3.06029267519547
H           -3.10143232516826        0.58032780828843       -2.37303789205722
H           -4.11745074699326       -0.50578631111464       -3.33047136651819
H           -5.50774897861241       -1.88311952712730       -2.19890841294289
H           -6.63707526404580       -4.03349896079793        0.65920700066356
H           -7.37120036981735       -2.70997554122147       -0.25380154846293
H           -6.62557873536360       -4.05613237721421       -1.10997266156027
H           -4.63867068355489       -3.30536090974346        1.71550665531120
H           -2.32646089869889       -3.14915282046124        2.47641286490903
H           -1.32926038703884       -1.79447672123801        1.94491381155715
H           -2.80323194844056       -1.50453997720346        2.88259737752813
H           -0.54120429331568        0.56705788638196       -3.60769995747074
H            1.05171027832373        1.04260408185641       -3.03818218019892
H            0.23244926427577       -0.36642634716169       -2.33057585269622
H            0.33675135564290        3.26456254947578       -2.59236597896559

          :  Hamiltonian                  GFN2-xTB          :
         :: gradient norm              0.000082133615 Eh/a0 ::
         :: HOMO-LUMO gap              0.455189766720 eV    ::
         :: SCC energy              -103.946840787779 Eh    ::
         :: -> dispersion             -0.112867091355 Eh    ::
         :: -> Gsolv                  -0.037269423575 Eh    ::
         :: repulsion energy           1.787772678994 Eh    ::

    * Orbital Energies and Occupations

         #    Occupation            Energy/Eh            Energy/eV
      -------------------------------------------------------------
         1        2.0000           -0.8299385             -22.5838
       ...           ...                  ...                  ...
        85        2.0000           -0.4114484             -11.1961
        86        2.0000           -0.4072391             -11.0815
        87        2.0000           -0.4014739             -10.9247
        88        2.0000           -0.3969365             -10.8012
        89        2.0000           -0.3920236             -10.6675
        90        2.0000           -0.3901740             -10.6172
        91        2.0000           -0.3857756             -10.4975
        92        2.0000           -0.3804646             -10.3530
        93        2.0000           -0.3781800             -10.2908
        94        1.9999           -0.3740072             -10.1773
        95        1.9976           -0.3703578             -10.0779
        96        1.0024           -0.3588832              -9.7657
        97        0.9998           -0.2683910              -7.3033 (HOMO)
        98        0.0002           -0.2516624              -6.8481 (LUMO)
        99                         -0.2309912              -6.2856
       100                         -0.2253542              -6.1322
       101                         -0.2226277              -6.0580
       102                         -0.2110316              -5.7425
       103                         -0.2100395              -5.7155
       104                         -0.2052876              -5.5862
       105                         -0.1992510              -5.4219
       106                         -0.1928951              -5.2489
       107                         -0.1907926              -5.1917
       108                         -0.1601235              -4.3572
       ...                                ...                  ...
       194                          0.7387575              20.1026
      -------------------------------------------------------------
                  HL-Gap            0.0167286 Eh            0.4552 eV

     #   Z          covCN         q      C6AA      α(0)
     1   6 C        3.758    -0.108    22.621     6.781
     2   6 C        2.962     0.020    27.559     8.611
     3   6 C        2.925    -0.053    29.321     8.880
     4   6 C        2.963     0.015    27.684     8.630
     5   6 C        3.759    -0.114    22.724     6.796
     6   6 C        2.888    -0.058    29.441     8.896
     7   5 B        2.710     0.181    18.694     7.251
     8   6 C        2.878    -0.084    30.094     8.993
     9   6 C        2.920    -0.043    29.064     8.841
    10   6 C        2.961    -0.045    29.126     8.852
    11   6 C        2.912     0.050    26.887     8.503
    12  35 Br       1.037    -0.233   191.545    22.315
    13   6 C        2.981    -0.050    29.237     8.869
    14   6 C        2.909     0.038    27.160     8.546
    15   7 N        2.801    -0.008    21.416     6.873
    16   6 C        3.079     0.049    26.815     8.490
    17   6 C        2.910    -0.043    29.070     8.841
    18   6 C        2.923    -0.031    28.773     8.796
    19   6 C        2.920    -0.035    28.875     8.812
    20   6 C        2.912    -0.030    28.759     8.794
    21   6 C        3.066    -0.012    28.248     8.715
    22   6 C        3.066    -0.010    28.206     8.709
    23   6 C        2.912    -0.031    28.763     8.794
    24   6 C        2.920    -0.035    28.869     8.811
    25   6 C        2.922    -0.034    28.837     8.806
    26   6 C        2.909    -0.040    29.002     8.831
    27   6 C        3.079     0.050    26.801     8.488
    28   6 C        2.886    -0.063    29.575     8.916
    29   6 C        2.966     0.008    27.848     8.656
    30   6 C        3.759    -0.111    22.682     6.790
    31   6 C        2.931    -0.057    29.416     8.895
    32   6 C        2.961     0.004    27.927     8.668
    33   6 C        3.757    -0.105    22.557     6.772
    34   6 C        2.932    -0.057    29.425     8.896
    35   6 C        2.965     0.008    27.839     8.654
    36   6 C        3.760    -0.108    22.616     6.780
    37   6 C        2.963     0.015    27.679     8.629
    38   6 C        3.759    -0.113    22.702     6.793
    39   6 C        2.926    -0.055    29.365     8.887
    40   1 H        0.925     0.047     2.358     2.401
    41   1 H        0.925     0.049     2.335     2.390
    42   1 H        0.924     0.054     2.267     2.355
    43   1 H        0.925     0.028     2.611     2.527
    44   1 H        0.925     0.040     2.453     2.449
    45   1 H        0.925     0.058     2.221     2.330
    46   1 H        0.925     0.053     2.282     2.362
    47   1 H        0.926     0.037     2.484     2.465
    48   1 H        0.926     0.028     2.610     2.526
    49   1 H        0.926     0.034     2.524     2.484
    50   1 H        0.926     0.042     2.428     2.437
    51   1 H        0.926     0.040     2.451     2.448
    52   1 H        0.926     0.038     2.478     2.462
    53   1 H        0.926     0.040     2.444     2.445
    54   1 H        0.926     0.040     2.443     2.444
    55   1 H        0.926     0.037     2.487     2.466
    56   1 H        0.926     0.037     2.496     2.470
    57   1 H        0.926     0.039     2.459     2.452
    58   1 H        0.925     0.046     2.370     2.407
    59   1 H        0.925     0.051     2.305     2.374
    60   1 H        0.925     0.036     2.498     2.472
    61   1 H        0.925     0.021     2.713     2.576
    62   1 H        0.925     0.037     2.489     2.467
    63   1 H        0.924     0.042     2.418     2.432
    64   1 H        0.925     0.041     2.439     2.442
    65   1 H        0.925     0.021     2.714     2.576
    66   1 H        0.925     0.037     2.488     2.467
    67   1 H        0.925     0.045     2.384     2.415
    68   1 H        0.924     0.041     2.438     2.442
    69   1 H        0.924     0.053     2.280     2.361
    70   1 H        0.925     0.042     2.417     2.431
    71   1 H        0.925     0.048     2.339     2.392
    72   1 H        0.925     0.026     2.639     2.540

molecular dipole:
                 x           y           z       tot (Debye)
 q only:       -1.499       2.545      -0.148
   full:       -1.738       2.575      -0.205       7.914

 projected vibrational frequencies (cm⁻¹)
eigval :       -0.00    -0.00     0.00     0.00     0.00     0.00
eigval :      -72.42   -32.65    18.78    27.98    33.93    37.88
eigval :       39.98    45.04    51.17    63.73    74.15    82.11
eigval :       91.12   102.91   109.44   117.71   134.65   138.96
eigval :      140.37   154.82   157.84   167.46   169.69   176.60
eigval :      182.52   187.75   191.98   202.62   212.30   216.56
eigval :      256.99   272.07   274.90   278.94   285.00   300.63
eigval :      307.25   311.28   323.69   328.69   372.91   392.85
eigval :      394.76   423.25   425.16   434.16   452.36   465.67
eigval :      472.41   480.00   482.85   494.35   500.24   511.46
eigval :      515.05   520.11   526.78   537.31   542.79   550.82
eigval :      566.28   581.53   594.47   598.33   599.20   603.70
eigval :      632.20   645.55   663.09   668.66   674.00   706.64
eigval :      729.05   755.77   770.51   780.95   794.22   836.54
eigval :      837.77   847.79   862.10   863.84   866.31   872.31
eigval :      875.74   882.81   892.53   902.36   907.27   908.09
eigval :      915.42   922.12   928.46   959.35   960.62   970.59
eigval :      971.87  1009.25  1009.62  1016.22  1021.77  1023.52
eigval :     1025.48  1026.58  1029.62  1032.41  1035.34  1036.57
eigval :     1039.84  1040.83  1056.04  1065.03  1067.23  1076.62
eigval :     1087.40  1110.49  1132.90  1139.78  1169.46  1175.89
eigval :     1180.41  1189.98  1194.99  1198.77  1222.91  1224.08
eigval :     1228.26  1231.47  1234.35  1273.68  1284.88  1290.34
eigval :     1294.68  1300.38  1316.93  1330.47  1336.27  1341.37
eigval :     1363.65  1368.59  1389.70  1392.54  1393.42  1395.94
eigval :     1397.66  1403.51  1403.68  1408.56  1411.15  1415.37
eigval :     1417.30  1424.82  1432.40  1434.56  1455.10  1459.90
eigval :     1463.91  1468.36  1471.91  1473.44  1478.06  1479.54
eigval :     1479.88  1480.36  1481.94  1484.78  1486.04  1487.56
eigval :     1493.54  1523.21  1538.62  1564.03  1567.27  1572.22
eigval :     1577.95  1580.90  1598.39  2979.90  2981.23  2984.13
eigval :     2993.59  3006.19  3009.48  3010.64  3015.67  3020.68
eigval :     3027.75  3029.13  3030.99  3035.43  3035.73  3035.75
eigval :     3045.75  3048.85  3049.80  3052.93  3060.84  3063.52
eigval :     3066.09  3071.84  3074.91  3076.50  3077.26  3082.87
eigval :     3085.74  3087.30  3090.81  3094.10  3096.45  3120.69

   temp. (K)  partition function   enthalpy   heat capacity  entropy
                                   cal/mol     cal/K/mol   cal/K/mol   J/K/mol
 298.15  VIB  0.122E+16            20976.525    129.727    129.815
         ROT  0.401E+08              888.752      2.981     37.769
         INT  0.488E+23            21865.278    132.708    167.585
         TR   0.132E+29             1481.254      4.968     44.888
         TOT                       23346.5315   137.6758   212.4721   888.9831

       T/K    H(0)-H(T)+PV         H(T)/Eh          T*S/Eh         G(T)/Eh
   ------------------------------------------------------------------------
    298.15    0.372051E-01    0.606467E+00    0.100952E+00    0.505515E+00
   ------------------------------------------------------------------------

         :::::::::::::::::::::::::::::::::::::::::::::::::::::
         ::                  THERMODYNAMIC                  ::
         :::::::::::::::::::::::::::::::::::::::::::::::::::::
         :: total free energy        -101.653553303332 Eh   ::
         ::.................................................::
         :: total energy             -102.159068106368 Eh   ::
         :: zero point energy           0.569262067292 Eh   ::
         :: G(RRHO) w/o ZPVE           -0.063747264256 Eh   ::
         :: G(RRHO) contrib.            0.505514803036 Eh   ::
         :::::::::::::::::::::::::::::::::::::::::::::::::::::

           -------------------------------------------------
          | TOTAL ENERGY             -102.159068106368 Eh   |
          | TOTAL ENTHALPY           -101.552600972908 Eh   |
          | TOTAL FREE ENERGY        -101.653553303332 Eh   |
          | GRADIENT NORM               0.000083468961 Eh/α |
          | HOMO-LUMO GAP               0.455209403692 eV   |
           -------------------------------------------------

 * finished run on 2025/08/23 at 23:54:31.724
