   * xtb version 6.7.1 (edcfbbe) compiled by 'albert@albert-system' on 2024-07-22

   ID    Z sym.   atoms
    1    6 C      1-6, 8-11, 13, 14, 16-39
    2    5 B      7
    3   35 Br     12
    4    7 N      15
    5    1 H      40-72

          program call               : xtb data2507/toluene/CzBroB/CzBroB.xyz --gfn 2 --gbsa toluene --ohess vtight --parallel 40 --molden --ceasefiles --namespace data2507/toluene/CzBroB/CzBroB_toluene_S0_preOpt
      * Solvation model:               GBSA
        Solvent                        toluene
        Solvent mass                       9.2140E+01 g/mol
          :  Hamiltonian                  GFN2-xTB          :
 * total energy  :  -102.1945639 Eh     change       -0.2566907E-08 Eh
 * total energy  :  -102.2303054 Eh     change       -0.3574154E-01 Eh
 * total energy  :  -102.2392546 Eh     change       -0.8949166E-02 Eh
 * total energy  :  -102.2414484 Eh     change       -0.2193846E-02 Eh
 * total energy  :  -102.2428315 Eh     change       -0.1383073E-02 Eh
 * total energy  :  -102.2433871 Eh     change       -0.5556559E-03 Eh
 * total energy  :  -102.2436428 Eh     change       -0.2556724E-03 Eh
 * total energy  :  -102.2437844 Eh     change       -0.1415810E-03 Eh
 * total energy  :  -102.2438927 Eh     change       -0.1083562E-03 Eh
 * total energy  :  -102.2440010 Eh     change       -0.1082589E-03 Eh
 * total energy  :  -102.2471152 Eh     change       -0.7404475E-06 Eh
 * total energy  :  -102.2471160 Eh     change       -0.8524823E-06 Eh
 * total energy  :  -102.2471167 Eh     change       -0.6305907E-06 Eh
 * total energy  :  -102.2471171 Eh     change       -0.4666793E-06 Eh
 * total energy  :  -102.2471175 Eh     change       -0.3679002E-06 Eh
 * total energy  :  -102.2471178 Eh     change       -0.3168545E-06 Eh
 * total energy  :  -102.2471178 Eh     change       -0.1702433E-07 Eh
 * total energy  :  -102.2471180 Eh     change       -0.1853308E-06 Eh
 * total energy  :  -102.2471180 Eh     change       -0.6622670E-08 Eh
   *** GEOMETRY OPTIMIZATION CONVERGED AFTER 135 ITERATIONS ***

 final structure:
================
72
 xtb: 6.7.1 (edcfbbe)
C            3.47564784978856        3.54921284703365        0.47959074500276
C            2.29972408092711        2.65261072294947        0.23690147550525
C            1.35399850324348        2.43927379879418        1.23147826312609
C            0.25700703753138        1.62071341124023        1.02960937343990
C           -0.74888847875324        1.47714910325930        2.13438209699219
C            0.08353976766554        0.94924984463943       -0.19624823228117
B           -1.08284420942654       -0.08593659055364       -0.36253235747075
C           -0.76932915597160       -1.54347432414914       -0.88597456279542
C           -1.77090018543550       -2.20589169913844       -1.60959922623609
C           -1.58387447384523       -3.43890523113630       -2.20309212381354
C           -0.35612369125857       -4.06179399877357       -2.06033311316230
Br          -0.05996196089185       -5.78035796308071       -2.86077446542431
C            0.66227676360773       -3.46437806780497       -1.34520428859979
C            0.46546045297359       -2.21078171121240       -0.76985766472891
N            1.56862485181003       -1.64956120835737       -0.10180835152500
C            1.66781136651109       -1.32844235441769        1.23528648498709
C            0.76441748567316       -1.54890157835898        2.26261705212095
C            1.13631163365325       -1.18337507932202        3.54249801639605
C            2.38098462310209       -0.61533518199161        3.80252057232356
C            3.29909957856549       -0.42652358739754        2.78877619615343
C            2.95084062165973       -0.79591764473816        1.49652571480665
C            3.66454575753311       -0.82344106093348        0.25159258941795
C            4.95087979088376       -0.45726326343980       -0.12209992735168
C            5.34392799360478       -0.65774765957621       -1.43046347303836
C            4.47178338903399       -1.21782926508747       -2.36157974572598
C            3.18574980706085       -1.58594036032588       -2.01391191822980
C            2.78433721990200       -1.38395509472139       -0.70121990817504
C           -2.58630658783070        0.30370470816000       -0.11263638083079
C           -3.13891744660887        1.41983635772764       -0.77450957676395
C           -2.31523386301626        2.24394420014265       -1.72087209039964
C           -4.47052242314654        1.75778900352365       -0.60150899561033
C           -5.30770283678942        1.03010602771886        0.23341919928558
C           -6.73874842548473        1.43008810427194        0.42677742862075
C           -4.76929955463434       -0.06311661955604        0.88932297545686
C           -3.44118051837759       -0.43472694806785        0.72382592013166
C           -2.96100998119128       -1.61198385092751        1.52328552071802
C            1.00838794479683        1.21359320808770       -1.21826550979619
C            0.81430903431523        0.70456970661946       -2.61837004133296
C            2.09403107929589        2.04852392046591       -0.99083302535339
H            3.15982872880878        4.59337610391536        0.46631478367577
H            3.91710622885934        3.34814232809125        1.45392914324516
H            4.23401415500176        3.41152488054711       -0.28748897105899
H            1.48026001642619        2.92625606731105        2.18912551557566
H           -0.38572140409053        1.94739765947942        3.04545659086429
H           -0.95348174965275        0.43175487363271        2.34177137753351
H           -1.68592794153610        1.95391208228386        1.84885591783292
H           -2.72952929716712       -1.72087832625052       -1.71782886193144
H           -2.37669535160058       -3.90977604669968       -2.76311754659080
H            1.61512414734632       -3.95877481338080       -1.22662802724466
H           -0.19161786463081       -2.00908959775155        2.07162147250976
H            0.44966981628486       -1.34680155296868        4.36062721845964
H            2.63397512381314       -0.33784306501239        4.81552260038870
H            4.27571790255607       -0.01424851928281        2.99492033484220
H            5.62785346931595       -0.02552798299002        0.59989981796120
H            6.34144882076870       -0.38230524977858       -1.74081430924437
H            4.80848013372553       -1.36931650854011       -3.37726590804615
H            2.51955816421274       -2.02149133258523       -2.74389757472373
H           -1.95843721103860        1.63138155035134       -2.54621923481000
H           -1.44740253237716        2.65895002720647       -1.21378641531357
H           -2.90484623646682        3.06217732998120       -2.12864276817245
H           -4.87141249826321        2.61167925340562       -1.13117081032447
H           -7.33129238098294        0.59363341138111        0.79063168882691
H           -6.80422288876039        2.23678501103910        1.15842672063456
H           -7.16897770116793        1.79018311089950       -0.50586396300713
H           -5.39795680623174       -0.64821103603879        1.54720643786915
H           -2.65701420989142       -1.28434770668061        2.51869307443750
H           -3.76164242508295       -2.33928676191297        1.64650137484358
H           -2.11704909699011       -2.09985481353217        1.04698901573364
H            0.10033680675574       -0.11228857188065       -2.65923271671558
H            0.44087949954926        1.51504886575770       -3.24631784505249
H            1.76275527148816        0.37595691441276       -3.03836888756141
H            2.79336447052242        2.22709979407835       -1.79656789133497

          :  Hamiltonian                  GFN2-xTB          :
         :: gradient norm              0.000144739278 Eh/a0 ::
         :: HOMO-LUMO gap              2.153498125545 eV    ::
         :: SCC energy              -104.045583778519 Eh    ::
         :: -> dispersion             -0.110301923052 Eh    ::
         :: -> Gsolv                  -0.036803014757 Eh    ::
         :: repulsion energy           1.798465755104 Eh    ::

    * Orbital Energies and Occupations

         #    Occupation            Energy/Eh            Energy/eV
      -------------------------------------------------------------
         1        2.0000           -0.8412643             -22.8920
       ...           ...                  ...                  ...
        84        2.0000           -0.4148798             -11.2895
        85        2.0000           -0.4142633             -11.2727
        86        2.0000           -0.4129291             -11.2364
        87        2.0000           -0.4049809             -11.0201
        88        2.0000           -0.4040471             -10.9947
        89        2.0000           -0.4037716             -10.9872
        90        2.0000           -0.3951257             -10.7519
        91        2.0000           -0.3825346             -10.4093
        92        2.0000           -0.3819080             -10.3922
        93        2.0000           -0.3761170             -10.2347
        94        2.0000           -0.3746606             -10.1950
        95        2.0000           -0.3714916             -10.1088
        96        2.0000           -0.3612762              -9.8308 (HOMO)
        97                         -0.2821368              -7.6773 (LUMO)
        98                         -0.2476866              -6.7399
        99                         -0.2426652              -6.6033
       100                         -0.2300363              -6.2596
       101                         -0.2218190              -6.0360
       102                         -0.2121051              -5.7717
       103                         -0.2098652              -5.7107
       104                         -0.2084325              -5.6717
       105                         -0.2052260              -5.5845
       106                         -0.1918222              -5.2197
       107                         -0.1852951              -5.0421
       ...                                ...                  ...
       194                          0.7478396              20.3498
      -------------------------------------------------------------
                  HL-Gap            0.0791395 Eh            2.1535 eV

     #   Z          covCN         q      C6AA      α(0)
     1   6 C        3.757    -0.106    22.571     6.774
     2   6 C        2.963     0.012    27.738     8.639
     3   6 C        2.930    -0.056    29.397     8.892
     4   6 C        2.967     0.012    27.756     8.642
     5   6 C        3.759    -0.112    22.695     6.792
     6   6 C        2.889    -0.083    30.068     8.990
     7   5 B        2.707     0.256    17.633     7.043
     8   6 C        2.880    -0.071    29.758     8.943
     9   6 C        2.930    -0.027    28.683     8.783
    10   6 C        2.976    -0.039    28.959     8.827
    11   6 C        2.916     0.085    26.109     8.379
    12  35 Br       1.051    -0.195   190.457    22.252
    13   6 C        2.990    -0.047    29.163     8.858
    14   6 C        2.916     0.069    26.455     8.434
    15   7 N        2.804    -0.047    22.138     6.988
    16   6 C        3.078     0.051    26.780     8.484
    17   6 C        2.911    -0.053    29.313     8.878
    18   6 C        2.924    -0.034    28.838     8.807
    19   6 C        2.920    -0.042    29.048     8.838
    20   6 C        2.913    -0.034    28.841     8.806
    21   6 C        3.070    -0.017    28.354     8.731
    22   6 C        3.068    -0.016    28.342     8.729
    23   6 C        2.913    -0.034    28.838     8.806
    24   6 C        2.920    -0.043    29.059     8.840
    25   6 C        2.924    -0.036    28.890     8.814
    26   6 C        2.910    -0.050    29.252     8.869
    27   6 C        3.082     0.051    26.776     8.483
    28   6 C        2.886    -0.083    30.084     8.992
    29   6 C        2.967     0.013    27.726     8.637
    30   6 C        3.759    -0.115    22.751     6.800
    31   6 C        2.930    -0.057    29.420     8.895
    32   6 C        2.962     0.013    27.723     8.636
    33   6 C        3.757    -0.108    22.610     6.779
    34   6 C        2.931    -0.058    29.431     8.897
    35   6 C        2.966     0.012    27.748     8.640
    36   6 C        3.760    -0.109    22.632     6.782
    37   6 C        2.967     0.011    27.768     8.643
    38   6 C        3.759    -0.109    22.640     6.783
    39   6 C        2.930    -0.056    29.398     8.892
    40   1 H        0.924     0.046     2.377     2.411
    41   1 H        0.925     0.042     2.420     2.433
    42   1 H        0.925     0.039     2.463     2.454
    43   1 H        0.925     0.022     2.702     2.570
    44   1 H        0.925     0.036     2.500     2.473
    45   1 H        0.925     0.045     2.379     2.412
    46   1 H        0.925     0.049     2.336     2.390
    47   1 H        0.926     0.058     2.228     2.334
    48   1 H        0.926     0.055     2.253     2.347
    49   1 H        0.926     0.054     2.272     2.357
    50   1 H        0.926     0.028     2.612     2.527
    51   1 H        0.926     0.030     2.583     2.513
    52   1 H        0.926     0.028     2.616     2.529
    53   1 H        0.926     0.030     2.592     2.518
    54   1 H        0.926     0.031     2.579     2.511
    55   1 H        0.926     0.027     2.626     2.534
    56   1 H        0.926     0.028     2.610     2.526
    57   1 H        0.926     0.027     2.630     2.536
    58   1 H        0.925     0.045     2.387     2.416
    59   1 H        0.925     0.050     2.314     2.379
    60   1 H        0.925     0.039     2.468     2.457
    61   1 H        0.925     0.024     2.672     2.556
    62   1 H        0.925     0.041     2.441     2.443
    63   1 H        0.924     0.046     2.366     2.406
    64   1 H        0.925     0.042     2.418     2.432
    65   1 H        0.925     0.024     2.670     2.555
    66   1 H        0.924     0.043     2.406     2.426
    67   1 H        0.925     0.041     2.440     2.443
    68   1 H        0.925     0.039     2.468     2.457
    69   1 H        0.925     0.036     2.507     2.476
    70   1 H        0.924     0.046     2.371     2.408
    71   1 H        0.925     0.041     2.435     2.440
    72   1 H        0.925     0.021     2.724     2.581

molecular dipole:
                 x           y           z       tot (Debye)
 q only:       -0.800       1.163       0.348
   full:       -0.837       1.350       0.433       4.186

 projected vibrational frequencies (cm⁻¹)
eigval :       -0.00    -0.00    -0.00     0.00     0.00     0.00
eigval :       19.81    22.93    23.62    29.54    35.03    38.04
eigval :       45.25    58.98    62.06    72.97    76.29    87.24
eigval :      101.05   103.85   118.80   126.33   133.41   134.73
eigval :      139.07   148.22   161.35   165.48   168.50   181.34
eigval :      187.36   194.45   198.30   203.96   207.21   215.68
eigval :      261.46   273.26   274.11   282.31   286.26   304.20
eigval :      311.69   322.60   328.79   335.64   381.57   400.24
eigval :      419.74   427.08   431.72   438.97   462.69   485.72
eigval :      489.41   492.87   497.44   504.78   512.42   513.77
eigval :      519.79   526.77   537.83   541.91   550.84   565.14
eigval :      584.52   591.73   600.23   601.66   610.26   612.56
eigval :      647.96   672.54   679.14   680.52   702.08   706.44
eigval :      736.67   757.64   770.14   781.35   821.31   837.50
eigval :      839.72   868.07   869.06   873.99   877.28   884.83
eigval :      888.45   889.03   898.01   903.14   905.34   921.32
eigval :      922.60   923.55   932.10   962.95   963.80   974.31
eigval :      977.00  1011.70  1019.68  1022.69  1028.50  1028.79
eigval :     1029.42  1032.66  1033.29  1034.21  1040.41  1041.58
eigval :     1042.86  1044.25  1068.36  1070.98  1073.01  1107.83
eigval :     1110.34  1144.32  1150.89  1160.65  1175.49  1180.64
eigval :     1181.43  1192.34  1208.14  1219.42  1235.07  1235.62
eigval :     1236.95  1239.89  1242.51  1288.07  1299.54  1300.02
eigval :     1302.03  1302.64  1331.53  1336.01  1338.55  1359.91
eigval :     1363.22  1388.70  1396.60  1398.30  1401.56  1401.62
eigval :     1402.79  1408.36  1424.12  1426.79  1427.78  1428.56
eigval :     1445.74  1447.46  1455.06  1475.19  1475.92  1477.46
eigval :     1478.75  1480.00  1480.07  1482.32  1482.76  1485.06
eigval :     1486.04  1488.16  1489.41  1491.50  1497.12  1534.57
eigval :     1554.28  1556.03  1558.75  1574.69  1591.23  1599.29
eigval :     1599.75  1602.48  1615.78  2983.80  2985.07  2988.87
eigval :     2989.08  3008.76  3021.79  3022.83  3024.28  3025.04
eigval :     3028.06  3030.63  3033.11  3033.52  3037.10  3038.93
eigval :     3056.23  3056.89  3058.57  3059.37  3061.13  3061.67
eigval :     3064.95  3068.29  3070.23  3074.51  3077.10  3081.59
eigval :     3087.26  3087.92  3090.25  3093.00  3102.42  3108.81

   temp. (K)  partition function   enthalpy   heat capacity  entropy
                                   cal/mol     cal/K/mol   cal/K/mol   J/K/mol
 298.15  VIB  0.303E+17            21757.595    130.959    136.324
         ROT  0.405E+08              888.752      2.981     37.794
         INT  0.123E+25            22646.347    133.940    174.118
         TR   0.132E+29             1481.254      4.968     44.888
         TOT                       24127.6009   138.9078   219.0052   916.3177

       T/K    H(0)-H(T)+PV         H(T)/Eh          T*S/Eh         G(T)/Eh
   ------------------------------------------------------------------------
    298.15    0.384498E-01    0.611858E+00    0.104056E+00    0.507802E+00
   ------------------------------------------------------------------------

         :::::::::::::::::::::::::::::::::::::::::::::::::::::
         ::                  THERMODYNAMIC                  ::
         :::::::::::::::::::::::::::::::::::::::::::::::::::::
         :: total free energy        -101.739316230331 Eh   ::
         ::.................................................::
         :: total energy             -102.247118021440 Eh   ::
         :: zero point energy           0.573408443404 Eh   ::
         :: G(RRHO) w/o ZPVE           -0.065606652295 Eh   ::
         :: G(RRHO) contrib.            0.507801791109 Eh   ::
         :::::::::::::::::::::::::::::::::::::::::::::::::::::

           -------------------------------------------------
          | TOTAL ENERGY             -102.247118021440 Eh   |
          | TOTAL ENTHALPY           -101.635259798615 Eh   |
          | TOTAL FREE ENERGY        -101.739316230331 Eh   |
          | GRADIENT NORM               0.000144763212 Eh/α |
          | HOMO-LUMO GAP               2.153494531203 eV   |
           -------------------------------------------------

 * finished run on 2025/08/23 at 23:50:50.328
