   * xtb version 6.7.1 (edcfbbe) compiled by 'albert@albert-system' on 2024-07-22

   ID    Z sym.   atoms
    1    6 C      1-9, 11-16, 18-27, 29-34
    2    8 O      10, 28
    3   16 S      17, 35
    4    1 H      36-55

          program call               : xtb data2507/toluene/mPXTMP/mPXTMP_toluene_S0_finalOpt.xtbopt.xyz --gfn 2 --uhf 2 --gbsa toluene --ohess vtight --parallel 40 --molden --ceasefiles --namespace data2507/toluene/mPXTMP/mPXTMP_toluene_T1_preOpt
      * Solvation model:               GBSA
        Solvent                        toluene
        Solvent mass                       9.2140E+01 g/mol
          :  Hamiltonian                  GFN2-xTB          :
 * total energy  :   -91.1557554 Eh     change       -0.1220769E-08 Eh
 * total energy  :   -91.1596060 Eh     change       -0.3850555E-02 Eh
 * total energy  :   -91.1605731 Eh     change       -0.9671521E-03 Eh
 * total energy  :   -91.1606980 Eh     change       -0.1249255E-03 Eh
 * total energy  :   -91.1608227 Eh     change       -0.1247184E-03 Eh
 * total energy  :   -91.1609286 Eh     change       -0.1058971E-03 Eh
 * total energy  :   -91.1610436 Eh     change       -0.1149105E-03 Eh
 * total energy  :   -91.1611548 Eh     change       -0.1112588E-03 Eh
 * total energy  :   -91.1612372 Eh     change       -0.8237129E-04 Eh
 * total energy  :   -91.1612641 Eh     change       -0.2688148E-04 Eh
 * total energy  :   -91.1623813 Eh     change       -0.2847990E-06 Eh
 * total energy  :   -91.1623815 Eh     change       -0.2244274E-06 Eh
 * total energy  :   -91.1623818 Eh     change       -0.2457719E-06 Eh
 * total energy  :   -91.1623819 Eh     change       -0.1323633E-06 Eh
 * total energy  :   -91.1623820 Eh     change       -0.1438321E-06 Eh
 * total energy  :   -91.1623822 Eh     change       -0.1617993E-06 Eh
 * total energy  :   -91.1623823 Eh     change       -0.1376656E-06 Eh
 * total energy  :   -91.1623825 Eh     change       -0.1193956E-06 Eh
 * total energy  :   -91.1623826 Eh     change       -0.9833485E-07 Eh
   *** GEOMETRY OPTIMIZATION CONVERGED AFTER 58 ITERATIONS ***

 final structure:
================
55
 xtb: 6.7.1 (edcfbbe)
C           -0.01510459193641       -0.67822069966285        0.85078324112865
C           -0.00979335009361       -1.87360364992869       -0.05958007639573
C            1.20336782806002       -2.46586692216171       -0.40415437014765
C            2.50009641951632       -1.86380375207340       -0.03732501175882
C            3.44941221498411       -2.60779664687929        0.66242588394713
C            4.67681928115259       -2.05961496014677        0.97234286208321
C            4.99465321780227       -0.76325246617055        0.58564599470919
C            4.06136542983028       -0.01113106541506       -0.12339514664729
C            2.82647828107370       -0.57038158303217       -0.42636939113625
O            4.24381849144968        1.27020412680003       -0.57192809989168
C            5.41508298396148        1.95074305268483       -0.38529595137518
C            5.44935858364378        3.23155821019938       -0.93020536830288
C            6.57552658655555        4.02310995859640       -0.80863819618034
C            7.68968955463755        3.54296039939287       -0.13840632487772
C            7.66599169891001        2.27296776410264        0.40598432588984
C            6.53638402627649        1.47276933295380        0.28899874727561
S            6.59353931138757       -0.13876484500774        1.02583531787197
C            1.23517543621269       -3.67562882645211       -1.10270238498598
C            0.05166459224330       -4.30192444409374       -1.46126921193486
C           -1.15320988943378       -3.72176224925394       -1.14367900951966
C           -1.22053909704929       -2.49011129066483       -0.46045622355733
C           -2.52442617147447       -1.92309338546399       -0.20703498075987
C           -3.63598260646165       -2.77979426368600        0.12752012697646
C           -4.87899633335174       -2.27623032846780        0.33945626546617
C           -5.13985343486560       -0.89376832711429        0.22401264027416
C           -4.04832248089777       -0.02618945002119       -0.13958852644518
C           -2.79036402195927       -0.55631404136943       -0.33139755157861
O           -4.17600608887962        1.30774709033986       -0.33545629846553
C           -5.33554014547520        1.98232677251078       -0.18257550714702
C           -5.28190914173870        3.36078494121182       -0.40714005439836
C           -6.40284271694650        4.14450473263001       -0.27644606740884
C           -7.63296404437502        3.56131680951182        0.08920554781267
C           -7.71153148732920        2.21212040433199        0.31157091235415
C           -6.57981615979604        1.39570607951576        0.18487362096821
S           -6.74909714241231       -0.31324015841199        0.44351344822743
H            0.04198496758541        0.25634740988181        0.29412232619015
H           -0.92430775461394       -0.66031816074979        1.44770796755742
H            0.84372162450427       -0.71431915866613        1.51870334075655
H            3.21583248926120       -3.61389225778786        0.97520925675270
H            5.41186413731952       -2.62890861092705        1.52116760200692
H            2.13131433891874        0.02833908978071       -0.99316607016745
H            4.56902556007158        3.58061949056860       -1.44717899931709
H            6.58035310223539        5.01288362959053       -1.23776972654927
H            8.57415654017073        4.15225205710038       -0.03834784634979
H            8.52284175999462        1.88026646518432        0.93218598547518
H            2.18771818976072       -4.11259891414232       -1.36297716653765
H            0.07802875293636       -5.23936897477736       -1.99835407792981
H           -2.07148453928899       -4.19340939521412       -1.46015270349563
H           -3.45731184658702       -3.83556073309858        0.25348720421840
H           -5.70125312377128       -2.92310992834874        0.60788527686169
H           -2.01557875601345        0.12494953391923       -0.64297933815654
H           -4.32857685824371        3.78336679664737       -0.68570610905819
H           -6.34310619642212        5.20629210060722       -0.45360416211434
H           -8.51033727546405        4.17985029874075        0.19146056339525
H           -8.64564721392905        1.74762846721747        0.58935696469433

          :  Hamiltonian                  GFN2-xTB          :
         :: gradient norm              0.000053867004 Eh/a0 ::
         :: HOMO-LUMO gap              0.195487882374 eV    ::
         :: SCC energy               -92.657619327857 Eh    ::
         :: -> dispersion             -0.074647421774 Eh    ::
         :: -> Gsolv                  -0.038026467245 Eh    ::
         :: repulsion energy           1.495236766761 Eh    ::

    * Orbital Energies and Occupations

         #    Occupation            Energy/Eh            Energy/eV
      -------------------------------------------------------------
         1        2.0000           -0.7487469             -20.3744
       ...           ...                  ...                  ...
        73        2.0000           -0.4259657             -11.5911
        74        2.0000           -0.4235634             -11.5257
        75        2.0000           -0.4207569             -11.4494
        76        2.0000           -0.4198426             -11.4245
        77        2.0000           -0.4129006             -11.2356
        78        2.0000           -0.4097092             -11.1488
        79        2.0000           -0.3998099             -10.8794
        80        2.0000           -0.3987907             -10.8516
        81        2.0000           -0.3875646             -10.5462
        82        2.0000           -0.3823026             -10.4030
        83        1.9202           -0.3586470              -9.7593
        84        1.0798           -0.3540014              -9.6329
        85        0.9777           -0.2622008              -7.1348 (HOMO)
        86        0.0223           -0.2550171              -6.9394 (LUMO)
        87                         -0.2416486              -6.5756
        88                         -0.2395328              -6.5180
        89                         -0.2374802              -6.4622
        90                         -0.2342363              -6.3739
        91                         -0.2192070              -5.9649
        92                         -0.2124913              -5.7822
        93                         -0.2113543              -5.7512
        94                         -0.2043480              -5.5606
        95                         -0.2037590              -5.5446
        96                         -0.1956262              -5.3233
       ...                                ...                  ...
       170                          0.6951523              18.9161
      -------------------------------------------------------------
                  HL-Gap            0.0071837 Eh            0.1955 eV

     #   Z          covCN         q      C6AA      α(0)
     1   6 C        3.757    -0.107    22.589     6.776
     2   6 C        2.966     0.005    27.897     8.664
     3   6 C        2.977    -0.003    28.095     8.695
     4   6 C        2.977     0.015    27.671     8.629
     5   6 C        2.924    -0.041    29.031     8.836
     6   6 C        2.972    -0.041    29.024     8.837
     7   6 C        2.965     0.018    27.609     8.619
     8   6 C        2.886     0.132    25.106     8.215
     9   6 C        2.927    -0.058    29.439     8.898
    10   8 O        1.710    -0.254    18.210     5.762
    11   6 C        2.887     0.135    25.055     8.206
    12   6 C        2.922    -0.054    29.333     8.882
    13   6 C        2.919    -0.032    28.788     8.799
    14   6 C        2.919    -0.035    28.883     8.813
    15   6 C        2.975    -0.040    28.979     8.830
    16   6 C        2.965     0.022    27.510     8.603
    17  16 S        2.111    -0.125   146.284    20.356
    18   6 C        2.925    -0.046    29.148     8.854
    19   6 C        2.912    -0.037    28.927     8.819
    20   6 C        2.925    -0.044    29.094     8.846
    21   6 C        2.972    -0.004    28.125     8.699
    22   6 C        2.970    -0.004    28.125     8.699
    23   6 C        2.915    -0.048    29.193     8.860
    24   6 C        2.959    -0.044    29.090     8.847
    25   6 C        2.958    -0.014    28.364     8.735
    26   6 C        2.882     0.121    25.343     8.253
    27   6 C        2.915    -0.063    29.574     8.918
    28   8 O        1.712    -0.214    17.556     5.657
    29   6 C        2.890     0.124    25.286     8.244
    30   6 C        2.914    -0.052    29.302     8.876
    31   6 C        2.915    -0.040    28.996     8.830
    32   6 C        2.915    -0.041    29.014     8.833
    33   6 C        2.970    -0.040    28.990     8.832
    34   6 C        2.960    -0.001    28.042     8.686
    35  16 S        2.124     0.002   140.978    19.984
    36   1 H        0.925     0.046     2.366     2.405
    37   1 H        0.925     0.046     2.374     2.410
    38   1 H        0.925     0.040     2.445     2.445
    39   1 H        0.926     0.049     2.334     2.389
    40   1 H        0.926     0.049     2.328     2.386
    41   1 H        0.926     0.057     2.235     2.338
    42   1 H        0.926     0.057     2.233     2.337
    43   1 H        0.926     0.053     2.283     2.363
    44   1 H        0.926     0.052     2.296     2.369
    45   1 H        0.926     0.052     2.299     2.371
    46   1 H        0.926     0.025     2.661     2.551
    47   1 H        0.926     0.026     2.643     2.542
    48   1 H        0.926     0.029     2.605     2.524
    49   1 H        0.926     0.041     2.435     2.440
    50   1 H        0.926     0.041     2.440     2.443
    51   1 H        0.926     0.053     2.281     2.362
    52   1 H        0.926     0.053     2.288     2.365
    53   1 H        0.926     0.046     2.369     2.407
    54   1 H        0.926     0.046     2.367     2.406
    55   1 H        0.926     0.049     2.335     2.390

molecular dipole:
                 x           y           z       tot (Debye)
 q only:       -0.359       0.804       0.115
   full:       -0.332       0.902       0.004       2.442

 projected vibrational frequencies (cm⁻¹)
eigval :       -0.00    -0.00    -0.00     0.00     0.00     0.00
eigval :        7.19    16.38    20.40    27.34    34.86    41.25
eigval :       62.52    68.75    86.26   111.32   118.47   135.83
eigval :      153.59   172.15   185.25   211.81   221.87   227.47
eigval :      228.92   238.65   255.27   261.92   274.53   305.96
eigval :      319.78   330.07   339.47   349.07   363.40   370.11
eigval :      371.98   397.60   411.07   416.28   424.68   427.81
eigval :      449.26   459.79   467.66   473.97   486.01   497.43
eigval :      522.53   552.18   564.89   570.63   576.73   598.06
eigval :      608.15   617.50   631.27   641.39   649.79   653.34
eigval :      663.37   668.89   679.19   682.28   693.68   744.25
eigval :      747.76   773.88   775.87   789.77   796.09   807.22
eigval :      815.91   828.81   846.83   869.13   869.43   876.50
eigval :      878.45   883.41   892.21   893.45   897.67   903.99
eigval :      913.90   915.85   916.72   927.27   999.02  1002.50
eigval :     1020.25  1022.33  1026.10  1038.48  1048.08  1052.11
eigval :     1082.38  1093.23  1121.67  1135.05  1140.01  1152.51
eigval :     1158.81  1164.38  1167.46  1170.91  1173.97  1187.28
eigval :     1204.59  1207.22  1209.44  1220.16  1225.74  1238.38
eigval :     1241.72  1252.08  1285.96  1307.09  1315.75  1320.51
eigval :     1325.52  1336.69  1347.33  1372.57  1377.85  1385.34
eigval :     1393.92  1404.18  1411.77  1417.77  1423.11  1437.11
eigval :     1446.43  1462.75  1480.12  1483.13  1492.64  1495.33
eigval :     1498.61  1513.90  1544.37  1548.10  1557.50  1568.15
eigval :     1574.80  2994.91  3024.46  3032.29  3065.90  3079.10
eigval :     3080.26  3085.49  3086.68  3087.97  3089.20  3091.98
eigval :     3093.00  3098.84  3099.23  3101.70  3103.14  3108.33
eigval :     3108.84  3109.79  3115.32

   temp. (K)  partition function   enthalpy   heat capacity  entropy
                                   cal/mol     cal/K/mol   cal/K/mol   J/K/mol
 298.15  VIB  0.607E+13            16593.816    105.304    101.839
         ROT  0.565E+08              888.752      2.981     38.453
         INT  0.343E+21            17482.568    108.285    140.292
         TR   0.104E+29             1481.254      4.968     44.427
         TOT                       18963.8222   113.2528   184.7187   772.8631

       T/K    H(0)-H(T)+PV         H(T)/Eh          T*S/Eh         G(T)/Eh
   ------------------------------------------------------------------------
    298.15    0.302208E-01    0.430956E+00    0.877658E-01    0.343190E+00
   ------------------------------------------------------------------------

         :::::::::::::::::::::::::::::::::::::::::::::::::::::
         ::                  THERMODYNAMIC                  ::
         :::::::::::::::::::::::::::::::::::::::::::::::::::::
         :: total free energy         -90.819192753939 Eh   ::
         ::.................................................::
         :: total energy              -91.162382565343 Eh   ::
         :: zero point energy           0.400734861141 Eh   ::
         :: G(RRHO) w/o ZPVE           -0.057545049737 Eh   ::
         :: G(RRHO) contrib.            0.343189811404 Eh   ::
         :::::::::::::::::::::::::::::::::::::::::::::::::::::

           -------------------------------------------------
          | TOTAL ENERGY              -91.162382565343 Eh   |
          | TOTAL ENTHALPY            -90.731426929861 Eh   |
          | TOTAL FREE ENERGY         -90.819192753939 Eh   |
          | GRADIENT NORM               0.000053946191 Eh/α |
          | HOMO-LUMO GAP               0.195478367547 eV   |
           -------------------------------------------------

 * finished run on 2025/09/10 at 03:21:31.921
