   * xtb version 6.7.1 (edcfbbe) compiled by 'albert@albert-system' on 2024-07-22

   ID    Z sym.   atoms
    1    6 C      1-9, 11-16, 18-27, 29-34
    2    8 O      10, 28
    3   16 S      17, 35
    4    1 H      36-55

          program call               : xtb data2507/toluene/mPXTMP/mPXTMP_toluene_T1_crest.xyz --gfn 2 --uhf 2 --gbsa toluene --ohess vtight --parallel 40 --molden --ceasefiles --namespace data2507/toluene/mPXTMP/mPXTMP_toluene_T1_finalOpt
      * Solvation model:               GBSA
        Solvent                        toluene
        Solvent mass                       9.2140E+01 g/mol
          :  Hamiltonian                  GFN2-xTB          :
 * total energy  :   -91.1623151 Eh     change       -0.9979686E-08 Eh
 * total energy  :   -91.1623474 Eh     change       -0.3232146E-04 Eh
 * total energy  :   -91.1623616 Eh     change       -0.1422638E-04 Eh
 * total energy  :   -91.1623658 Eh     change       -0.4145206E-05 Eh
 * total energy  :   -91.1623703 Eh     change       -0.4493197E-05 Eh
 * total energy  :   -91.1623739 Eh     change       -0.3678065E-05 Eh
 * total energy  :   -91.1623763 Eh     change       -0.2352045E-05 Eh
 * total energy  :   -91.1623775 Eh     change       -0.1230056E-05 Eh
 * total energy  :   -91.1623783 Eh     change       -0.7879121E-06 Eh
 * total energy  :   -91.1623791 Eh     change       -0.7416707E-06 Eh
 * total energy  :   -91.1623798 Eh     change       -0.7778813E-06 Eh
 * total energy  :   -91.1623806 Eh     change       -0.7604618E-06 Eh
 * total energy  :   -91.1623814 Eh     change       -0.8191533E-06 Eh
 * total energy  :   -91.1623823 Eh     change       -0.9408009E-06 Eh
 * total energy  :   -91.1623834 Eh     change       -0.1086909E-05 Eh
 * total energy  :   -91.1623845 Eh     change       -0.1036537E-05 Eh
 * total energy  :   -91.1623851 Eh     change       -0.6041975E-06 Eh
 * total energy  :   -91.1623854 Eh     change       -0.3346737E-06 Eh
 * total energy  :   -91.1623854 Eh     change       -0.3640497E-07 Eh
   *** GEOMETRY OPTIMIZATION CONVERGED AFTER 19 ITERATIONS ***

 final structure:
================
55
 xtb: 6.7.1 (edcfbbe)
C            0.00010192956588       -0.67850055819487        0.90117106569684
C           -0.01506415493640       -1.87898870979243       -0.00236883337868
C            1.18882733976527       -2.48537312963501       -0.35501020852532
C            2.49469414858427       -1.89233846683219       -0.00661390866946
C            3.44641183901697       -2.63910147651609        0.68686796081331
C            4.68168181873758       -2.09842865313129        0.97833970194176
C            5.00504289326035       -0.80727375693285        0.57888654878419
C            4.06921595506340       -0.05262012099761       -0.12413416737276
C            2.82649238271242       -0.60413729313200       -0.40828917622591
O            4.25628704534140        1.22389780983008       -0.58426075519588
C            5.43195843210432        1.89978304007310       -0.40904513254636
C            5.46677128495310        3.17961280334616       -0.95620539088800
C            6.59745179017854        3.96640642238498       -0.84620664177145
C            7.71544695667336        3.48254823025578       -0.18504059438714
C            7.69116503554646        2.21355494416677        0.36162425027734
C            6.55715858805370        1.41799372269444        0.25596188764782
S            6.61453591189310       -0.19300257856131        0.99379523913976
C            1.20199791336330       -3.69957916849721       -1.04636595078400
C            0.00890203519637       -4.31586158642813       -1.39024007713971
C           -1.18703231429349       -3.72133902142154       -1.06549487736041
C           -1.23564822994597       -2.48519746461817       -0.38875976872920
C           -2.53152097866792       -1.90324473286192       -0.12798434712339
C           -3.64928823903271       -2.74680081602706        0.21903955836052
C           -4.88615978943729       -2.22981046080186        0.43450845061661
C           -5.13418872956773       -0.84565602102666        0.31167067850107
C           -4.03623921746306        0.00902931577732       -0.06286696482832
C           -2.78464990496732       -0.53463652436936       -0.25865954891619
O           -4.15188116566387        1.34308060678904       -0.26574788252221
C           -5.30484895826510        2.02926433605097       -0.11420777036462
C           -5.23965324423468        3.40552472127647       -0.34909597789257
C           -6.35326898147394        4.20009991810123       -0.22125277064523
C           -7.58742444540705        3.63074150341060        0.15243441483409
C           -7.67729305842660        2.28396729061356        0.38495272578493
C           -6.55326085918511        1.45659322841271        0.26107944981361
S           -6.73780230718237       -0.24922323744024        0.53018841589401
H            0.05845742754664        0.25249789998781        0.33868315669669
H           -0.90202558977362       -0.64962845853651        1.50834302464178
H            0.86619791074109       -0.71803982607521        1.55943069239687
H            3.20870661810851       -3.64119277006234        1.00926184356634
H            5.41888948431249       -2.66966946884355        1.52224482545786
H            2.12927146727353       -0.00402016831577       -0.97104800903114
H            4.58335350447063        3.53157944262378       -1.46591238531468
H            6.60279812219833        4.95536672697618       -1.27720153905894
H            8.60343431981159        4.08813171091005       -0.09406510371119
H            8.55099732276483        1.81774701315095        0.88061081641228
H            2.14766892547484       -4.14765461049809       -1.31282344040336
H            0.02068290214466       -5.25673517268223       -1.92182113445210
H           -2.11283169446635       -4.18517258233451       -1.37139958622037
H           -3.48004257641843       -3.80335995821864        0.35109669523439
H           -5.71322884138056       -2.86684770609717        0.71150401997454
H           -2.00506831962972        0.13722138203863       -0.57854096194092
H           -4.28346798257553        3.81775812146728       -0.63335910993119
H           -6.28454676964798        5.25990403955872       -0.40676091108452
H           -8.45902082112884        4.25773739183893        0.25246877850160
H           -8.61472068298693        1.82983048384425        0.66855863902700

          :  Hamiltonian                  GFN2-xTB          :
         :: gradient norm              0.000142277875 Eh/a0 ::
         :: HOMO-LUMO gap              0.195244449531 eV    ::
         :: SCC energy               -92.657607000936 Eh    ::
         :: -> dispersion             -0.074647763921 Eh    ::
         :: -> Gsolv                  -0.038034189274 Eh    ::
         :: repulsion energy           1.495221551090 Eh    ::

    * Orbital Energies and Occupations

         #    Occupation            Energy/Eh            Energy/eV
      -------------------------------------------------------------
         1        2.0000           -0.7487222             -20.3738
       ...           ...                  ...                  ...
        73        2.0000           -0.4259660             -11.5911
        74        2.0000           -0.4235782             -11.5261
        75        2.0000           -0.4207585             -11.4494
        76        2.0000           -0.4198491             -11.4247
        77        2.0000           -0.4129155             -11.2360
        78        2.0000           -0.4097033             -11.1486
        79        2.0000           -0.3998101             -10.8794
        80        2.0000           -0.3987965             -10.8518
        81        2.0000           -0.3875463             -10.5457
        82        2.0000           -0.3823026             -10.4030
        83        1.9200           -0.3586447              -9.7592
        84        1.0800           -0.3540038              -9.6329
        85        0.9776           -0.2622107              -7.1351 (HOMO)
        86        0.0224           -0.2550361              -6.9399 (LUMO)
        87                         -0.2416442              -6.5755
        88                         -0.2395341              -6.5181
        89                         -0.2374911              -6.4625
        90                         -0.2342410              -6.3740
        91                         -0.2192028              -5.9648
        92                         -0.2125030              -5.7825
        93                         -0.2113426              -5.7509
        94                         -0.2043653              -5.5611
        95                         -0.2037320              -5.5438
        96                         -0.1956216              -5.3231
       ...                                ...                  ...
       170                          0.6951358              18.9156
      -------------------------------------------------------------
                  HL-Gap            0.0071746 Eh            0.1952 eV

     #   Z          covCN         q      C6AA      α(0)
     1   6 C        3.757    -0.106    22.588     6.776
     2   6 C        2.966     0.005    27.898     8.664
     3   6 C        2.977    -0.003    28.095     8.694
     4   6 C        2.977     0.015    27.671     8.629
     5   6 C        2.924    -0.041    29.031     8.836
     6   6 C        2.972    -0.041    29.024     8.837
     7   6 C        2.965     0.018    27.609     8.619
     8   6 C        2.886     0.132    25.106     8.215
     9   6 C        2.928    -0.058    29.439     8.898
    10   8 O        1.710    -0.254    18.210     5.762
    11   6 C        2.887     0.135    25.055     8.206
    12   6 C        2.922    -0.054    29.333     8.882
    13   6 C        2.919    -0.032    28.788     8.799
    14   6 C        2.919    -0.035    28.883     8.813
    15   6 C        2.975    -0.040    28.979     8.830
    16   6 C        2.965     0.022    27.510     8.603
    17  16 S        2.111    -0.125   146.280    20.356
    18   6 C        2.925    -0.046    29.148     8.854
    19   6 C        2.912    -0.037    28.927     8.819
    20   6 C        2.925    -0.044    29.094     8.846
    21   6 C        2.972    -0.004    28.125     8.699
    22   6 C        2.970    -0.004    28.125     8.699
    23   6 C        2.915    -0.048    29.193     8.860
    24   6 C        2.959    -0.044    29.090     8.847
    25   6 C        2.958    -0.014    28.364     8.735
    26   6 C        2.882     0.121    25.343     8.253
    27   6 C        2.915    -0.063    29.574     8.918
    28   8 O        1.712    -0.214    17.557     5.657
    29   6 C        2.890     0.124    25.286     8.244
    30   6 C        2.914    -0.052    29.302     8.876
    31   6 C        2.915    -0.040    28.996     8.830
    32   6 C        2.915    -0.041    29.014     8.833
    33   6 C        2.970    -0.040    28.990     8.832
    34   6 C        2.960    -0.001    28.042     8.686
    35  16 S        2.124     0.002   140.982    19.984
    36   1 H        0.925     0.046     2.366     2.405
    37   1 H        0.925     0.046     2.374     2.410
    38   1 H        0.925     0.040     2.445     2.445
    39   1 H        0.926     0.049     2.334     2.389
    40   1 H        0.926     0.049     2.328     2.386
    41   1 H        0.926     0.057     2.235     2.338
    42   1 H        0.926     0.057     2.233     2.337
    43   1 H        0.926     0.053     2.283     2.363
    44   1 H        0.926     0.052     2.296     2.369
    45   1 H        0.926     0.052     2.299     2.371
    46   1 H        0.926     0.025     2.661     2.551
    47   1 H        0.926     0.026     2.643     2.542
    48   1 H        0.926     0.029     2.605     2.524
    49   1 H        0.926     0.041     2.435     2.440
    50   1 H        0.926     0.041     2.440     2.443
    51   1 H        0.926     0.053     2.281     2.362
    52   1 H        0.926     0.053     2.288     2.365
    53   1 H        0.926     0.046     2.369     2.407
    54   1 H        0.926     0.046     2.367     2.406
    55   1 H        0.926     0.049     2.335     2.390

molecular dipole:
                 x           y           z       tot (Debye)
 q only:       -0.351       0.811       0.115
   full:       -0.325       0.907       0.004       2.450

 projected vibrational frequencies (cm⁻¹)
eigval :       -0.00    -0.00    -0.00     0.00     0.00     0.00
eigval :       11.39    16.88    20.50    30.50    35.57    42.38
eigval :       63.13    68.14    87.22   111.22   118.88   135.83
eigval :      153.93   171.88   185.42   211.56   222.22   227.90
eigval :      229.06   238.95   254.50   260.26   274.39   305.37
eigval :      320.25   329.82   339.58   349.02   363.56   370.56
eigval :      373.50   397.38   412.48   416.82   425.63   428.17
eigval :      449.09   459.99   467.37   474.06   485.95   497.88
eigval :      522.36   552.25   564.57   570.68   576.63   598.12
eigval :      609.46   617.05   631.26   641.13   650.51   653.31
eigval :      662.98   669.16   679.22   682.07   693.67   744.18
eigval :      748.31   772.54   775.45   789.51   795.75   807.09
eigval :      815.94   828.40   847.15   866.03   869.67   875.90
eigval :      877.86   883.49   892.95   894.26   897.69   904.23
eigval :      912.78   914.39   916.45   927.23   999.10  1002.19
eigval :     1019.93  1022.13  1026.26  1038.68  1047.88  1054.58
eigval :     1082.54  1093.49  1121.09  1135.41  1139.84  1152.63
eigval :     1159.23  1165.31  1168.89  1171.58  1173.80  1187.51
eigval :     1205.22  1206.85  1210.52  1219.90  1225.77  1238.37
eigval :     1241.72  1252.15  1286.05  1307.30  1315.94  1320.50
eigval :     1325.59  1336.84  1347.90  1373.22  1378.12  1385.42
eigval :     1393.70  1403.70  1411.85  1418.34  1423.10  1437.13
eigval :     1446.56  1462.80  1480.07  1482.80  1492.22  1495.62
eigval :     1498.50  1513.71  1544.32  1547.97  1557.62  1568.30
eigval :     1574.78  2994.70  3024.16  3031.28  3065.61  3078.78
eigval :     3079.78  3086.85  3087.13  3087.71  3089.11  3093.03
eigval :     3093.23  3099.03  3099.88  3101.65  3103.19  3108.30
eigval :     3108.81  3110.09  3115.43

   temp. (K)  partition function   enthalpy   heat capacity  entropy
                                   cal/mol     cal/K/mol   cal/K/mol   J/K/mol
 298.15  VIB  0.320E+13            16577.327    105.383    101.276
         ROT  0.565E+08              888.752      2.981     38.452
         INT  0.181E+21            17466.079    108.364    139.729
         TR   0.104E+29             1481.254      4.968     44.427
         TOT                       18947.3333   113.3324   184.1553   770.5059

       T/K    H(0)-H(T)+PV         H(T)/Eh          T*S/Eh         G(T)/Eh
   ------------------------------------------------------------------------
    298.15    0.301945E-01    0.430970E+00    0.874981E-01    0.343472E+00
   ------------------------------------------------------------------------

         :::::::::::::::::::::::::::::::::::::::::::::::::::::
         ::                  THERMODYNAMIC                  ::
         :::::::::::::::::::::::::::::::::::::::::::::::::::::
         :: total free energy         -90.818913559722 Eh   ::
         ::.................................................::
         :: total energy              -91.162385453642 Eh   ::
         :: zero point energy           0.400775534630 Eh   ::
         :: G(RRHO) w/o ZPVE           -0.057303640709 Eh   ::
         :: G(RRHO) contrib.            0.343471893920 Eh   ::
         :::::::::::::::::::::::::::::::::::::::::::::::::::::

           -------------------------------------------------
          | TOTAL ENERGY              -91.162385453642 Eh   |
          | TOTAL ENTHALPY            -90.731415421380 Eh   |
          | TOTAL FREE ENERGY         -90.818913559722 Eh   |
          | GRADIENT NORM               0.000142832181 Eh/α |
          | HOMO-LUMO GAP               0.195231667445 eV   |
           -------------------------------------------------

 * finished run on 2025/09/10 at 03:24:58.360
