   * xtb version 6.7.1 (edcfbbe) compiled by 'albert@albert-system' on 2024-07-22

   ID    Z sym.   atoms
    1    6 C      1-9, 11-16, 18-27, 29-34
    2    8 O      10, 28
    3   16 S      17, 35
    4    1 H      36-55

          program call               : xtb data2507/toluene/mPXTMP/mPXTMP_toluene_S0_crest.xyz --gfn 2 --gbsa toluene --ohess vtight --parallel 40 --molden --ceasefiles --namespace data2507/toluene/mPXTMP/mPXTMP_toluene_S0_finalOpt
      * Solvation model:               GBSA
        Solvent                        toluene
        Solvent mass                       9.2140E+01 g/mol
          :  Hamiltonian                  GFN2-xTB          :
 * total energy  :   -91.2600548 Eh     change       -0.2123343E-08 Eh
 * total energy  :   -91.2600915 Eh     change       -0.3675047E-04 Eh
 * total energy  :   -91.2601051 Eh     change       -0.1357592E-04 Eh
 * total energy  :   -91.2601086 Eh     change       -0.3501451E-05 Eh
 * total energy  :   -91.2601128 Eh     change       -0.4240173E-05 Eh
 * total energy  :   -91.2601181 Eh     change       -0.5295611E-05 Eh
 * total energy  :   -91.2601239 Eh     change       -0.5749483E-05 Eh
 * total energy  :   -91.2601277 Eh     change       -0.3826585E-05 Eh
 * total energy  :   -91.2601296 Eh     change       -0.1869488E-05 Eh
 * total energy  :   -91.2601315 Eh     change       -0.1941380E-05 Eh
 * total energy  :   -91.2601588 Eh     change       -0.3277070E-06 Eh
 * total energy  :   -91.2601592 Eh     change       -0.4694243E-06 Eh
 * total energy  :   -91.2601598 Eh     change       -0.5291368E-06 Eh
 * total energy  :   -91.2601601 Eh     change       -0.3687996E-06 Eh
 * total energy  :   -91.2601604 Eh     change       -0.2617570E-06 Eh
 * total energy  :   -91.2601607 Eh     change       -0.3000786E-06 Eh
 * total energy  :   -91.2601610 Eh     change       -0.2783987E-06 Eh
 * total energy  :   -91.2601611 Eh     change       -0.1704425E-06 Eh
 * total energy  :   -91.2601612 Eh     change       -0.7630560E-07 Eh
   *** GEOMETRY OPTIMIZATION CONVERGED AFTER 32 ITERATIONS ***

 final structure:
================
55
 xtb: 6.7.1 (edcfbbe)
C            0.00176978011176       -0.67484308724479        0.87689632406410
C           -0.00004505950554       -1.82520000302610       -0.08765766346863
C            1.20272602531148       -2.39391887157494       -0.51879078338498
C            2.51447111162202       -1.84196980128770       -0.12272105921669
C            3.45142716883345       -2.64718753569625        0.51824166208788
C            4.68831864670162       -2.13799089799969        0.86168825869400
C            5.02240132389720       -0.82286454321304        0.56779012873922
C            4.10110093804198       -0.01094774405134       -0.08573167190143
C            2.85722247467947       -0.52949560251467       -0.42320869351626
O            4.30036674594632        1.29703114034518       -0.44391790925648
C            5.50688458227649        1.92290451907476       -0.27536275463252
C            5.58075499609917        3.21329933736613       -0.79088111809417
C            6.74237162450362        3.95492365956465       -0.68018111745682
C            7.85118660041574        3.41191844881603       -0.05355718481401
C            7.78761487050616        2.12957318266752        0.46002349743472
C            6.62246340309899        1.38197178573076        0.35594970903099
S            6.62708191407943       -0.24716260114683        1.06121056218184
C            1.19173090415557       -3.51769952083741       -1.33995859693930
C           -0.00249927463680       -4.07966237898791       -1.74908541256435
C           -1.19542574500504       -3.51586211078282       -1.33880432965891
C           -1.20412781633477       -2.39201052132737       -0.51758409328434
C           -2.51491717236394       -1.83852393852201       -0.12075035840610
C           -3.45392430107331       -2.64403414697551        0.51691013217947
C           -4.69016308345339       -2.13373838859435        0.86096869389486
C           -5.02170805946724       -0.81712172720158        0.57086425189310
C           -4.09853646979468       -0.00494904057196       -0.07968255622280
C           -2.85519962704823       -0.52454801181987       -0.41755612029589
O           -4.29547381903017        1.30438883032812       -0.43428639544917
C           -5.50239458037336        1.93028078988345       -0.26857552740143
C           -5.57522391481721        3.22057198222154       -0.78449253716716
C           -6.73687165596043        3.96243391921648       -0.67569410616179
C           -7.84679310645318        3.41973423135288       -0.05076417573394
C           -7.78439609243003        2.13733519125352        0.46281906125958
C           -6.61921747872177        1.38951359272208        0.36068297538277
S           -6.62526382439007       -0.23965861102944        1.06581777331240
H            0.00430918277241        0.27852377164884        0.35022200928191
H           -0.88439212182934       -0.70486232299504        1.50682471669281
H            0.88709895706937       -0.70880718679086        1.50783867705293
H            3.20520814524874       -3.66947798550941        0.76080841964173
H            5.41609104925086       -2.75421766093371        1.36774706992174
H            2.16783661572878        0.11768605191720       -0.94187189465739
H            4.70239999215888        3.61189627083646       -1.27445767654612
H            6.77742424285402        4.95463889017363       -1.08432500151536
H            8.76337568451386        3.98045569565372        0.03791180997824
H            8.64042953956760        1.68814724849967        0.95339096977579
H            2.13181129360457       -3.94154229632194       -1.66208837090884
H           -0.00349974183285       -4.95193098725158       -2.38589405660411
H           -2.13642262160544       -3.93800911094581       -1.66047029386445
H           -3.20986143888762       -3.66758814821149        0.75629277782584
H           -5.41950604821820       -2.75032946317713        1.36430798454243
H           -2.16427591468395        0.12308488608163       -0.93358040571555
H           -4.69604277478158        3.61891969939098       -1.26677977964669
H           -6.77121267294457        4.96197812434623       -1.08032482081597
H           -8.75899844535757        3.98848454688791        0.03920419610759
H           -8.63811240235036        1.69610363385894        0.95480350762532

          :  Hamiltonian                  GFN2-xTB          :
         :: gradient norm              0.000070273845 Eh/a0 ::
         :: HOMO-LUMO gap              2.761585625767 eV    ::
         :: SCC energy               -92.775197514479 Eh    ::
         :: -> dispersion             -0.074385079687 Eh    ::
         :: -> Gsolv                  -0.039085671612 Eh    ::
         :: repulsion energy           1.515036296142 Eh    ::

    * Orbital Energies and Occupations

         #    Occupation            Energy/Eh            Energy/eV
      -------------------------------------------------------------
         1        2.0000           -0.7400244             -20.1371
       ...           ...                  ...                  ...
        72        2.0000           -0.4306008             -11.7172
        73        2.0000           -0.4280445             -11.6477
        74        2.0000           -0.4256073             -11.5814
        75        2.0000           -0.4232039             -11.5160
        76        2.0000           -0.4223578             -11.4929
        77        2.0000           -0.4166248             -11.3369
        78        2.0000           -0.4156609             -11.3107
        79        2.0000           -0.4002159             -10.8904
        80        2.0000           -0.3982206             -10.8361
        81        2.0000           -0.3941765             -10.7261
        82        2.0000           -0.3932824             -10.7018
        83        2.0000           -0.3571894              -9.7196
        84        2.0000           -0.3568265              -9.7097 (HOMO)
        85                         -0.2553401              -6.9482 (LUMO)
        86                         -0.2541402              -6.9155
        87                         -0.2424552              -6.5975
        88                         -0.2408430              -6.5537
        89                         -0.2382160              -6.4822
        90                         -0.2374721              -6.4619
        91                         -0.2226917              -6.0597
        92                         -0.2218188              -6.0360
        93                         -0.2098957              -5.7116
        94                         -0.2098273              -5.7097
        95                         -0.2088959              -5.6843
       ...                                ...                  ...
       170                          0.6825641              18.5735
      -------------------------------------------------------------
                  HL-Gap            0.1014864 Eh            2.7616 eV

     #   Z          covCN         q      C6AA      α(0)
     1   6 C        3.757    -0.108    22.624     6.782
     2   6 C        2.969     0.013    27.726     8.637
     3   6 C        2.980     0.002    27.971     8.675
     4   6 C        2.977     0.014    27.692     8.632
     5   6 C        2.924    -0.042    29.040     8.837
     6   6 C        2.972    -0.041    29.024     8.837
     7   6 C        2.965     0.021    27.538     8.608
     8   6 C        2.886     0.133    25.101     8.214
     9   6 C        2.928    -0.058    29.444     8.899
    10   8 O        1.710    -0.259    18.299     5.776
    11   6 C        2.888     0.134    25.074     8.210
    12   6 C        2.923    -0.054    29.350     8.884
    13   6 C        2.919    -0.033    28.810     8.802
    14   6 C        2.919    -0.036    28.899     8.816
    15   6 C        2.975    -0.040    28.996     8.833
    16   6 C        2.965     0.024    27.473     8.597
    17  16 S        2.109    -0.150   147.364    20.431
    18   6 C        2.926    -0.036    28.907     8.817
    19   6 C        2.915    -0.034    28.855     8.809
    20   6 C        2.926    -0.036    28.907     8.817
    21   6 C        2.980     0.002    27.971     8.675
    22   6 C        2.977     0.014    27.692     8.632
    23   6 C        2.924    -0.042    29.041     8.837
    24   6 C        2.972    -0.041    29.024     8.837
    25   6 C        2.965     0.021    27.538     8.608
    26   6 C        2.886     0.133    25.101     8.214
    27   6 C        2.928    -0.058    29.444     8.899
    28   8 O        1.710    -0.260    18.299     5.776
    29   6 C        2.888     0.134    25.074     8.210
    30   6 C        2.923    -0.054    29.350     8.884
    31   6 C        2.919    -0.033    28.810     8.802
    32   6 C        2.919    -0.036    28.899     8.816
    33   6 C        2.975    -0.040    28.996     8.833
    34   6 C        2.965     0.024    27.473     8.597
    35  16 S        2.109    -0.150   147.364    20.431
    36   1 H        0.925     0.051     2.302     2.373
    37   1 H        0.925     0.045     2.379     2.412
    38   1 H        0.925     0.045     2.380     2.412
    39   1 H        0.926     0.050     2.324     2.384
    40   1 H        0.926     0.049     2.328     2.386
    41   1 H        0.926     0.058     2.227     2.334
    42   1 H        0.926     0.056     2.250     2.345
    43   1 H        0.926     0.051     2.303     2.373
    44   1 H        0.926     0.050     2.317     2.380
    45   1 H        0.926     0.050     2.326     2.385
    46   1 H        0.926     0.035     2.512     2.478
    47   1 H        0.926     0.036     2.498     2.472
    48   1 H        0.926     0.035     2.511     2.478
    49   1 H        0.926     0.050     2.323     2.384
    50   1 H        0.926     0.049     2.328     2.386
    51   1 H        0.926     0.058     2.226     2.333
    52   1 H        0.926     0.056     2.250     2.345
    53   1 H        0.926     0.051     2.303     2.373
    54   1 H        0.926     0.050     2.317     2.380
    55   1 H        0.926     0.050     2.326     2.385

molecular dipole:
                 x           y           z       tot (Debye)
 q only:       -0.000       0.207      -0.302
   full:       -0.000       0.358      -0.427       1.417

 projected vibrational frequencies (cm⁻¹)
eigval :       -0.00    -0.00     0.00     0.00     0.00     0.00
eigval :       14.64    17.62    25.64    30.43    34.12    52.67
eigval :       61.47    61.65    96.31   115.09   133.36   148.30
eigval :      162.98   175.08   179.17   193.16   224.92   229.24
eigval :      229.66   236.33   256.73   256.88   287.00   322.22
eigval :      324.05   330.77   341.52   346.33   371.66   401.64
eigval :      407.79   415.02   415.13   423.61   429.34   430.61
eigval :      460.66   470.49   484.62   489.72   499.47   499.61
eigval :      550.87   570.40   573.82   574.57   598.23   617.95
eigval :      639.32   646.11   651.17   651.25   654.36   659.73
eigval :      668.35   668.56   674.89   697.17   706.40   757.75
eigval :      778.33   778.36   802.41   808.41   812.64   823.02
eigval :      826.67   830.35   871.34   871.43   877.75   879.05
eigval :      891.53   905.01   905.52   905.57   910.78   912.96
eigval :      919.15   919.18   927.42   939.77  1024.82  1024.83
eigval :     1026.65  1028.74  1034.11  1037.80  1066.74  1087.02
eigval :     1087.09  1121.70  1136.61  1146.39  1146.40  1159.05
eigval :     1159.53  1170.60  1170.88  1181.05  1181.63  1211.82
eigval :     1221.53  1226.62  1226.77  1230.10  1232.03  1242.42
eigval :     1243.15  1274.30  1303.75  1306.30  1312.19  1316.69
eigval :     1324.57  1325.33  1379.74  1386.10  1405.27  1413.40
eigval :     1413.79  1438.60  1440.44  1456.94  1457.10  1475.00
eigval :     1476.36  1486.05  1487.05  1557.27  1557.47  1568.44
eigval :     1568.78  1577.94  1578.04  1581.36  1581.93  1584.04
eigval :     1584.43  3006.12  3034.87  3038.41  3072.25  3078.07
eigval :     3088.27  3088.29  3088.88  3088.97  3089.08  3093.28
eigval :     3093.33  3099.94  3100.01  3101.16  3101.18  3107.91
eigval :     3108.03  3108.39  3108.61

   temp. (K)  partition function   enthalpy   heat capacity  entropy
                                   cal/mol     cal/K/mol   cal/K/mol   J/K/mol
 298.15  VIB  0.112E+13            16246.859    103.675     98.914
         ROT  0.565E+08              888.752      2.981     38.454
         INT  0.635E+20            17135.611    106.656    137.367
         TR   0.104E+29             1481.254      4.968     44.427
         TOT                       18616.8651   111.6239   181.7940   760.6261

       T/K    H(0)-H(T)+PV         H(T)/Eh          T*S/Eh         G(T)/Eh
   ------------------------------------------------------------------------
    298.15    0.296679E-01    0.434918E+00    0.863762E-01    0.348541E+00
   ------------------------------------------------------------------------

         :::::::::::::::::::::::::::::::::::::::::::::::::::::
         ::                  THERMODYNAMIC                  ::
         :::::::::::::::::::::::::::::::::::::::::::::::::::::
         :: total free energy         -90.911619735338 Eh   ::
         ::.................................................::
         :: total energy              -91.260161218564 Eh   ::
         :: zero point energy           0.405249820173 Eh   ::
         :: G(RRHO) w/o ZPVE           -0.056708336947 Eh   ::
         :: G(RRHO) contrib.            0.348541483226 Eh   ::
         :::::::::::::::::::::::::::::::::::::::::::::::::::::

           -------------------------------------------------
          | TOTAL ENERGY              -91.260161218564 Eh   |
          | TOTAL ENTHALPY            -90.825243535362 Eh   |
          | TOTAL FREE ENERGY         -90.911619735338 Eh   |
          | GRADIENT NORM               0.000070231817 Eh/α |
          | HOMO-LUMO GAP               2.761585465124 eV   |
           -------------------------------------------------

 * finished run on 2025/09/10 at 03:21:26.390
