   * xtb version 6.7.1 (edcfbbe) compiled by 'albert@albert-system' on 2024-07-22

   ID    Z sym.   atoms
    1    6 C      1-9, 11-16, 18-27, 29-34
    2    8 O      10, 28
    3   16 S      17, 35
    4    1 H      36-55

          program call               : xtb data2507/toluene/mPXTMP/mPXTMP.xyz --gfn 2 --gbsa toluene --ohess vtight --parallel 40 --molden --ceasefiles --namespace data2507/toluene/mPXTMP/mPXTMP_toluene_S0_preOpt
      * Solvation model:               GBSA
        Solvent                        toluene
        Solvent mass                       9.2140E+01 g/mol
          :  Hamiltonian                  GFN2-xTB          :
 * total energy  :   -91.2509992 Eh     change       -0.3296819E-08 Eh
 * total energy  :   -91.2575721 Eh     change       -0.6572894E-02 Eh
 * total energy  :   -91.2586174 Eh     change       -0.1045348E-02 Eh
 * total energy  :   -91.2588043 Eh     change       -0.1868116E-03 Eh
 * total energy  :   -91.2589162 Eh     change       -0.1119069E-03 Eh
 * total energy  :   -91.2589641 Eh     change       -0.4796508E-04 Eh
 * total energy  :   -91.2590183 Eh     change       -0.5421119E-04 Eh
 * total energy  :   -91.2590895 Eh     change       -0.7118338E-04 Eh
 * total energy  :   -91.2591644 Eh     change       -0.7483883E-04 Eh
 * total energy  :   -91.2592326 Eh     change       -0.6824016E-04 Eh
 * total energy  :   -91.2599191 Eh     change       -0.9103941E-06 Eh
 * total energy  :   -91.2599198 Eh     change       -0.7329551E-06 Eh
 * total energy  :   -91.2599204 Eh     change       -0.5625145E-06 Eh
 * total energy  :   -91.2599208 Eh     change       -0.3741435E-06 Eh
 * total energy  :   -91.2599211 Eh     change       -0.3478886E-06 Eh
 * total energy  :   -91.2599215 Eh     change       -0.3656829E-06 Eh
 * total energy  :   -91.2599220 Eh     change       -0.4788343E-06 Eh
 * total energy  :   -91.2599226 Eh     change       -0.6595562E-06 Eh
 * total energy  :   -91.2599226 Eh     change       -0.3451703E-08 Eh
   *** GEOMETRY OPTIMIZATION CONVERGED AFTER 68 ITERATIONS ***

 final structure:
================
55
 xtb: 6.7.1 (edcfbbe)
C           -0.00002413872573       -0.67283139935454        1.20341052012349
C           -0.00001571579421       -1.26379252441800       -0.17642255200298
C            1.20325766343439       -1.51225624543032       -0.84400903154280
C            2.51208316808180       -1.28150908362024       -0.19800289550977
C            2.87753054198892       -1.94887355501975        0.96711088368003
C            4.12172282356578       -1.73868417698040        1.52786277617243
C            5.02564322412450       -0.86154204124918        0.94392470868978
C            4.67324378951002       -0.18608771482452       -0.21979056440527
C            3.42166819969044       -0.40743642847207       -0.78079358101677
O            5.46896056542407        0.70295654180820       -0.89567564969010
C            6.61550311546202        1.20759549964220       -0.33996475565406
C            7.17674610858143        2.28936143824107       -1.01116436193825
C            8.34025885281747        2.87943537541521       -0.55302253180521
C            8.95346874687679        2.40036403040364        0.59222813339559
C            8.39998376189265        1.32867087546444        1.26858174378331
C            7.23831168064370        0.72507624095710        0.80686343137920
S            6.61501223265964       -0.67011615090291        1.71055543872167
C            1.19376773603854       -1.98015620368295       -2.15452497057600
C            0.00001457093380       -2.21531457555859       -2.80975190714319
C           -1.19375300119911       -1.98023985139140       -2.15452237812890
C           -1.20327342796910       -1.51233591168311       -0.84400691457292
C           -2.51211262709025       -1.28165600991914       -0.19800528378057
C           -2.87752315195071       -1.94900292807494        0.96713040751474
C           -4.12171621084532       -1.73884115330934        1.52789221652206
C           -5.02567059071834       -0.86174001005356        0.94394536175224
C           -4.67331046467676       -0.18631173202427       -0.21979700280091
C           -3.42173784092610       -0.40763692316333       -0.78081325663101
O           -5.46906895903728        0.70268628107862       -0.89569476140145
C           -6.61554511541034        1.20739986567924       -0.33991269518508
C           -7.17677047200387        2.28919372914468       -1.01108141712763
C           -8.34022593119882        2.87932731610448       -0.55287158251377
C           -8.95338937854024        2.40029221929231        0.59241893938518
C           -8.39991965622606        1.32857293207321        1.26874320961272
C           -7.23830913455169        0.72491475069461        0.80695435656860
S           -6.61503754908154       -0.67033059969289        1.71058571447555
H            0.88575803263131       -0.06025505774924        1.35504715599187
H           -0.88594232715526       -0.06047615939065        1.35513701844213
H            0.00011464772024       -1.45374963498589        1.96243615694889
H            2.19555789353618       -2.64703213236787        1.42552302645101
H            4.41565960260820       -2.25947943217357        2.42658236956231
H            3.17032399402700        0.12855249832074       -1.68336485591864
H            6.67719304566286        2.64457234493287       -1.89913219131465
H            8.76275438583641        3.71327798756872       -1.09171294173133
H            9.85977565565703        2.85495891903427        0.96054282420193
H            8.86454560200447        0.93850834002483        2.16152409428456
H            2.13444961535083       -2.16554416956114       -2.65258693344216
H            0.00002609216109       -2.57939747994086       -3.82652638583863
H           -2.13442283928790       -2.16569617644430       -2.65258155473619
H           -2.19551112387705       -2.64710847730772        1.42556513515523
H           -4.41561615079797       -2.25960677703136        2.42664108137941
H           -3.17042340332401        0.12833404517963       -1.68340329612770
H           -6.67725090848873        2.64437661127696       -1.89907990293029
H           -8.76269658283265        3.71320757825751       -1.09152407364654
H           -9.85963044173575        2.85495951356464        0.96080730170710
H           -8.86443820547904        0.93844878160543        2.16172522319901

          :  Hamiltonian                  GFN2-xTB          :
         :: gradient norm              0.000040725132 Eh/a0 ::
         :: HOMO-LUMO gap              2.777668463873 eV    ::
         :: SCC energy               -92.775016821312 Eh    ::
         :: -> dispersion             -0.074263509893 Eh    ::
         :: -> Gsolv                  -0.039255096533 Eh    ::
         :: repulsion energy           1.515094179361 Eh    ::

    * Orbital Energies and Occupations

         #    Occupation            Energy/Eh            Energy/eV
      -------------------------------------------------------------
         1        2.0000           -0.7396513             -20.1269
       ...           ...                  ...                  ...
        72        2.0000           -0.4297436             -11.6939
        73        2.0000           -0.4280996             -11.6492
        74        2.0000           -0.4246199             -11.5545
        75        2.0000           -0.4229671             -11.5095
        76        2.0000           -0.4216938             -11.4749
        77        2.0000           -0.4178356             -11.3699
        78        2.0000           -0.4145535             -11.2806
        79        2.0000           -0.3995221             -10.8715
        80        2.0000           -0.3984455             -10.8423
        81        2.0000           -0.3956198             -10.7654
        82        2.0000           -0.3934649             -10.7067
        83        2.0000           -0.3576850              -9.7331
        84        2.0000           -0.3571298              -9.7180 (HOMO)
        85                         -0.2550524              -6.9403 (LUMO)
        86                         -0.2534708              -6.8973
        87                         -0.2416195              -6.5748
        88                         -0.2415663              -6.5734
        89                         -0.2384157              -6.4876
        90                         -0.2379244              -6.4743
        91                         -0.2231061              -6.0710
        92                         -0.2218804              -6.0377
        93                         -0.2113030              -5.7498
        94                         -0.2095342              -5.7017
        95                         -0.2085209              -5.6741
       ...                                ...                  ...
       170                          0.6805852              18.5197
      -------------------------------------------------------------
                  HL-Gap            0.1020774 Eh            2.7777 eV

     #   Z          covCN         q      C6AA      α(0)
     1   6 C        3.757    -0.110    22.657     6.787
     2   6 C        2.969     0.013    27.722     8.636
     3   6 C        2.980     0.002    27.971     8.675
     4   6 C        2.977     0.014    27.687     8.631
     5   6 C        2.923    -0.040    28.991     8.830
     6   6 C        2.971    -0.041    29.027     8.837
     7   6 C        2.965     0.021    27.538     8.608
     8   6 C        2.888     0.133    25.097     8.213
     9   6 C        2.929    -0.060    29.486     8.905
    10   8 O        1.710    -0.262    18.341     5.782
    11   6 C        2.890     0.134    25.073     8.209
    12   6 C        2.923    -0.054    29.346     8.884
    13   6 C        2.919    -0.032    28.808     8.802
    14   6 C        2.919    -0.036    28.897     8.815
    15   6 C        2.973    -0.040    28.994     8.832
    16   6 C        2.965     0.024    27.473     8.597
    17  16 S        2.108    -0.150   147.377    20.432
    18   6 C        2.926    -0.036    28.904     8.817
    19   6 C        2.916    -0.034    28.855     8.809
    20   6 C        2.926    -0.036    28.904     8.817
    21   6 C        2.980     0.002    27.971     8.675
    22   6 C        2.977     0.014    27.687     8.631
    23   6 C        2.923    -0.040    28.991     8.830
    24   6 C        2.971    -0.041    29.027     8.837
    25   6 C        2.965     0.021    27.538     8.608
    26   6 C        2.888     0.133    25.097     8.213
    27   6 C        2.929    -0.060    29.486     8.905
    28   8 O        1.710    -0.262    18.341     5.782
    29   6 C        2.890     0.134    25.073     8.209
    30   6 C        2.923    -0.054    29.346     8.884
    31   6 C        2.919    -0.032    28.808     8.802
    32   6 C        2.919    -0.036    28.897     8.815
    33   6 C        2.973    -0.040    28.994     8.832
    34   6 C        2.965     0.024    27.473     8.597
    35  16 S        2.108    -0.150   147.377    20.432
    36   1 H        0.925     0.046     2.374     2.409
    37   1 H        0.925     0.046     2.374     2.409
    38   1 H        0.925     0.055     2.262     2.352
    39   1 H        0.926     0.053     2.281     2.362
    40   1 H        0.926     0.051     2.313     2.378
    41   1 H        0.926     0.054     2.266     2.354
    42   1 H        0.926     0.056     2.252     2.346
    43   1 H        0.926     0.051     2.301     2.372
    44   1 H        0.926     0.050     2.314     2.379
    45   1 H        0.926     0.050     2.321     2.382
    46   1 H        0.926     0.034     2.531     2.488
    47   1 H        0.926     0.036     2.509     2.477
    48   1 H        0.926     0.034     2.531     2.488
    49   1 H        0.926     0.053     2.281     2.362
    50   1 H        0.926     0.051     2.313     2.378
    51   1 H        0.926     0.054     2.266     2.354
    52   1 H        0.926     0.056     2.252     2.346
    53   1 H        0.926     0.051     2.301     2.372
    54   1 H        0.926     0.050     2.314     2.379
    55   1 H        0.926     0.050     2.321     2.382

molecular dipole:
                 x           y           z       tot (Debye)
 q only:        0.000       0.399       0.004
   full:        0.000       0.549      -0.220       1.504

 projected vibrational frequencies (cm⁻¹)
eigval :       -0.00    -0.00     0.00     0.00     0.00     0.00
eigval :       -5.45    -4.75    24.53    25.63    26.50    44.95
eigval :       48.79    64.39   102.29   116.80   123.00   136.22
eigval :      161.18   163.76   177.35   197.55   203.24   224.15
eigval :      230.86   234.30   253.13   258.72   286.26   327.68
eigval :      327.76   333.48   340.06   341.53   372.21   400.93
eigval :      411.69   412.16   412.52   422.58   430.62   434.86
eigval :      446.15   473.12   484.37   490.12   498.11   498.57
eigval :      548.87   569.05   570.57   576.04   602.72   618.25
eigval :      633.49   638.39   651.24   652.15   658.27   660.61
eigval :      668.33   668.50   675.15   694.20   703.84   757.28
eigval :      775.72   776.08   798.91   804.18   812.45   821.45
eigval :      828.81   830.11   870.77   870.78   877.61   878.54
eigval :      888.55   903.41   903.52   904.02   910.81   911.31
eigval :      915.18   915.24   917.72   941.43  1023.29  1023.67
eigval :     1024.22  1029.51  1033.99  1037.48  1068.41  1085.30
eigval :     1085.31  1119.64  1137.52  1144.51  1144.55  1156.65
eigval :     1158.01  1168.73  1169.04  1178.26  1178.50  1208.70
eigval :     1220.07  1224.45  1227.39  1227.62  1229.94  1240.72
eigval :     1240.99  1276.46  1306.47  1308.73  1310.21  1317.38
eigval :     1323.66  1323.92  1377.72  1381.80  1402.91  1412.96
eigval :     1413.46  1433.97  1445.18  1455.02  1457.50  1473.14
eigval :     1477.25  1484.66  1484.68  1557.15  1557.48  1567.82
eigval :     1568.10  1578.02  1578.20  1580.78  1581.50  1583.74
eigval :     1583.86  3006.97  3036.00  3039.13  3071.97  3077.41
eigval :     3088.36  3088.37  3088.72  3090.18  3090.29  3091.92
eigval :     3091.93  3098.49  3098.56  3100.20  3100.21  3106.32
eigval :     3106.58  3106.93  3106.96

   temp. (K)  partition function   enthalpy   heat capacity  entropy
                                   cal/mol     cal/K/mol   cal/K/mol   J/K/mol
 298.15  VIB  0.269E+14            16388.757    103.359    102.051
         ROT  0.548E+08              888.752      2.981     38.391
         INT  0.147E+22            17277.509    106.340    140.443
         TR   0.104E+29             1481.254      4.968     44.427
         TOT                       18758.7630   111.3081   184.8691   773.4924

       T/K    H(0)-H(T)+PV         H(T)/Eh          T*S/Eh         G(T)/Eh
   ------------------------------------------------------------------------
    298.15    0.298940E-01    0.434614E+00    0.878373E-01    0.346777E+00
   ------------------------------------------------------------------------

         :::::::::::::::::::::::::::::::::::::::::::::::::::::
         ::                  THERMODYNAMIC                  ::
         :::::::::::::::::::::::::::::::::::::::::::::::::::::
         :: total free energy         -90.913145845505 Eh   ::
         ::.................................................::
         :: total energy              -91.259922643257 Eh   ::
         :: zero point energy           0.404720090416 Eh   ::
         :: G(RRHO) w/o ZPVE           -0.057943292665 Eh   ::
         :: G(RRHO) contrib.            0.346776797752 Eh   ::
         :::::::::::::::::::::::::::::::::::::::::::::::::::::

           -------------------------------------------------
          | TOTAL ENERGY              -91.259922643257 Eh   |
          | TOTAL ENTHALPY            -90.825308561124 Eh   |
          | TOTAL FREE ENERGY         -90.913145845505 Eh   |
          | GRADIENT NORM               0.000040726814 Eh/α |
          | HOMO-LUMO GAP               2.777668512964 eV   |
           -------------------------------------------------

 * finished run on 2025/09/10 at 03:18:53.824
