   * xtb version 6.7.1 (edcfbbe) compiled by 'albert@albert-system' on 2024-07-22

   ID    Z sym.   atoms
    1    6 C      1-8, 10-13, 15-41
    2    7 N      9, 14
    3    1 H      42-73

          program call               : xtb data2507/gas/P3C/P3C_gas_T1_crest.xyz --gfn 2 --spinpol --tblite --uhf 2 --ohess vtight --parallel 40 --molden --ceasefiles --namespace data2507/gas/P3C/P3C_gas_T1_finalOpt
 * total energy  :  -105.6238947 Eh     change       -0.4594995E-08 Eh
 * total energy  :  -105.6239339 Eh     change       -0.3914554E-04 Eh
 * total energy  :  -105.6239351 Eh     change       -0.1237780E-05 Eh
 * total energy  :  -105.6239437 Eh     change       -0.8579112E-05 Eh
 * total energy  :  -105.6239532 Eh     change       -0.9454692E-05 Eh
 * total energy  :  -105.6239538 Eh     change       -0.6175925E-06 Eh
 * total energy  :  -105.6239543 Eh     change       -0.5123477E-06 Eh
 * total energy  :  -105.6239553 Eh     change       -0.9854685E-06 Eh
 * total energy  :  -105.6239559 Eh     change       -0.5845370E-06 Eh
 * total energy  :  -105.6239563 Eh     change       -0.4251935E-06 Eh
 * total energy  :  -105.6239575 Eh     change       -0.2152886E-06 Eh
 * total energy  :  -105.6239578 Eh     change       -0.2747165E-06 Eh
 * total energy  :  -105.6239581 Eh     change       -0.2730111E-06 Eh
 * total energy  :  -105.6239586 Eh     change       -0.4628698E-06 Eh
 * total energy  :  -105.6239590 Eh     change       -0.4303829E-06 Eh
 * total energy  :  -105.6239594 Eh     change       -0.4176506E-06 Eh
 * total energy  :  -105.6239597 Eh     change       -0.2959118E-06 Eh
 * total energy  :  -105.6239599 Eh     change       -0.2364626E-06 Eh
 * total energy  :  -105.6239600 Eh     change       -0.2154572E-07 Eh
   *** GEOMETRY OPTIMIZATION CONVERGED AFTER 22 ITERATIONS ***

 final structure:
================
73
 xtb: 6.7.1 (edcfbbe)
C            1.30258717759798       -4.48091835791662        0.40973692111223
C           -0.16873208919142       -4.66087898828442        0.05813840462036
C           -0.87825748413924       -3.31894468323674       -0.10863887349453
C           -2.34740960541579       -3.49810601137851       -0.48742435844646
C           -3.08055267603903       -2.17311703859780       -0.72625617249133
C           -4.34581337862654       -2.36716264410373       -1.57186234664429
C           -4.04755287057508       -2.59581486855615       -3.04892525642647
C           -3.43997693703002       -1.51708311661771        0.62037344253070
N           -3.81810419098817       -0.13817902127876        0.47183218598943
C           -5.09039751424618        0.37514478307943        0.45444294201381
C           -6.30457812345077       -0.25880100648838        0.65064310156040
C           -7.46033272885020        0.51956559506291        0.59077969996518
C           -8.71384671194857       -0.09692424046997        0.78573794075747
N           -9.73304295457034       -0.60053009887707        0.94433167584361
C           -7.40706886594046        1.90187141671899        0.34032267075270
C           -6.19925925369333        2.53057633850616        0.14838070410351
C           -5.02881134340797        1.77566382010106        0.20455459210895
C           -3.65010494899830        2.10018982487941        0.06070651797627
C           -2.96074074306098        3.29006482365812       -0.19110310846548
C           -1.59364408067929        3.26272262114839       -0.26377622726022
C           -0.87314017381683        2.05577612077634       -0.08283052726606
C            0.51290152983634        2.06226936801936       -0.14604721581876
C            1.73723295374846        2.05568503164869       -0.18835637495214
C            3.10796741756083        2.06709564856126       -0.23485327067462
C            3.79832867732295        3.27371647148485       -0.52083278273325
C            5.15297228228410        3.31802002702192       -0.57041306404818
C            5.94589786468462        2.14561527038606       -0.33206213866951
C            7.33689028842646        2.17733570735455       -0.37690997477830
C            8.08697797922441        1.03680866824101       -0.14139747415595
C            7.46583103540279       -0.18608808223283        0.15040489907526
C            8.20636139179688       -1.36746367997616        0.39779182356017
C            7.56347928274375       -2.55843140967015        0.68437373433112
C            6.18746245149198       -2.62424174918273        0.73617434439607
C            5.39779379385598       -1.46861464497247        0.49599820907758
C            3.99958591516615       -1.49911276857790        0.54194402462764
C            3.25365534664710       -0.35603793800264        0.30183078831244
C            3.87202223190206        0.85768452463253        0.01125604126192
C            5.28481275422390        0.92235436559284       -0.04096566353604
C            6.04835818691441       -0.24289995367893        0.20076476435683
C           -1.55429692382828        0.85048717102360        0.16574299158923
C           -2.93076215853148        0.88596017221620        0.23166431319516
H            1.78990222476329       -5.44614733961537        0.52643556028439
H            1.81463349341792       -3.92999748906012       -0.37688026452641
H            1.40544725676172       -3.92954064311196        1.34263382089043
H           -0.66369598703651       -5.23561531333393        0.84429439115539
H           -0.25186424919209       -5.23050588709487       -0.87012872784041
H           -0.79237744422311       -2.75967764193339        0.82597655136041
H           -0.37377907157729       -2.74293006076021       -0.88876174673425
H           -2.86269382165443       -4.05872405766849        0.29660993417338
H           -2.39102472698480       -4.09727007289482       -1.39786737670904
H           -2.41201378545242       -1.49296308676526       -1.26571854296200
H           -4.91627727586219       -3.21147208352947       -1.17722236531396
H           -4.96974783832299       -1.47482461756943       -1.48702948419034
H           -4.97546425878230       -2.70411060673278       -3.60520694454521
H           -3.49886790251727       -1.75097491198157       -3.46002375643815
H           -3.45584976836739       -3.49485633423523       -3.20179122768911
H           -4.26550211973542       -2.06022068667681        1.08531080840166
H           -2.58146249583609       -1.56352531606209        1.29689493728842
H           -6.38049161411968       -1.31850201059966        0.84273719845751
H           -8.33086498153941        2.45946451429995        0.30270819631808
H           -6.15385112131226        3.59192253412866       -0.04192251992267
H           -3.50399893741504        4.21345701007765       -0.32407064687719
H           -1.03476022402167        4.16624951743232       -0.45658441882603
H            3.20939101073350        4.16210721640309       -0.70027558334237
H            5.66654150351632        4.24253532164863       -0.79057951622009
H            7.83461477435458        3.11067696009738       -0.59913010678570
H            9.16565988336230        1.08179670307696       -0.18025779165367
H            9.28463455852312       -1.32324861459603        0.35928512106885
H            8.14883657712349       -3.44777250391427        0.87000399999567
H            5.68852015305447       -3.55543846676595        0.96017697837733
H            3.50267819297867       -2.43036239708989        0.76997033945207
H            2.17456155524669       -0.39702907875704        0.34053041501438
H           -0.99300592548550       -0.06133878512885        0.29882963038148

 projected vibrational frequencies (cm⁻¹)
eigval :       -0.00    -0.00    -0.00     0.00     0.00     0.00
eigval :       11.37    12.81    15.50    28.09    34.36    38.48
eigval :       40.32    57.46    64.72    68.00    71.34    92.73
eigval :       96.28    99.02   117.29   124.00   131.54   149.78
eigval :      153.54   157.93   164.40   190.53   201.14   203.07
eigval :      217.56   233.80   237.60   244.41   264.10   266.77
eigval :      305.80   308.89   317.65   331.52   352.66   356.30
eigval :      363.10   389.49   392.22   412.36   422.92   424.03
eigval :      428.62   430.99   446.81   450.19   451.89   461.56
eigval :      472.22   474.38   487.18   494.71   501.97   519.62
eigval :      535.92   556.24   564.21   571.48   581.65   584.68
eigval :      604.16   619.79   623.23   653.67   666.83   668.33
eigval :      675.02   688.82   705.30   722.39   733.99   749.90
eigval :      750.93   751.02   771.64   778.65   800.17   805.48
eigval :      807.80   811.23   817.97   819.85   821.59   835.28
eigval :      842.41   848.71   853.15   866.09   885.74   887.78
eigval :      903.21   906.20   906.59   914.59   926.79   933.32
eigval :      943.64   958.01   978.23   984.08  1007.45  1012.90
eigval :     1018.59  1048.51  1062.17  1083.33  1090.59  1101.91
eigval :     1115.72  1116.99  1122.14  1132.43  1136.00  1145.67
eigval :     1149.92  1152.89  1159.29  1162.83  1164.18  1183.40
eigval :     1192.31  1196.65  1207.25  1209.54  1224.00  1227.17
eigval :     1230.91  1240.29  1243.45  1250.87  1271.92  1278.80
eigval :     1280.38  1285.58  1288.57  1298.24  1305.13  1313.39
eigval :     1316.21  1330.73  1337.74  1340.21  1347.83  1353.35
eigval :     1355.41  1358.49  1361.84  1364.90  1377.05  1380.61
eigval :     1387.87  1402.83  1410.42  1418.07  1419.49  1435.34
eigval :     1449.54  1457.19  1462.65  1472.06  1486.32  1486.65
eigval :     1489.62  1493.45  1497.28  1498.96  1502.77  1503.40
eigval :     1504.22  1507.98  1508.40  1509.29  1517.56  1518.58
eigval :     1526.99  1549.90  1564.95  1581.11  1584.70  2147.19
eigval :     2361.12  2933.55  2950.40  2954.46  2965.15  2969.20
eigval :     2972.37  2974.06  2981.96  2982.98  2986.04  2996.33
eigval :     3023.64  3027.62  3030.96  3036.71  3036.92  3044.19
eigval :     3069.44  3070.60  3072.42  3078.13  3081.40  3083.37
eigval :     3083.55  3085.43  3088.05  3088.88  3089.12  3092.03
eigval :     3095.21  3095.91  3099.45

   temp. (K)  partition function   enthalpy   heat capacity  entropy
                                   cal/mol     cal/K/mol   cal/K/mol   J/K/mol
 298.15  VIB  0.275E+17            20986.114    129.418    131.410
         ROT  0.646E+08              888.752      2.981     38.718
         INT  0.178E+25            21874.866    132.399    170.128
         TR   0.118E+29             1481.254      4.968     44.661
         TOT                       23356.1201   137.3673   214.7899   898.6810

       T/K    H(0)-H(T)+PV         H(T)/Eh          T*S/Eh         G(T)/Eh
   ------------------------------------------------------------------------
    298.15    0.372203E-01    0.618454E+00    0.102054E+00    0.516400E+00
   ------------------------------------------------------------------------

         :::::::::::::::::::::::::::::::::::::::::::::::::::::
         ::                  THERMODYNAMIC                  ::
         :::::::::::::::::::::::::::::::::::::::::::::::::::::
         :: total free energy        -105.107559952713 Eh   ::
         ::.................................................::
         :: total energy             -105.623959937106 Eh   ::
         :: zero point energy           0.581233252488 Eh   ::
         :: G(RRHO) w/o ZPVE           -0.064833268095 Eh   ::
         :: G(RRHO) contrib.            0.516399984393 Eh   ::
         :::::::::::::::::::::::::::::::::::::::::::::::::::::

           -------------------------------------------------
          | TOTAL ENERGY             -105.623959937106 Eh   |
          | TOTAL ENTHALPY           -105.005506338135 Eh   |
          | TOTAL FREE ENERGY        -105.107559952713 Eh   |
          | GRADIENT NORM               0.000068766195 Eh/α |
           -------------------------------------------------

 * finished run on 2025/08/21 at 16:42:05.008
