   * xtb version 6.7.1 (edcfbbe) compiled by 'albert@albert-system' on 2024-07-22

   ID    Z sym.   atoms
    1    6 C      1-8, 10-13, 15-41
    2    7 N      9, 14
    3    1 H      42-73

          program call               : xtb data2507/gas/P3C/P3C_gas_S0_finalOpt.xtbopt.xyz --gfn 2 --spinpol --tblite --uhf 2 --ohess vtight --parallel 40 --molden --ceasefiles --namespace data2507/gas/P3C/P3C_gas_T1_preOpt
 * total energy  :  -105.6164853 Eh     change       -0.4669876E-07 Eh
 * total energy  :  -105.6224733 Eh     change       -0.5988003E-02 Eh
 * total energy  :  -105.6239103 Eh     change       -0.1437054E-02 Eh
 * total energy  :  -105.6239428 Eh     change       -0.3243043E-04 Eh
 * total energy  :  -105.6239144 Eh     change        0.2840301E-04 Eh
 * total energy  :  -105.6239577 Eh     change       -0.4335308E-04 Eh
 * total energy  :  -105.6239578 Eh     change       -0.5932431E-07 Eh
 * total energy  :  -105.6239594 Eh     change       -0.1667546E-05 Eh
 * total energy  :  -105.6239600 Eh     change       -0.5233981E-06 Eh
 * total energy  :  -105.6239609 Eh     change       -0.9079111E-06 Eh
 * total energy  :  -105.6239638 Eh     change       -0.5818826E-06 Eh
 * total energy  :  -105.6239641 Eh     change       -0.3908270E-06 Eh
 * total energy  :  -105.6239644 Eh     change       -0.2617200E-06 Eh
 * total energy  :  -105.6239643 Eh     change        0.1032442E-06 Eh
 * total energy  :  -105.6239645 Eh     change       -0.1880219E-06 Eh
 * total energy  :  -105.6239646 Eh     change       -0.1304560E-06 Eh
 * total energy  :  -105.6239646 Eh     change        0.7286829E-08 Eh
 * total energy  :  -105.6239648 Eh     change       -0.1339747E-06 Eh
 * total energy  :  -105.6239648 Eh     change       -0.1657241E-07 Eh
   *** GEOMETRY OPTIMIZATION CONVERGED AFTER 22 ITERATIONS ***

 final structure:
================
73
 xtb: 6.7.1 (edcfbbe)
C            1.32929964859827       -4.47486474828669        0.55448230298486
C           -0.13564761404428       -4.65922022709254        0.17941058937199
C           -0.83919789736281       -3.31975465631782       -0.02772240790391
C           -2.29963973882307       -3.50444143872372       -0.43632582748191
C           -3.02910242038678       -2.18261221614832       -0.70263229002534
C           -4.27257970026002       -2.38481035525041       -1.57804454278027
C           -3.93664597292430       -2.62189467225114       -3.04566686998709
C           -3.42264185113027       -1.51906559804157        0.63064722639755
N           -3.81080629213740       -0.14507637246530        0.46378242035212
C           -5.08742538791102        0.35582568521508        0.42021767872497
C           -6.29886091516822       -0.28876772892330        0.59774265799521
C           -7.46080253658443        0.47775237896105        0.51084244239814
C           -8.71164538898614       -0.15023725062733        0.68531966161372
N           -9.72829085025410       -0.66382838206190        0.82719625397028
C           -7.41624357458793        1.85890123207937        0.25249393069727
C           -6.21119897869328        2.49819030610459        0.07896635887966
C           -5.03474919931523        1.75514835211613        0.16175438279651
C           -3.65688553128493        2.09177633130741        0.03912227671909
C           -2.97457211362790        3.28609308803512       -0.21086112970285
C           -1.60640267392476        3.27042371295067       -0.26474704025675
C           -0.87795704550496        2.07106184675802       -0.06626814563795
C            0.50840045112310        2.08661778958498       -0.11985992017541
C            1.73273218047535        2.08384695938660       -0.16246499915572
C            3.10316564865602        2.09665778257084       -0.21609316690779
C            3.79090086788345        3.30021899688177       -0.52050956041191
C            5.14477273956814        3.34225598588856       -0.58948022497867
C            5.93948511535647        2.17043270513396       -0.35416652136612
C            7.32953560681822        2.19880137130027       -0.42346118603660
C            8.08136086322835        1.05879631862407       -0.19092684255531
C            7.46307281668561       -0.15981099531902        0.12396377876814
C            8.20547957529413       -1.34042123357426        0.36939004792122
C            7.56542085976442       -2.52691764754248        0.67985755924412
C            6.19047050818822       -2.58890629408903        0.75805457799700
C            5.39899561610854       -1.43402016111481        0.52028975447252
C            4.00179394882412       -1.46082305831245        0.59189583339352
C            3.25389990237616       -0.31929556103120        0.35060273246644
C            3.86936307078036        0.88955599115700        0.03471953898209
C            5.28122351532182        0.95126674816650       -0.04040320947002
C            6.04663258647160       -0.21295402588555        0.20038886475660
C           -1.55173048560494        0.86211045944838        0.18468039642766
C           -2.92922092048510        0.88559019351472        0.23061358116624
H            1.81160685515846       -5.43834422009568        0.70226061189485
H            1.85728214515264       -3.94347171947692       -0.23501726390215
H            1.41654289279732       -3.90253168718858        1.47629071600735
H           -0.64638824602520       -5.21695399220857        0.96772100726372
H           -0.20270847591008       -5.24751571603007       -0.73845911004583
H           -0.77373929032701       -2.74363229600204        0.89827109040903
H           -0.31653992592635       -2.75833059443173       -0.80650440381131
H           -2.83087160131315       -4.05849911911171        0.34172731933432
H           -2.32308592039295       -4.11219136208441       -1.34179804096622
H           -2.34884737487565       -1.50470289455916       -1.23006289269606
H           -4.85101927321742       -3.22789921878015       -1.19254701753657
H           -4.90033062322156       -1.49336789561745       -1.51446565956590
H           -4.84994492177620       -2.73436829418763       -3.62481440816321
H           -3.37830783652471       -1.77897120509056       -3.44763009717603
H           -3.34044856412093       -3.52122413324739       -3.17803183156171
H           -4.25257262269443       -2.06640661060800        1.08263148309943
H           -2.57790060389435       -1.55228602281958        1.32513879464710
H           -6.36811125686966       -1.34799846589065        0.79486004559434
H           -8.34453854120584        2.40711956823350        0.19373027519780
H           -6.17253568650455        3.55863745807527       -0.11773860076885
H           -3.52409217699235        4.20357599032360       -0.35821054624902
H           -1.05297468760397        4.17737599566641       -0.45718564427361
H            3.20056185545902        4.18770270354938       -0.69980497878661
H            5.65632261201305        4.26420265178579       -0.82459055440793
H            7.82515089144068        3.12897254421379       -0.66301143083931
H            9.15924300835180        1.10095194335718       -0.24988940204778
H            9.28293844963948       -1.29915821083824        0.31043966933789
H            8.15216893768571       -3.41574997851344        0.86348077666139
H            5.69375153337142       -3.51655638345859        1.00092660355758
H            3.50718316418530       -2.38800084023501        0.84052648302310
H            2.17556852153834       -0.35769438828132        0.40824226826213
H           -0.98422146346142       -0.04356546354928        0.33273968337157

 projected vibrational frequencies (cm⁻¹)
eigval :       -0.00    -0.00    -0.00    -0.00     0.00     0.00
eigval :       11.23    12.55    15.31    28.11    34.29    38.52
eigval :       40.50    57.18    64.73    68.02    71.66    92.70
eigval :       96.24    99.22   117.33   124.17   131.01   149.86
eigval :      153.56   157.79   164.55   190.53   201.11   203.15
eigval :      217.77   233.91   237.64   244.41   264.06   267.20
eigval :      305.54   308.86   317.61   331.54   352.39   356.24
eigval :      363.07   389.49   392.23   412.39   422.85   424.02
eigval :      428.57   430.89   446.70   450.27   451.87   461.56
eigval :      472.21   474.42   487.05   494.72   501.95   519.52
eigval :      535.87   556.22   564.35   571.42   581.67   584.67
eigval :      604.16   619.78   623.26   653.76   666.79   668.32
eigval :      675.01   688.96   705.31   722.39   733.96   749.96
eigval :      750.91   751.11   771.52   778.62   800.17   805.52
eigval :      807.76   811.14   817.92   819.80   821.57   835.40
eigval :      842.38   848.51   853.10   865.87   885.71   887.72
eigval :      903.18   906.16   906.54   914.55   926.79   933.43
eigval :      943.39   958.05   978.24   984.07  1007.62  1013.03
eigval :     1018.45  1048.65  1062.18  1083.38  1090.51  1101.80
eigval :     1115.66  1116.98  1122.14  1132.41  1135.92  1145.63
eigval :     1149.90  1153.07  1159.17  1162.82  1164.11  1183.37
eigval :     1192.28  1196.61  1207.27  1209.49  1223.98  1227.13
eigval :     1230.94  1240.37  1243.47  1250.67  1271.94  1278.85
eigval :     1280.43  1285.50  1288.60  1298.34  1305.05  1313.42
eigval :     1316.18  1330.68  1337.66  1340.22  1347.75  1353.40
eigval :     1355.32  1358.45  1361.81  1364.95  1377.03  1380.60
eigval :     1387.85  1402.84  1410.43  1417.88  1419.44  1435.40
eigval :     1449.55  1457.17  1462.61  1472.07  1486.34  1486.68
eigval :     1489.59  1493.37  1497.26  1498.92  1502.70  1503.35
eigval :     1504.12  1507.96  1508.38  1509.28  1517.57  1518.60
eigval :     1527.02  1549.95  1564.91  1581.14  1584.71  2147.25
eigval :     2361.31  2933.95  2949.76  2954.42  2965.01  2969.23
eigval :     2972.42  2973.97  2981.89  2982.90  2985.99  2996.33
eigval :     3023.65  3027.54  3030.83  3036.71  3036.92  3044.15
eigval :     3069.43  3070.63  3072.40  3078.24  3081.38  3083.37
eigval :     3083.53  3085.42  3088.03  3088.86  3089.14  3092.12
eigval :     3095.04  3095.78  3099.42

   temp. (K)  partition function   enthalpy   heat capacity  entropy
                                   cal/mol     cal/K/mol   cal/K/mol   J/K/mol
 298.15  VIB  0.287E+17            20986.885    129.422    131.451
         ROT  0.644E+08              888.752      2.981     38.714
         INT  0.185E+25            21875.637    132.403    170.164
         TR   0.118E+29             1481.254      4.968     44.661
         TOT                       23356.8909   137.3710   214.8259   898.8314

       T/K    H(0)-H(T)+PV         H(T)/Eh          T*S/Eh         G(T)/Eh
   ------------------------------------------------------------------------
    298.15    0.372216E-01    0.618447E+00    0.102071E+00    0.516377E+00
   ------------------------------------------------------------------------

         :::::::::::::::::::::::::::::::::::::::::::::::::::::
         ::                  THERMODYNAMIC                  ::
         :::::::::::::::::::::::::::::::::::::::::::::::::::::
         :: total free energy        -105.107588188484 Eh   ::
         ::.................................................::
         :: total energy             -105.623964693926 Eh   ::
         :: zero point energy           0.581225634599 Eh   ::
         :: G(RRHO) w/o ZPVE           -0.064849129157 Eh   ::
         :: G(RRHO) contrib.            0.516376505441 Eh   ::
         :::::::::::::::::::::::::::::::::::::::::::::::::::::

           -------------------------------------------------
          | TOTAL ENERGY             -105.623964693926 Eh   |
          | TOTAL ENTHALPY           -105.005517484450 Eh   |
          | TOTAL FREE ENERGY        -105.107588188484 Eh   |
          | GRADIENT NORM               0.000100210945 Eh/α |
           -------------------------------------------------

 * finished run on 2025/08/21 at 16:27:33.145
