   * xtb version 6.7.1 (edcfbbe) compiled by 'albert@albert-system' on 2024-07-22

   ID    Z sym.   atoms
    1    6 C      1-8, 10-13, 15-41
    2    7 N      9, 14
    3    1 H      42-73

          program call               : xtb data2507/gas/P3C/P3C.xyz --gfn 2 --ohess vtight --parallel 40 --molden --ceasefiles --namespace data2507/gas/P3C/P3C_gas_S0_preOpt
          :  Hamiltonian                  GFN2-xTB          :
 * total energy  :  -105.6669623 Eh     change       -0.8745090E-08 Eh
 * total energy  :  -105.6787183 Eh     change       -0.1175604E-01 Eh
 * total energy  :  -105.6814222 Eh     change       -0.2703867E-02 Eh
 * total energy  :  -105.6818817 Eh     change       -0.4594810E-03 Eh
 * total energy  :  -105.6816338 Eh     change        0.2478710E-03 Eh
 * total energy  :  -105.6821149 Eh     change       -0.4810524E-03 Eh
 * total energy  :  -105.6821443 Eh     change       -0.2944633E-04 Eh
 * total energy  :  -105.6821181 Eh     change        0.2623539E-04 Eh
 * total energy  :  -105.6821644 Eh     change       -0.4632298E-04 Eh
 * total energy  :  -105.6821908 Eh     change       -0.2645283E-04 Eh
 * total energy  :  -105.6835948 Eh     change       -0.1034928E-06 Eh
 * total energy  :  -105.6835949 Eh     change       -0.1145517E-06 Eh
 * total energy  :  -105.6835950 Eh     change       -0.1454210E-06 Eh
 * total energy  :  -105.6835952 Eh     change       -0.1338799E-06 Eh
 * total energy  :  -105.6835953 Eh     change       -0.1176850E-06 Eh
 * total energy  :  -105.6835955 Eh     change       -0.2266863E-06 Eh
 * total energy  :  -105.6835957 Eh     change       -0.2170098E-06 Eh
 * total energy  :  -105.6835959 Eh     change       -0.1299795E-06 Eh
 * total energy  :  -105.6835959 Eh     change       -0.4146841E-08 Eh
   *** GEOMETRY OPTIMIZATION CONVERGED AFTER 232 ITERATIONS ***

 final structure:
================
73
 xtb: 6.7.1 (edcfbbe)
C           -2.20863302206517        5.47318564927979       -0.94169916773533
C           -2.53751366167219        4.39018122987527       -1.96282081310017
C           -3.21322248484303        3.16332607285458       -1.34691243291232
C           -2.27404787152206        2.37421797230233       -0.43605344146647
C           -2.86000076073587        1.07379413326238        0.13089378677919
C           -4.13594003898943        1.27576101431326        0.95570059155546
C           -3.93492103335632        2.17919898583060        2.16655881342889
C           -3.11053873416558        0.05063052636484       -0.99357301292835
N           -3.29007495458961       -1.28268160786593       -0.48593633081775
C           -4.48003343264822       -1.93933218925593       -0.29796413880515
C           -5.77235781347404       -1.53112456926939       -0.58292996872318
C           -6.80905684039282       -2.41521530511603       -0.29442740585449
C           -8.13799431471650       -2.02727210698798       -0.57231250320304
N           -9.21659266460476       -1.70876460750904       -0.79880033996911
C           -6.56723067436709       -3.67994850586073        0.26637595694699
C           -5.28124730333570       -4.08322691881894        0.54737082339823
C           -4.22840201400292       -3.21856019938198        0.26806003745876
C           -2.81054561139989       -3.31545359173462        0.42973579844116
C           -1.96589539591968       -4.30695997517582        0.92114496122817
C           -0.61042162956985       -4.07613408681524        0.93688388063359
C           -0.07694368618819       -2.86223155574080        0.46605557674227
C            1.31518686988480       -2.65195596763350        0.49833396276297
C            2.50700417457652       -2.44619746711663        0.52073034256103
C            3.89462461141538       -2.22189620415941        0.54830936785110
C            4.75566479550591       -3.26754734622619        0.89381733669333
C            6.11864935627397       -3.07941486867600        0.92496157747166
C            6.68022837280572       -1.83697823570494        0.61304479172904
C            8.08621873890191       -1.61367353838401        0.63605058631757
C            8.61073835059532       -0.40313905662637        0.33194227233028
C            7.77542994077519        0.69638676075921       -0.02277282764765
C            8.29425002724012        1.95322657634962       -0.33875545236303
C            7.45506224741415        2.99883078843576       -0.67784243296998
C            6.08454816736666        2.81948066143762       -0.71073574097529
C            5.52064718628476        1.57989142421534       -0.40281873915865
C            4.11333320348067        1.35720583142275       -0.42568841048532
C            3.58815143091293        0.14622277464837       -0.12381152574130
C            4.42144373453194       -0.95273566572916        0.22905044797004
C            5.82322173907021       -0.76366449303845        0.26279988775472
C            6.37214505456484        0.50283757581376       -0.05414137342578
C           -0.90732426859595       -1.85878830965270       -0.03026122547454
C           -2.27137781145517       -2.09356799904644       -0.04455613410835
H           -1.81132674472597        6.35338911948132       -1.44185685481040
H           -3.10335369279624        5.76571388469337       -0.39606443633369
H           -1.46560868197248        5.12834794740220       -0.22731775646874
H           -1.62189370579914        4.08134974956806       -2.47267915733143
H           -3.20720930436125        4.81158936093566       -2.71617604409004
H           -4.08755963474502        3.49263849446879       -0.78373008476240
H           -3.55848074427890        2.51960147623327       -2.15839975577201
H           -1.96973393924123        3.00396093102316        0.39962031988094
H           -1.36943638918200        2.12556131786364       -0.99864342778707
H           -2.10117912176069        0.64384429502569        0.79672046383834
H           -4.92444794000058        1.68657510094834        0.32247175076743
H           -4.47429298330234        0.29750267143217        1.30648408349421
H           -3.11399744416613        1.81617165379814        2.78151745025946
H           -3.71630849199433        3.20017815495994        1.86541549363748
H           -4.83659462609699        2.19283937828762        2.77436089351019
H           -4.00138091502664        0.32382911618450       -1.56143105080210
H           -2.25722845304519        0.04489087566277       -1.68018414696448
H           -5.99317725123351       -0.56476396155340       -1.01032771728840
H           -7.40570187905123       -4.32804037012350        0.47248562734218
H           -5.09026697712052       -5.05448979243026        0.97750463177286
H           -2.37172286592045       -5.23976629283487        1.28250628517670
H            0.06854129731040       -4.82633026846338        1.31381636858868
H            4.33221511074654       -4.23189812395215        1.13572928955622
H            6.77071095953168       -3.89860611512338        1.19302608406228
H            8.72780316819880       -2.44135366002124        0.90434626446198
H            9.67968643457370       -0.24399625332917        0.35219591117040
H            9.36434025205198        2.10232579621185       -0.31556542878247
H            7.87452694146926        3.96492336231130       -0.91920206606879
H            5.43576425164227        3.64195600971199       -0.97649424951597
H            3.47154519847271        2.18557150977444       -0.69147125876538
H            2.51994611575584       -0.01644884777599       -0.14154532317866
H           -0.48041092305594       -0.93497912595134       -0.39012154097313

          :  Hamiltonian                  GFN2-xTB          :
         :: gradient norm              0.000134136469 Eh/a0 ::
         :: HOMO-LUMO gap              1.994657391115 eV    ::
         :: SCC energy              -107.697436291343 Eh    ::
         :: -> dispersion             -0.090285322392 Eh    ::
         :: repulsion energy           2.013840428547 Eh    ::

    * Orbital Energies and Occupations

         #    Occupation            Energy/Eh            Energy/eV
      -------------------------------------------------------------
         1        2.0000           -0.6875757             -18.7099
       ...           ...                  ...                  ...
        87        2.0000           -0.4269828             -11.6188
        88        2.0000           -0.4256527             -11.5826
        89        2.0000           -0.4173285             -11.3561
        90        2.0000           -0.4152657             -11.3000
        91        2.0000           -0.4132322             -11.2446
        92        2.0000           -0.4116329             -11.2011
        93        2.0000           -0.4100293             -11.1575
        94        2.0000           -0.4089376             -11.1278
        95        2.0000           -0.4016634             -10.9298
        96        2.0000           -0.3955476             -10.7634
        97        2.0000           -0.3846101             -10.4658
        98        2.0000           -0.3743790             -10.1874
        99        2.0000           -0.3614624              -9.8359 (HOMO)
       100                         -0.2881601              -7.8412 (LUMO)
       101                         -0.2703801              -7.3574
       102                         -0.2472153              -6.7271
       103                         -0.2349673              -6.3938
       104                         -0.2311498              -6.2899
       105                         -0.2242523              -6.1022
       106                         -0.2137553              -5.8166
       107                         -0.2001176              -5.4455
       108                         -0.1982972              -5.3959
       109                         -0.1852908              -5.0420
       110                         -0.1610883              -4.3834
       ...                                ...                  ...
       196                          1.4261620              38.8078
      -------------------------------------------------------------
                  HL-Gap            0.0733023 Eh            1.9947 eV

     #   Z          covCN         q      C6AA      α(0)
     1   6 C        3.751    -0.102    22.515     6.767
     2   6 C        3.800    -0.053    21.532     6.607
     3   6 C        3.801    -0.059    21.638     6.623
     4   6 C        3.803    -0.063    21.709     6.633
     5   6 C        3.850    -0.024    20.973     6.514
     6   6 C        3.802    -0.054    21.549     6.609
     7   6 C        3.751    -0.102    22.513     6.767
     8   6 C        3.743    -0.003    20.703     6.491
     9   7 N        2.795    -0.048    22.173     6.994
    10   6 C        3.081     0.049    26.819     8.490
    11   6 C        2.919    -0.044    29.100     8.846
    12   6 C        2.977     0.012    27.731     8.638
    13   6 C        1.915     0.111    28.362     8.601
    14   7 N        0.911    -0.245    26.386     7.429
    15   6 C        2.927    -0.034    28.856     8.809
    16   6 C        2.911    -0.031    28.770     8.795
    17   6 C        3.071    -0.014    28.276     8.719
    18   6 C        3.068    -0.019    28.409     8.740
    19   6 C        2.910    -0.031    28.770     8.795
    20   6 C        2.927    -0.040    28.991     8.830
    21   6 C        2.975     0.036    27.189     8.553
    22   6 C        1.985    -0.043    32.209     9.165
    23   6 C        1.983    -0.039    32.091     9.148
    24   6 C        2.970     0.029    27.345     8.578
    25   6 C        2.923    -0.031    28.766     8.795
    26   6 C        2.918    -0.036    28.907     8.817
    27   6 C        2.982     0.011    27.766     8.644
    28   6 C        2.913    -0.036    28.892     8.814
    29   6 C        2.913    -0.036    28.887     8.813
    30   6 C        2.982     0.012    27.747     8.641
    31   6 C        2.920    -0.036    28.908     8.817
    32   6 C        2.913    -0.030    28.748     8.792
    33   6 C        2.920    -0.037    28.913     8.818
    34   6 C        2.982     0.012    27.752     8.641
    35   6 C        2.914    -0.036    28.906     8.816
    36   6 C        2.913    -0.034    28.858     8.809
    37   6 C        2.988     0.010    27.791     8.647
    38   6 C        2.995     0.003    27.943     8.671
    39   6 C        2.998     0.003    27.948     8.672
    40   6 C        2.920    -0.052    29.303     8.877
    41   6 C        3.085     0.048    26.838     8.492
    42   1 H        0.925     0.033     2.541     2.493
    43   1 H        0.925     0.034     2.527     2.486
    44   1 H        0.925     0.034     2.530     2.488
    45   1 H        0.924     0.029     2.602     2.522
    46   1 H        0.924     0.030     2.582     2.513
    47   1 H        0.924     0.037     2.484     2.465
    48   1 H        0.924     0.025     2.652     2.547
    49   1 H        0.925     0.045     2.389     2.417
    50   1 H        0.924     0.028     2.615     2.529
    51   1 H        0.924     0.037     2.495     2.470
    52   1 H        0.924     0.033     2.549     2.497
    53   1 H        0.924     0.031     2.577     2.510
    54   1 H        0.925     0.034     2.536     2.490
    55   1 H        0.925     0.039     2.463     2.454
    56   1 H        0.925     0.036     2.503     2.474
    57   1 H        0.924     0.050     2.323     2.384
    58   1 H        0.924     0.048     2.351     2.398
    59   1 H        0.926     0.034     2.536     2.490
    60   1 H        0.926     0.037     2.493     2.469
    61   1 H        0.926     0.037     2.492     2.468
    62   1 H        0.926     0.032     2.553     2.499
    63   1 H        0.926     0.033     2.546     2.495
    64   1 H        0.926     0.032     2.559     2.502
    65   1 H        0.926     0.030     2.582     2.513
    66   1 H        0.926     0.031     2.575     2.509
    67   1 H        0.926     0.031     2.573     2.508
    68   1 H        0.926     0.031     2.574     2.509
    69   1 H        0.926     0.030     2.587     2.515
    70   1 H        0.926     0.030     2.582     2.513
    71   1 H        0.926     0.029     2.596     2.520
    72   1 H        0.926     0.032     2.554     2.499
    73   1 H        0.926     0.029     2.602     2.522

molecular dipole:
                 x           y           z       tot (Debye)
 q only:        1.643       0.593       0.104
   full:        2.073       0.501       0.133       5.432

 projected vibrational frequencies (cm⁻¹)
eigval :       -0.00    -0.00    -0.00     0.00     0.00     0.00
eigval :        5.81     8.68    14.38    17.41    24.83    33.31
eigval :       36.67    40.85    56.70    65.30    70.71    90.57
eigval :      104.56   107.36   115.69   124.07   149.75   154.35
eigval :      161.33   170.10   171.59   196.10   202.03   212.75
eigval :      231.34   236.73   239.53   259.47   272.68   285.89
eigval :      295.60   312.33   329.66   338.98   351.54   362.22
eigval :      367.80   393.07   407.23   415.35   420.09   430.45
eigval :      433.65   443.05   455.47   463.76   465.46   474.59
eigval :      478.38   482.35   498.58   509.48   509.62   537.15
eigval :      548.96   566.79   576.48   581.33   582.11   598.73
eigval :      608.33   628.05   650.66   657.51   671.26   679.22
eigval :      683.72   695.54   710.09   727.17   752.58   755.76
eigval :      755.98   772.39   773.65   802.22   809.98   812.82
eigval :      817.40   818.55   821.83   833.92   849.31   849.57
eigval :      852.97   853.64   865.51   885.60   905.01   908.03
eigval :      911.54   919.55   919.76   920.09   926.02   933.34
eigval :      945.83   951.29   982.31   988.49   994.44  1013.41
eigval :     1033.98  1046.05  1057.56  1073.04  1079.23  1098.50
eigval :     1110.09  1122.96  1127.90  1135.13  1145.89  1155.39
eigval :     1159.18  1159.74  1169.21  1170.98  1179.87  1189.39
eigval :     1196.35  1201.88  1211.55  1219.03  1223.93  1232.31
eigval :     1237.02  1242.01  1250.27  1261.17  1263.44  1282.97
eigval :     1285.05  1293.78  1299.54  1312.67  1313.32  1314.48
eigval :     1323.94  1337.03  1350.30  1352.72  1354.63  1357.00
eigval :     1358.94  1365.00  1378.36  1379.73  1388.81  1398.29
eigval :     1413.19  1416.24  1417.88  1418.84  1439.95  1443.74
eigval :     1452.47  1464.32  1473.41  1476.27  1488.61  1489.96
eigval :     1490.33  1495.67  1499.86  1503.66  1503.83  1507.43
eigval :     1511.26  1516.78  1531.71  1545.56  1560.95  1574.28
eigval :     1576.42  1590.89  1598.62  1602.63  1604.55  2302.01
eigval :     2370.52  2917.56  2937.47  2953.41  2964.86  2968.17
eigval :     2973.46  2982.83  2986.61  2991.67  2995.86  3007.46
eigval :     3030.60  3031.02  3035.99  3037.66  3045.45  3047.43
eigval :     3065.31  3066.74  3069.91  3071.83  3075.53  3079.54
eigval :     3083.81  3084.15  3085.45  3087.29  3088.61  3089.93
eigval :     3090.61  3096.42  3099.91

   temp. (K)  partition function   enthalpy   heat capacity  entropy
                                   cal/mol     cal/K/mol   cal/K/mol   J/K/mol
 298.15  VIB  0.178E+18            20733.608    127.028    130.778
         ROT  0.727E+08              888.752      2.981     38.955
         INT  0.130E+26            21622.360    130.008    169.733
         TR   0.118E+29             1481.254      4.968     44.661
         TOT                       23103.6143   134.9766   214.3944   897.0260

       T/K    H(0)-H(T)+PV         H(T)/Eh          T*S/Eh         G(T)/Eh
   ------------------------------------------------------------------------
    298.15    0.368180E-01    0.621690E+00    0.101866E+00    0.519824E+00
   ------------------------------------------------------------------------

         :::::::::::::::::::::::::::::::::::::::::::::::::::::
         ::                  THERMODYNAMIC                  ::
         :::::::::::::::::::::::::::::::::::::::::::::::::::::
         :: total free energy        -105.163771635203 Eh   ::
         ::.................................................::
         :: total energy             -105.683595862792 Eh   ::
         :: zero point energy           0.584871949653 Eh   ::
         :: G(RRHO) w/o ZPVE           -0.065047722063 Eh   ::
         :: G(RRHO) contrib.            0.519824227590 Eh   ::
         :::::::::::::::::::::::::::::::::::::::::::::::::::::

           -------------------------------------------------
          | TOTAL ENERGY             -105.683595862792 Eh   |
          | TOTAL ENTHALPY           -105.061905960215 Eh   |
          | TOTAL FREE ENERGY        -105.163771635203 Eh   |
          | GRADIENT NORM               0.000134160182 Eh/α |
          | HOMO-LUMO GAP               1.994657307430 eV   |
           -------------------------------------------------

 * finished run on 2025/08/21 at 16:07:59.000
