   * xtb version 6.7.1 (edcfbbe) compiled by 'albert@albert-system' on 2024-07-22

   ID    Z sym.   atoms
    1    6 C      1-8, 10-13, 15-41
    2    7 N      9, 14
    3    1 H      42-73

          program call               : xtb data2507/gas/P3C/P3C_gas_S0_crest.xyz --gfn 2 --ohess vtight --parallel 40 --molden --ceasefiles --namespace data2507/gas/P3C/P3C_gas_S0_finalOpt
          :  Hamiltonian                  GFN2-xTB          :
 * total energy  :  -105.6866859 Eh     change       -0.1551314E-08 Eh
 * total energy  :  -105.6866871 Eh     change       -0.1193222E-05 Eh
 * total energy  :  -105.6866897 Eh     change       -0.2643145E-05 Eh
 * total energy  :  -105.6866918 Eh     change       -0.2031402E-05 Eh
 * total energy  :  -105.6866942 Eh     change       -0.2400437E-05 Eh
 * total energy  :  -105.6866977 Eh     change       -0.3546813E-05 Eh
 * total energy  :  -105.6867019 Eh     change       -0.4203843E-05 Eh
 * total energy  :  -105.6867057 Eh     change       -0.3781910E-05 Eh
 * total energy  :  -105.6867103 Eh     change       -0.4579219E-05 Eh
 * total energy  :  -105.6867158 Eh     change       -0.5564650E-05 Eh
 * total energy  :  -105.6867615 Eh     change       -0.2804214E-06 Eh
 * total energy  :  -105.6867618 Eh     change       -0.2668946E-06 Eh
 * total energy  :  -105.6867620 Eh     change       -0.2273217E-06 Eh
 * total energy  :  -105.6867622 Eh     change       -0.2083868E-06 Eh
 * total energy  :  -105.6867625 Eh     change       -0.2149953E-06 Eh
 * total energy  :  -105.6867627 Eh     change       -0.2134392E-06 Eh
 * total energy  :  -105.6867629 Eh     change       -0.2190161E-06 Eh
 * total energy  :  -105.6867631 Eh     change       -0.2217204E-06 Eh
 * total energy  :  -105.6867631 Eh     change       -0.1009496E-08 Eh
   *** GEOMETRY OPTIMIZATION CONVERGED AFTER 44 ITERATIONS ***

 final structure:
================
73
 xtb: 6.7.1 (edcfbbe)
C            1.32432545729569       -4.47430124117680        0.56790090127115
C           -0.13886535487350       -4.65860436549951        0.18604726131904
C           -0.84049199519438       -3.31916919906201       -0.02763590826257
C           -2.29963265251069       -3.50412070135237       -0.44089211085015
C           -3.02846036960717       -2.18261100165920       -0.71077144057995
C           -4.27042219386127       -2.38580801292339       -1.58808819628490
C           -3.93234107627407       -2.63028987703781       -3.05399524169485
C           -3.42463810123458       -1.51839435329246        0.62124430435639
N           -3.81383715355371       -0.14448667459718        0.45464990273713
C           -5.09053336655441        0.35641351174986        0.41551806967814
C           -6.30313153664428       -0.29168286303704        0.58351211980998
C           -7.46340165448363        0.47436119186396        0.50242549086726
C           -8.71533527550814       -0.15771421359671        0.66654349675332
N           -9.73128070220662       -0.67378403989140        0.79948118405226
C           -7.42062683897552        1.85713144819610        0.26004960618480
C           -6.21369823187134        2.49883715396361        0.09630461961891
C           -5.04040105168510        1.75614132941747        0.17303796656324
C           -3.65586791523357        2.09529842093206        0.05573712451110
C           -2.97548825938548        3.28746474746969       -0.17678610743088
C           -1.60160128360639        3.26783856415770       -0.22929039432502
C           -0.88666454516527        2.06924754564150       -0.04884796550164
C            0.52034014810523        2.08151890408854       -0.10725788197923
C            1.72901633114967        2.07092983249678       -0.15490268446936
C            3.13341557614623        2.08226225100706       -0.21845178269576
C            3.79675835388748        3.27208028049793       -0.53296472171283
C            5.17014504021716        3.31724148745656       -0.60729996671350
C            5.94058528809498        2.17429491367907       -0.36985276614403
C            7.36248239835267        2.19101371301734       -0.44141854775524
C            8.09143118860965        1.07420852824577       -0.20816467720188
C            7.46343718665187       -0.16290069713913        0.11976673326037
C            8.19431548311347       -1.32666571219037        0.36507450276836
C            7.55285947622922       -2.51027663245910        0.68171454127733
C            6.17366628393988       -2.56397825773812        0.76238399696749
C            5.40183529495860       -1.42502852064420        0.52501871455683
C            3.97910167577727       -1.44223575303892        0.59967359185751
C            3.24851711111516       -0.32749107259540        0.36093749040272
C            3.87428766733381        0.90790199645697        0.03045400006690
C            5.28633915534576        0.95903011549846       -0.04709435383699
C            6.04948920062984       -0.20841637694234        0.19869172674284
C           -1.55094728938501        0.86653065341921        0.18498233208990
C           -2.93417522756291        0.88872541114012        0.23335497333225
H            1.80526077984594       -5.43779501871656        0.71997238779507
H            1.85643899021286       -3.94458036446808       -0.21990851490747
H            1.40745980048688       -3.90003367988648        1.48886698095821
H           -0.65383304383191       -5.21410534339457        0.97321120523243
H           -0.20188005317351       -5.24906801375657       -0.73071681731463
H           -0.77763008419032       -2.74050294981824        0.89693324066281
H           -0.31446129800963       -2.76041455930220       -0.80602832067477
H           -2.83338800055736       -4.05734861242350        0.33606422294921
H           -2.32008379648978       -4.11291275162191       -1.34569983343001
H           -2.34721027891389       -1.50545635662180       -1.23780059021555
H           -4.85166917916861       -3.22585348232377       -1.20007739585347
H           -4.89601961581919       -1.49244878755109       -1.52971363344989
H           -4.84491486156830       -2.74187583367231       -3.63446834699582
H           -3.37006975390565       -1.79118393924460       -3.45839150506153
H           -3.33931443563099       -3.53240398114660       -3.18139302287282
H           -4.25459483262814       -2.06654662665122        1.07234563833372
H           -2.58088188831891       -1.55084798479720        1.31695123820423
H           -6.37143150646406       -1.35321949731494        0.76840935815176
H           -8.34874950759269        2.40585177254142        0.20515278247683
H           -6.17563865138821        3.56149809387055       -0.08848345853572
H           -3.52047523704762        4.20937798609292       -0.31273035287528
H           -1.04743003230079        4.17694920903242       -0.40904013251316
H            3.21066902517236        4.16078413063993       -0.71876401915658
H            5.66744621254488        4.24501284449830       -0.85232378653787
H            7.84767699939913        3.12487093678893       -0.68875669229528
H            9.17057499985624        1.09751724952476       -0.26551771058580
H            9.27281785420278       -1.29368134917896        0.30488717990315
H            8.13522542030515       -3.40115045535817        0.86806401826815
H            5.67938297948588       -3.49246678920221        1.01072550998230
H            3.49632416117185       -2.37464779307037        0.85449679073413
H            2.16948752825162       -0.34789135467617        0.41805559716497
H           -0.98647078620066       -0.04321139689411        0.32084466104963

          :  Hamiltonian                  GFN2-xTB          :
         :: gradient norm              0.000045551781 Eh/a0 ::
         :: HOMO-LUMO gap              1.992045883029 eV    ::
         :: SCC energy              -107.700645290504 Eh    ::
         :: -> dispersion             -0.091300577329 Eh    ::
         :: repulsion energy           2.013882182183 Eh    ::

    * Orbital Energies and Occupations

         #    Occupation            Energy/Eh            Energy/eV
      -------------------------------------------------------------
         1        2.0000           -0.6875514             -18.7092
       ...           ...                  ...                  ...
        87        2.0000           -0.4290310             -11.6745
        88        2.0000           -0.4266601             -11.6100
        89        2.0000           -0.4172283             -11.3534
        90        2.0000           -0.4149856             -11.2923
        91        2.0000           -0.4131954             -11.2436
        92        2.0000           -0.4115140             -11.1979
        93        2.0000           -0.4097483             -11.1498
        94        2.0000           -0.4086953             -11.1212
        95        2.0000           -0.4013378             -10.9210
        96        2.0000           -0.3954346             -10.7603
        97        2.0000           -0.3845348             -10.4637
        98        2.0000           -0.3742428             -10.1837
        99        2.0000           -0.3612255              -9.8294 (HOMO)
       100                         -0.2880192              -7.8374 (LUMO)
       101                         -0.2702630              -7.3542
       102                         -0.2470356              -6.7222
       103                         -0.2348968              -6.3919
       104                         -0.2310503              -6.2872
       105                         -0.2239782              -6.0948
       106                         -0.2136504              -5.8137
       107                         -0.1998084              -5.4371
       108                         -0.1982829              -5.3956
       109                         -0.1849057              -5.0315
       110                         -0.1611035              -4.3838
       ...                                ...                  ...
       196                          1.4262967              38.8115
      -------------------------------------------------------------
                  HL-Gap            0.0732063 Eh            1.9920 eV

     #   Z          covCN         q      C6AA      α(0)
     1   6 C        3.752    -0.100    22.478     6.761
     2   6 C        3.801    -0.054    21.536     6.607
     3   6 C        3.802    -0.056    21.586     6.615
     4   6 C        3.805    -0.066    21.753     6.640
     5   6 C        3.851    -0.026    20.993     6.517
     6   6 C        3.803    -0.057    21.601     6.617
     7   6 C        3.751    -0.102    22.510     6.766
     8   6 C        3.744    -0.003    20.711     6.492
     9   7 N        2.795    -0.048    22.163     6.992
    10   6 C        3.081     0.049    26.820     8.490
    11   6 C        2.919    -0.045    29.113     8.848
    12   6 C        2.977     0.012    27.734     8.638
    13   6 C        1.915     0.111    28.364     8.601
    14   7 N        0.911    -0.245    26.384     7.429
    15   6 C        2.927    -0.034    28.857     8.810
    16   6 C        2.911    -0.031    28.769     8.795
    17   6 C        3.071    -0.014    28.276     8.719
    18   6 C        3.068    -0.019    28.410     8.740
    19   6 C        2.910    -0.031    28.771     8.795
    20   6 C        2.927    -0.040    28.993     8.830
    21   6 C        2.975     0.036    27.192     8.554
    22   6 C        1.985    -0.043    32.214     9.166
    23   6 C        1.983    -0.039    32.094     9.149
    24   6 C        2.970     0.029    27.349     8.578
    25   6 C        2.923    -0.031    28.769     8.796
    26   6 C        2.918    -0.037    28.909     8.817
    27   6 C        2.982     0.011    27.768     8.644
    28   6 C        2.913    -0.036    28.893     8.814
    29   6 C        2.913    -0.036    28.887     8.813
    30   6 C        2.982     0.012    27.749     8.641
    31   6 C        2.920    -0.037    28.909     8.817
    32   6 C        2.914    -0.030    28.750     8.792
    33   6 C        2.920    -0.037    28.919     8.819
    34   6 C        2.982     0.011    27.758     8.642
    35   6 C        2.914    -0.038    28.944     8.822
    36   6 C        2.912    -0.035    28.861     8.809
    37   6 C        2.988     0.010    27.793     8.648
    38   6 C        2.995     0.003    27.946     8.672
    39   6 C        2.998     0.003    27.951     8.672
    40   6 C        2.920    -0.053    29.316     8.879
    41   6 C        3.086     0.048    26.837     8.492
    42   1 H        0.925     0.034     2.531     2.488
    43   1 H        0.925     0.035     2.511     2.478
    44   1 H        0.925     0.033     2.551     2.498
    45   1 H        0.924     0.030     2.592     2.518
    46   1 H        0.924     0.030     2.584     2.514
    47   1 H        0.924     0.025     2.655     2.548
    48   1 H        0.924     0.032     2.555     2.500
    49   1 H        0.924     0.030     2.580     2.512
    50   1 H        0.924     0.043     2.414     2.430
    51   1 H        0.924     0.041     2.435     2.440
    52   1 H        0.924     0.032     2.565     2.505
    53   1 H        0.924     0.034     2.527     2.486
    54   1 H        0.925     0.037     2.485     2.465
    55   1 H        0.925     0.035     2.518     2.482
    56   1 H        0.925     0.035     2.512     2.478
    57   1 H        0.924     0.048     2.339     2.392
    58   1 H        0.924     0.050     2.326     2.385
    59   1 H        0.926     0.033     2.538     2.491
    60   1 H        0.926     0.037     2.494     2.470
    61   1 H        0.926     0.037     2.492     2.469
    62   1 H        0.926     0.032     2.556     2.500
    63   1 H        0.926     0.033     2.549     2.497
    64   1 H        0.926     0.032     2.562     2.503
    65   1 H        0.926     0.030     2.585     2.514
    66   1 H        0.926     0.031     2.577     2.510
    67   1 H        0.926     0.031     2.575     2.509
    68   1 H        0.926     0.031     2.576     2.510
    69   1 H        0.926     0.030     2.589     2.516
    70   1 H        0.926     0.031     2.579     2.511
    71   1 H        0.926     0.032     2.552     2.498
    72   1 H        0.926     0.033     2.548     2.496
    73   1 H        0.926     0.031     2.575     2.510

molecular dipole:
                 x           y           z       tot (Debye)
 q only:        1.756      -0.278      -0.216
   full:        2.155      -0.135      -0.219       5.516

 projected vibrational frequencies (cm⁻¹)
eigval :       -0.00    -0.00    -0.00     0.00     0.00     0.00
eigval :        8.87    12.63    14.73    28.39    35.68    37.74
eigval :       40.88    57.38    65.72    69.40    71.94    90.94
eigval :       92.86    99.47   123.14   124.22   131.00   150.17
eigval :      155.40   158.96   165.99   201.39   202.71   213.05
eigval :      217.82   234.07   237.97   239.92   267.14   272.89
eigval :      305.92   312.38   325.63   335.17   352.53   357.94
eigval :      366.63   393.25   407.28   415.63   423.68   430.91
eigval :      434.35   447.13   455.29   463.92   465.70   474.56
eigval :      475.56   478.67   488.48   498.82   509.75   520.06
eigval :      538.53   566.39   573.28   577.71   582.08   598.72
eigval :      608.19   625.50   650.77   653.46   671.32   678.90
eigval :      683.86   690.99   710.06   727.10   752.48   754.50
eigval :      756.05   771.59   773.00   802.39   810.18   811.64
eigval :      817.48   821.09   822.31   835.63   849.57   851.33
eigval :      854.69   856.44   868.58   885.95   905.04   908.12
eigval :      911.60   919.98   921.06   926.17   931.17   937.69
eigval :      944.53   960.86   984.72   994.56  1008.57  1013.58
eigval :     1019.51  1054.65  1073.12  1083.53  1090.65  1101.97
eigval :     1110.18  1116.07  1127.27  1134.89  1145.78  1153.36
eigval :     1156.85  1159.02  1159.71  1168.94  1178.89  1185.37
eigval :     1196.31  1201.44  1211.01  1223.78  1224.93  1232.23
eigval :     1236.87  1242.05  1251.00  1261.31  1272.50  1279.80
eigval :     1283.29  1286.38  1295.92  1301.70  1312.68  1313.46
eigval :     1316.20  1337.14  1338.80  1350.25  1355.88  1356.80
eigval :     1358.90  1365.37  1377.27  1380.11  1388.81  1398.14
eigval :     1413.24  1418.53  1419.01  1420.02  1439.91  1443.78
eigval :     1452.63  1461.47  1473.37  1476.09  1487.17  1488.58
eigval :     1493.79  1497.55  1499.54  1503.73  1503.84  1504.32
eigval :     1508.50  1508.94  1531.68  1545.41  1560.98  1574.05
eigval :     1576.40  1590.68  1598.51  1602.47  1604.52  2301.95
eigval :     2370.40  2934.94  2950.50  2954.69  2964.93  2969.00
eigval :     2972.95  2974.20  2981.96  2983.01  2985.82  2996.81
eigval :     3024.04  3028.10  3031.34  3036.87  3037.13  3044.39
eigval :     3065.27  3069.15  3071.80  3074.02  3075.92  3079.54
eigval :     3084.04  3085.31  3085.98  3088.32  3088.39  3088.93
eigval :     3094.10  3096.34  3099.97

   temp. (K)  partition function   enthalpy   heat capacity  entropy
                                   cal/mol     cal/K/mol   cal/K/mol   J/K/mol
 298.15  VIB  0.268E+17            20767.319    128.083    130.410
         ROT  0.644E+08              888.752      2.981     38.712
         INT  0.173E+25            21656.072    131.064    169.122
         TR   0.118E+29             1481.254      4.968     44.661
         TOT                       23137.3254   136.0323   213.7831   894.4683

       T/K    H(0)-H(T)+PV         H(T)/Eh          T*S/Eh         G(T)/Eh
   ------------------------------------------------------------------------
    298.15    0.368717E-01    0.621495E+00    0.101575E+00    0.519920E+00
   ------------------------------------------------------------------------

         :::::::::::::::::::::::::::::::::::::::::::::::::::::
         ::                  THERMODYNAMIC                  ::
         :::::::::::::::::::::::::::::::::::::::::::::::::::::
         :: total free energy        -105.166843177265 Eh   ::
         ::.................................................::
         :: total energy             -105.686763108320 Eh   ::
         :: zero point energy           0.584623483176 Eh   ::
         :: G(RRHO) w/o ZPVE           -0.064703552121 Eh   ::
         :: G(RRHO) contrib.            0.519919931055 Eh   ::
         :::::::::::::::::::::::::::::::::::::::::::::::::::::

           -------------------------------------------------
          | TOTAL ENERGY             -105.686763108320 Eh   |
          | TOTAL ENTHALPY           -105.065267950079 Eh   |
          | TOTAL FREE ENERGY        -105.166843177265 Eh   |
          | GRADIENT NORM               0.000045554604 Eh/α |
          | HOMO-LUMO GAP               1.992045861177 eV   |
           -------------------------------------------------

 * finished run on 2025/08/21 at 16:27:27.710
