   * xtb version 6.7.1 (edcfbbe) compiled by 'albert@albert-system' on 2024-07-22

   ID    Z sym.   atoms
    1    6 C      1-16, 18-39
    2    7 N      17
    3    1 H      40-68

          program call               : xtb data2507/toluene/DPTPEA/DPTPEA_toluene_S0_crest.xyz --gfn 2 --gbsa toluene --ohess vtight --parallel 40 --molden --ceasefiles --namespace data2507/toluene/DPTPEA/DPTPEA_toluene_S0_finalOpt
      * Solvation model:               GBSA
        Solvent                        toluene
        Solvent mass                       9.2140E+01 g/mol
          :  Hamiltonian                  GFN2-xTB          :
 * total energy  :   -99.0854363 Eh     change       -0.8428174E-09 Eh
 * total energy  :   -99.0854860 Eh     change       -0.4971999E-04 Eh
 * total energy  :   -99.0855366 Eh     change       -0.5060715E-04 Eh
 * total energy  :   -99.0855619 Eh     change       -0.2532470E-04 Eh
 * total energy  :   -99.0855982 Eh     change       -0.3623745E-04 Eh
 * total energy  :   -99.0856138 Eh     change       -0.1562249E-04 Eh
 * total energy  :   -99.0856285 Eh     change       -0.1471567E-04 Eh
 * total energy  :   -99.0856483 Eh     change       -0.1974633E-04 Eh
 * total energy  :   -99.0856693 Eh     change       -0.2100282E-04 Eh
 * total energy  :   -99.0856878 Eh     change       -0.1855408E-04 Eh
 * total energy  :   -99.0858553 Eh     change       -0.5431821E-06 Eh
 * total energy  :   -99.0858557 Eh     change       -0.4422056E-06 Eh
 * total energy  :   -99.0858561 Eh     change       -0.3514956E-06 Eh
 * total energy  :   -99.0858565 Eh     change       -0.3914214E-06 Eh
 * total energy  :   -99.0858569 Eh     change       -0.4340554E-06 Eh
 * total energy  :   -99.0858574 Eh     change       -0.4445149E-06 Eh
 * total energy  :   -99.0858577 Eh     change       -0.2992117E-06 Eh
 * total energy  :   -99.0858578 Eh     change       -0.1042741E-06 Eh
 * total energy  :   -99.0858578 Eh     change       -0.7170991E-07 Eh
   *** GEOMETRY OPTIMIZATION CONVERGED AFTER 44 ITERATIONS ***

 final structure:
================
68
 xtb: 6.7.1 (edcfbbe)
C           -7.07924444875353        0.42052490411280        0.49947777346996
C           -6.23579967338520       -0.29748891405383        1.33197550073716
C           -4.86700133051631       -0.24666540493608        1.14824076838434
C           -4.31765846407852        0.52460001949962        0.12529860452368
C           -2.85905247412891        0.60822687094975       -0.06199331057566
C           -2.06252379024070       -0.48497317792491       -0.05167412928183
C           -2.60627696087915       -1.85472722522610       -0.06260123072396
C           -2.08761167412480       -2.82244356229995        0.79602710949440
C           -2.58067534590111       -4.11388622947736        0.78056722703467
C           -3.58845928060024       -4.46393196807056       -0.10324101169633
C           -4.09761814519960       -3.51432628948746       -0.97443550845175
C           -3.61167477545323       -2.22054177871963       -0.95560747120860
C           -0.59556396896650       -0.39304034845483       -0.02752873396485
C            0.17989138818208       -1.23193917680219       -0.82824029029573
C            1.55680696122178       -1.16258770323376       -0.80713543809273
C            2.20643116302408       -0.26241985824440        0.03849532033186
N            3.60282602051583       -0.18786949638770        0.06748278334448
C            4.22856780379307        1.05553756454209        0.22216100058791
C            5.38449813294760        1.17799303537489        0.99330864591419
C            5.99764572691822        2.40769637961094        1.13831258081986
C            5.46767409713077        3.53340331971751        0.52837246139601
C            4.31658590544406        3.41827404534625       -0.23449418688464
C            3.70136753797436        2.19151237412418       -0.39262008213017
C            4.37108945189193       -1.35207105065744       -0.04953114114729
C            3.94191250469737       -2.54456876806797        0.53394469318484
C            4.70243490530507       -3.69186914829478        0.41585006093332
C            5.90393023653715       -3.67016868435855       -0.27412770166287
C            6.33657941689013       -2.48801138992317       -0.85337123284313
C            5.57813736294844       -1.33781720336646       -0.74903912509727
C            1.43532541185510        0.56053387039625        0.86144377071371
C            0.05955241799319        0.49700307855751        0.82404992253217
C           -2.33262855114395        1.96962843196290       -0.26369994593109
C           -1.43077708154521        2.24555367187598       -1.29022484861860
C           -0.96624364292024        3.53173736976378       -1.48982451703271
C           -1.39152412816472        4.56342741316444       -0.66829679401943
C           -2.29707767994542        4.30250725476772        0.34700874398184
C           -2.77089363826793        3.01853656982355        0.54297627325020
C           -5.17412081101393        1.25827305200390       -0.69420000503560
C           -6.54329871413711        1.20009714135358       -0.51258366116250
H           -8.14918519171593        0.37708565522506        0.64254769876629
H           -6.64715137878586       -0.89761667684498        2.13109798377462
H           -4.21243004963705       -0.79849899458697        1.80707500811345
H           -1.30221226784853       -2.55035884766185        1.48752280569505
H           -2.17615861744197       -4.85136196755385        1.45927617627820
H           -3.97212013309838       -5.47380564617219       -0.11658706603679
H           -4.87621103406685       -3.78407676734205       -1.67364787059076
H           -4.00364513340196       -1.48577206530195       -1.64374047240077
H           -0.30837642584811       -1.93009811638601       -1.49345767866767
H            2.14128948596493       -1.80541915815473       -1.44939013448114
H            5.79443662644599        0.30413636761501        1.47872993913474
H            6.89113288519047        2.48852939298229        1.74044903793624
H            5.94808376574503        4.49306036122046        0.64708370983776
H            3.89798558682382        4.28936550981134       -0.71745518585844
H            2.80868582330117        2.10250491968163       -0.99423912341348
H            3.01119532245838       -2.56218476716619        1.08223548432857
H            4.35835256173809       -4.60755176542085        0.87478754993263
H            6.49798602953014       -4.56763779094704       -0.36035463906024
H            7.26869781514105       -2.46247303274691       -1.39919766250322
H            5.91429231553225       -0.42025971811778       -1.20994951401377
H            1.92674103399387        1.24638454415582        1.53622052026852
H           -0.51988935395470        1.12895619562238        1.48051256893083
H           -1.10522074574265        1.44542399300396       -1.93918320597932
H           -0.27248601936881        3.73237314582299       -2.29401021570320
H           -1.02393794620372        5.56748301486462       -0.82300695681755
H           -2.63765970181325        5.10390854917715        0.98724534589781
H           -3.47748967221546        2.81721733160891        1.33631308064014
H           -4.75849088020939        1.86636652424277       -1.48580480278175
H           -7.19542941121547        1.76664262697536       -1.16214023289237

          :  Hamiltonian                  GFN2-xTB          :
         :: gradient norm              0.000063487474 Eh/a0 ::
         :: HOMO-LUMO gap              2.266713042622 eV    ::
         :: SCC energy              -101.007982461772 Eh    ::
         :: -> dispersion             -0.094608646174 Eh    ::
         :: -> Gsolv                  -0.039692805352 Eh    ::
         :: repulsion energy           1.922124618751 Eh    ::

    * Orbital Energies and Occupations

         #    Occupation            Energy/Eh            Energy/eV
      -------------------------------------------------------------
         1        2.0000           -0.6639000             -18.0656
       ...           ...                  ...                  ...
        81        2.0000           -0.4092893             -11.1373
        82        2.0000           -0.4076463             -11.0926
        83        2.0000           -0.4072093             -11.0807
        84        2.0000           -0.4061588             -11.0521
        85        2.0000           -0.4059109             -11.0454
        86        2.0000           -0.4045116             -11.0073
        87        2.0000           -0.4038401             -10.9890
        88        2.0000           -0.4014876             -10.9250
        89        2.0000           -0.4009079             -10.9093
        90        2.0000           -0.3987311             -10.8500
        91        2.0000           -0.3969129             -10.8006
        92        2.0000           -0.3671137              -9.9897
        93        2.0000           -0.3461620              -9.4195 (HOMO)
        94                         -0.2628619              -7.1528 (LUMO)
        95                         -0.2301090              -6.2616
        96                         -0.2297224              -6.2511
        97                         -0.2272221              -6.1830
        98                         -0.2242849              -6.1031
        99                         -0.2234201              -6.0796
       100                         -0.2214009              -6.0246
       101                         -0.2210735              -6.0157
       102                         -0.2194611              -5.9718
       103                         -0.2171118              -5.9079
       104                         -0.2111921              -5.7468
       ...                                ...                  ...
       185                          0.6921157              18.8334
      -------------------------------------------------------------
                  HL-Gap            0.0833002 Eh            2.2667 eV

     #   Z          covCN         q      C6AA      α(0)
     1   6 C        2.920    -0.033    28.811     8.802
     2   6 C        2.918    -0.031    28.764     8.795
     3   6 C        2.924    -0.033    28.818     8.803
     4   6 C        2.978     0.015    27.672     8.629
     5   6 C        2.967    -0.008    28.212     8.712
     6   6 C        2.966    -0.006    28.157     8.704
     7   6 C        2.978     0.015    27.674     8.629
     8   6 C        2.925    -0.033    28.818     8.804
     9   6 C        2.918    -0.031    28.771     8.796
    10   6 C        2.920    -0.032    28.806     8.801
    11   6 C        2.918    -0.031    28.761     8.794
    12   6 C        2.924    -0.033    28.811     8.802
    13   6 C        2.977     0.006    27.871     8.660
    14   6 C        2.924    -0.033    28.823     8.804
    15   6 C        2.920    -0.049    29.212     8.863
    16   6 C        2.924     0.064    26.558     8.451
    17   7 N        2.752    -0.079    22.775     7.088
    18   6 C        2.924     0.066    26.529     8.447
    19   6 C        2.922    -0.048    29.194     8.861
    20   6 C        2.919    -0.030    28.760     8.794
    21   6 C        2.919    -0.039    28.980     8.828
    22   6 C        2.919    -0.030    28.751     8.793
    23   6 C        2.922    -0.048    29.181     8.859
    24   6 C        2.923     0.066    26.528     8.446
    25   6 C        2.922    -0.048    29.196     8.861
    26   6 C        2.919    -0.030    28.757     8.794
    27   6 C        2.919    -0.040    28.987     8.829
    28   6 C        2.919    -0.030    28.758     8.794
    29   6 C        2.922    -0.048    29.199     8.861
    30   6 C        2.920    -0.048    29.198     8.861
    31   6 C        2.923    -0.033    28.813     8.803
    32   6 C        2.978     0.015    27.666     8.628
    33   6 C        2.924    -0.033    28.818     8.803
    34   6 C        2.918    -0.030    28.761     8.794
    35   6 C        2.920    -0.032    28.809     8.802
    36   6 C        2.918    -0.031    28.769     8.796
    37   6 C        2.925    -0.033    28.823     8.804
    38   6 C        2.925    -0.033    28.824     8.804
    39   6 C        2.918    -0.031    28.773     8.796
    40   1 H        0.926     0.030     2.584     2.514
    41   1 H        0.926     0.030     2.591     2.517
    42   1 H        0.926     0.028     2.619     2.531
    43   1 H        0.925     0.027     2.626     2.534
    44   1 H        0.926     0.030     2.583     2.513
    45   1 H        0.926     0.030     2.580     2.512
    46   1 H        0.926     0.030     2.588     2.516
    47   1 H        0.926     0.028     2.618     2.530
    48   1 H        0.926     0.031     2.575     2.509
    49   1 H        0.926     0.032     2.562     2.503
    50   1 H        0.926     0.031     2.568     2.506
    51   1 H        0.926     0.033     2.543     2.494
    52   1 H        0.926     0.032     2.562     2.503
    53   1 H        0.926     0.033     2.542     2.493
    54   1 H        0.926     0.031     2.569     2.506
    55   1 H        0.926     0.031     2.575     2.509
    56   1 H        0.926     0.033     2.545     2.495
    57   1 H        0.926     0.031     2.566     2.505
    58   1 H        0.926     0.033     2.546     2.495
    59   1 H        0.926     0.031     2.570     2.507
    60   1 H        0.926     0.031     2.569     2.507
    61   1 H        0.926     0.031     2.568     2.506
    62   1 H        0.926     0.027     2.622     2.532
    63   1 H        0.926     0.029     2.595     2.519
    64   1 H        0.926     0.030     2.582     2.513
    65   1 H        0.926     0.030     2.588     2.515
    66   1 H        0.925     0.027     2.629     2.536
    67   1 H        0.925     0.027     2.628     2.535
    68   1 H        0.926     0.030     2.587     2.515

molecular dipole:
                 x           y           z       tot (Debye)
 q only:        0.131      -0.007       0.005
   full:        0.116      -0.006       0.009       0.296

 projected vibrational frequencies (cm⁻¹)
eigval :       -0.00    -0.00     0.00     0.00     0.00     0.00
eigval :       12.31    19.34    21.70    35.44    40.15    47.68
eigval :       49.69    54.61    60.95    64.30    67.10    69.08
eigval :       71.15    80.41   109.11   127.44   149.97   180.59
eigval :      185.60   202.55   226.49   233.71   238.63   247.46
eigval :      271.28   298.77   307.56   316.49   354.83   362.93
eigval :      371.26   374.02   375.66   378.17   381.02   388.99
eigval :      399.27   424.14   446.46   470.83   484.54   492.77
eigval :      510.48   553.11   555.83   579.80   584.58   585.17
eigval :      587.39   591.08   592.77   599.82   609.36   617.92
eigval :      640.60   658.65   660.26   668.09   671.28   676.33
eigval :      677.72   691.62   716.78   750.99   755.29   758.21
eigval :      760.19   762.09   812.50   841.78   869.48   872.33
eigval :      874.06   875.15   877.25   877.73   878.94   889.08
eigval :      892.41   900.20   901.09   902.17   909.50   917.28
eigval :      918.33   923.84   925.38   926.59   928.31   929.08
eigval :      929.73   929.81   930.55   931.72   932.48   933.84
eigval :      947.19   979.55   985.81   994.63  1004.02  1014.37
eigval :     1033.97  1081.56  1082.60  1083.11  1083.87  1085.01
eigval :     1119.55  1120.84  1121.48  1122.05  1123.73  1141.03
eigval :     1163.44  1177.79  1179.75  1180.32  1181.32  1181.60
eigval :     1184.20  1192.77  1194.34  1198.60  1199.57  1203.58
eigval :     1213.61  1240.78  1270.25  1276.95  1278.40  1281.25
eigval :     1281.73  1284.24  1290.72  1301.66  1310.75  1314.23
eigval :     1315.27  1315.77  1318.99  1324.30  1324.79  1328.30
eigval :     1410.08  1427.81  1429.13  1429.89  1434.41  1441.25
eigval :     1465.88  1470.12  1472.93  1473.20  1475.17  1483.82
eigval :     1552.33  1575.33  1576.36  1576.95  1578.26  1579.13
eigval :     1582.13  1591.42  1592.03  1593.34  1596.98  1599.55
eigval :     1611.88  3063.98  3064.55  3064.89  3065.89  3067.73
eigval :     3068.43  3069.96  3070.98  3071.51  3071.77  3073.00
eigval :     3073.38  3074.01  3074.58  3077.52  3079.81  3080.49
eigval :     3080.95  3082.02  3082.64  3083.60  3084.66  3086.77
eigval :     3087.57  3088.56  3089.34  3090.66  3092.88  3094.39

   temp. (K)  partition function   enthalpy   heat capacity  entropy
                                   cal/mol     cal/K/mol   cal/K/mol   J/K/mol
 298.15  VIB  0.504E+15            18630.575    117.169    117.351
         ROT  0.423E+08              888.752      2.981     37.879
         INT  0.213E+23            19519.328    120.150    155.229
         TR   0.108E+29             1481.254      4.968     44.493
         TOT                       21000.5816   125.1178   199.7225   835.6391

       T/K    H(0)-H(T)+PV         H(T)/Eh          T*S/Eh         G(T)/Eh
   ------------------------------------------------------------------------
    298.15    0.334666E-01    0.569861E+00    0.948946E-01    0.474966E+00
   ------------------------------------------------------------------------

         :::::::::::::::::::::::::::::::::::::::::::::::::::::
         ::                  THERMODYNAMIC                  ::
         :::::::::::::::::::::::::::::::::::::::::::::::::::::
         :: total free energy         -98.610891487449 Eh   ::
         ::.................................................::
         :: total energy              -99.085857844863 Eh   ::
         :: zero point energy           0.536394428354 Eh   ::
         :: G(RRHO) w/o ZPVE           -0.061428070940 Eh   ::
         :: G(RRHO) contrib.            0.474966357414 Eh   ::
         :::::::::::::::::::::::::::::::::::::::::::::::::::::

           -------------------------------------------------
          | TOTAL ENERGY              -99.085857844863 Eh   |
          | TOTAL ENTHALPY            -98.515996859466 Eh   |
          | TOTAL FREE ENERGY         -98.610891487449 Eh   |
          | GRADIENT NORM               0.000063485892 Eh/α |
          | HOMO-LUMO GAP               2.266713046965 eV   |
           -------------------------------------------------

 * finished run on 2025/07/18 at 16:08:05.468
