   * xtb version 6.7.1 (edcfbbe) compiled by 'albert@albert-system' on 2024-07-22

   ID    Z sym.   atoms
    1    6 C      1-16, 18-39
    2    7 N      17
    3    1 H      40-68

          program call               : xtb data2507/toluene/DPTPEA/DPTPEA.xyz --gfn 2 --gbsa toluene --ohess vtight --parallel 40 --molden --ceasefiles --namespace data2507/toluene/DPTPEA/DPTPEA_toluene_S0_preOpt
      * Solvation model:               GBSA
        Solvent                        toluene
        Solvent mass                       9.2140E+01 g/mol
          :  Hamiltonian                  GFN2-xTB          :
 * total energy  :   -99.0646604 Eh     change       -0.3550724E-09 Eh
 * total energy  :   -99.0747185 Eh     change       -0.1005805E-01 Eh
 * total energy  :   -99.0781202 Eh     change       -0.3401754E-02 Eh
 * total energy  :   -99.0791457 Eh     change       -0.1025465E-02 Eh
 * total energy  :   -99.0798111 Eh     change       -0.6654362E-03 Eh
 * total energy  :   -99.0802772 Eh     change       -0.4661210E-03 Eh
 * total energy  :   -99.0807670 Eh     change       -0.4897613E-03 Eh
 * total energy  :   -99.0814273 Eh     change       -0.6602651E-03 Eh
 * total energy  :   -99.0821030 Eh     change       -0.6757060E-03 Eh
 * total energy  :   -99.0826672 Eh     change       -0.5642742E-03 Eh
 * total energy  :   -99.0858326 Eh     change       -0.5136320E-06 Eh
 * total energy  :   -99.0858331 Eh     change       -0.4614845E-06 Eh
 * total energy  :   -99.0858335 Eh     change       -0.4072952E-06 Eh
 * total energy  :   -99.0858338 Eh     change       -0.3627504E-06 Eh
 * total energy  :   -99.0858342 Eh     change       -0.3435145E-06 Eh
 * total energy  :   -99.0858345 Eh     change       -0.3650605E-06 Eh
 * total energy  :   -99.0858350 Eh     change       -0.4475097E-06 Eh
 * total energy  :   -99.0858356 Eh     change       -0.5844919E-06 Eh
 * total energy  :   -99.0858356 Eh     change       -0.2617000E-08 Eh
   *** GEOMETRY OPTIMIZATION CONVERGED AFTER 94 ITERATIONS ***

 final structure:
================
68
 xtb: 6.7.1 (edcfbbe)
C           -7.05177047510232        0.72772781808242        0.42483660201378
C           -6.24215143513411        0.02358529192070        1.30164157252137
C           -4.87203532186381        0.00412146431464        1.12158985955894
C           -4.28750626652766        0.69120750257841        0.05897265036142
C           -2.82591655033722        0.70342468600448       -0.12356089067217
C           -2.07538105990767       -0.41945735332450       -0.05313504626913
C           -2.67090196108977       -1.76577814053283        0.00424660895489
C           -2.18059471354505       -2.71052990721644        0.90434343407032
C           -2.72132440788851       -3.98179360995603        0.95484800428345
C           -3.75066735752831       -4.33513646841803        0.09763117636993
C           -4.23264662021330       -3.40948940354446       -0.81389682948363
C           -3.69825355313393       -2.13574603304878       -0.86183488843563
C           -0.60560593483248       -0.38236591577271       -0.02066228348562
C            0.14455100755627       -1.26866334624973       -0.79334395737378
C            1.52288026717006       -1.24850881957164       -0.76199491906455
C            2.19878734472763       -0.35514766943725        0.07060180527571
N            3.59589637328357       -0.33357895154573        0.11235346144812
C            4.27018910154938        0.88294058814412        0.27992312190844
C            5.41816620457530        0.95383301762212        1.06921488564174
C            6.07928207808082        2.15634410767069        1.23043622724439
C            5.60582804654704        3.30580290834597        0.61828915662367
C            4.46417538952737        3.24153648904962       -0.16449913246499
C            3.80145091876714        2.04198355396074       -0.33892855278722
C            4.32311067236584       -1.52490911371287       -0.00069451153280
C            3.85415134625106       -2.70073805792992        0.58565086403625
C            4.57642803250693       -3.87288498303081        0.47071633412868
C            5.77807657133435       -3.89287958328790       -0.21907410060366
C            6.25029490177039       -2.72722279038584       -0.80083184829895
C            5.53037842002552       -1.55230354516611       -0.69929599622404
C            1.45124154016468        0.51443119520961        0.86719676993125
C            0.07450102890386        0.50369676197180        0.81483379407057
C           -2.24019709237198        2.02911071320288       -0.38928541061340
C           -1.31839521883457        2.21296213966671       -1.41870291178561
C           -0.79712126698837        3.46607586334862       -1.67927647689454
C           -1.18459597060913        4.55619498866911       -0.91666007677851
C           -2.10888558463562        4.38688284498061        0.10116310950061
C           -2.63951563513982        3.13621007476273        0.35762987974644
C           -5.10939323081654        1.41134778321677       -0.80647090973976
C           -6.48032892622157        1.42229690323410       -0.62890277283135
H           -8.12288504193354        0.73936456269935        0.56534103254980
H           -6.68109179220664       -0.51094580135498        2.13203702810856
H           -4.24326351725487       -0.53656322069539        1.81402650834963
H           -1.37880164541327       -2.43577998139567        1.57567620683614
H           -2.33757828528204       -4.70080947039115        1.66471724879173
H           -4.17189531184829       -5.32926654203109        0.13605381975805
H           -5.02785075714956       -3.68265457021329       -1.49280608904202
H           -4.06922620488755       -1.42076268306102       -1.58168282021862
H           -0.36395675702545       -1.96487091497024       -1.44538740217757
H            2.08808391687960       -1.92600733969928       -1.38554258447028
H            5.78389806618270        0.06151262045083        1.55635238712492
H            6.96557242362085        2.19731652657828        1.84710139711146
H            6.12263715179795        4.24456329556082        0.75050179849695
H            4.08983025676533        4.13121913331832       -0.64985529249948
H            2.91596568362148        1.99280818519305       -0.95555266635477
H            2.92299302277268       -2.68614653715599        1.13329964165529
H            4.20218032028064       -4.77554525095116        0.93175824919645
H            6.34190986060150       -4.80985901329976       -0.30286804283459
H            7.18302457218784       -2.73398289306768       -1.34614695542550
H            5.89693831128081       -0.64702045490624       -1.16131690094260
H            1.96097165554007        1.19567056904157        1.53293881324265
H           -0.48733416842114        1.17439730073067        1.44793820917130
H           -1.02218578905755        1.36740866466337       -2.02243245656535
H           -0.08836308383186        3.59468604234921       -2.48512868284742
H           -0.77293077531704        5.53435160010343       -1.11891439138047
H           -2.41998079796083        5.23407100161678        0.69578999498002
H           -3.36129078932871        3.00690622333074        1.15228170724310
H           -4.66557994832609        1.95419124065831       -1.62958963419821
H           -7.10598923866509        1.97716270305444       -1.31365592600205

          :  Hamiltonian                  GFN2-xTB          :
         :: gradient norm              0.000041840128 Eh/a0 ::
         :: HOMO-LUMO gap              2.274865178707 eV    ::
         :: SCC energy              -101.008019889381 Eh    ::
         :: -> dispersion             -0.094573822725 Eh    ::
         :: -> Gsolv                  -0.039688754418 Eh    ::
         :: repulsion energy           1.922184308366 Eh    ::

    * Orbital Energies and Occupations

         #    Occupation            Energy/Eh            Energy/eV
      -------------------------------------------------------------
         1        2.0000           -0.6639352             -18.0666
       ...           ...                  ...                  ...
        81        2.0000           -0.4091165             -11.1326
        82        2.0000           -0.4074970             -11.0886
        83        2.0000           -0.4073346             -11.0841
        84        2.0000           -0.4061734             -11.0525
        85        2.0000           -0.4058546             -11.0439
        86        2.0000           -0.4045875             -11.0094
        87        2.0000           -0.4039144             -10.9911
        88        2.0000           -0.4014141             -10.9230
        89        2.0000           -0.4008677             -10.9082
        90        2.0000           -0.3987861             -10.8515
        91        2.0000           -0.3968576             -10.7990
        92        2.0000           -0.3671130              -9.9897
        93        2.0000           -0.3461447              -9.4191 (HOMO)
        94                         -0.2625450              -7.1442 (LUMO)
        95                         -0.2301774              -6.2634
        96                         -0.2298618              -6.2549
        97                         -0.2271764              -6.1818
        98                         -0.2242955              -6.1034
        99                         -0.2234046              -6.0791
       100                         -0.2213389              -6.0229
       101                         -0.2211752              -6.0185
       102                         -0.2193945              -5.9700
       103                         -0.2170995              -5.9076
       104                         -0.2111544              -5.7458
       ...                                ...                  ...
       185                          0.6921122              18.8333
      -------------------------------------------------------------
                  HL-Gap            0.0835998 Eh            2.2749 eV

     #   Z          covCN         q      C6AA      α(0)
     1   6 C        2.920    -0.033    28.812     8.802
     2   6 C        2.918    -0.031    28.764     8.795
     3   6 C        2.924    -0.033    28.817     8.803
     4   6 C        2.978     0.015    27.671     8.629
     5   6 C        2.967    -0.008    28.214     8.713
     6   6 C        2.966    -0.006    28.157     8.704
     7   6 C        2.978     0.015    27.677     8.630
     8   6 C        2.925    -0.033    28.819     8.804
     9   6 C        2.918    -0.031    28.772     8.796
    10   6 C        2.920    -0.032    28.806     8.801
    11   6 C        2.918    -0.031    28.762     8.794
    12   6 C        2.924    -0.033    28.811     8.802
    13   6 C        2.977     0.006    27.877     8.661
    14   6 C        2.924    -0.033    28.822     8.804
    15   6 C        2.920    -0.049    29.223     8.865
    16   6 C        2.923     0.064    26.558     8.451
    17   7 N        2.752    -0.079    22.772     7.087
    18   6 C        2.924     0.066    26.530     8.447
    19   6 C        2.922    -0.048    29.191     8.860
    20   6 C        2.919    -0.030    28.758     8.794
    21   6 C        2.919    -0.039    28.977     8.827
    22   6 C        2.919    -0.030    28.752     8.793
    23   6 C        2.922    -0.047    29.177     8.858
    24   6 C        2.923     0.066    26.529     8.446
    25   6 C        2.922    -0.048    29.189     8.860
    26   6 C        2.919    -0.030    28.757     8.794
    27   6 C        2.919    -0.040    28.982     8.828
    28   6 C        2.919    -0.030    28.757     8.794
    29   6 C        2.922    -0.048    29.193     8.860
    30   6 C        2.920    -0.049    29.210     8.863
    31   6 C        2.923    -0.033    28.814     8.803
    32   6 C        2.978     0.015    27.668     8.628
    33   6 C        2.924    -0.033    28.821     8.804
    34   6 C        2.918    -0.031    28.763     8.795
    35   6 C        2.920    -0.032    28.809     8.802
    36   6 C        2.918    -0.031    28.769     8.796
    37   6 C        2.925    -0.033    28.822     8.804
    38   6 C        2.925    -0.033    28.825     8.804
    39   6 C        2.918    -0.031    28.772     8.796
    40   1 H        0.926     0.030     2.584     2.514
    41   1 H        0.926     0.030     2.591     2.517
    42   1 H        0.926     0.028     2.621     2.532
    43   1 H        0.925     0.027     2.626     2.534
    44   1 H        0.926     0.030     2.583     2.513
    45   1 H        0.926     0.030     2.581     2.512
    46   1 H        0.926     0.030     2.589     2.516
    47   1 H        0.926     0.028     2.616     2.529
    48   1 H        0.926     0.030     2.580     2.512
    49   1 H        0.926     0.032     2.564     2.504
    50   1 H        0.926     0.031     2.569     2.506
    51   1 H        0.926     0.033     2.541     2.493
    52   1 H        0.926     0.032     2.560     2.502
    53   1 H        0.926     0.033     2.540     2.492
    54   1 H        0.926     0.032     2.565     2.504
    55   1 H        0.926     0.031     2.570     2.507
    56   1 H        0.926     0.033     2.543     2.494
    57   1 H        0.926     0.032     2.563     2.503
    58   1 H        0.926     0.033     2.543     2.494
    59   1 H        0.926     0.031     2.569     2.507
    60   1 H        0.926     0.031     2.571     2.507
    61   1 H        0.926     0.031     2.575     2.509
    62   1 H        0.926     0.028     2.620     2.531
    63   1 H        0.926     0.029     2.596     2.520
    64   1 H        0.926     0.030     2.582     2.513
    65   1 H        0.926     0.030     2.588     2.516
    66   1 H        0.925     0.027     2.630     2.536
    67   1 H        0.925     0.027     2.629     2.535
    68   1 H        0.926     0.030     2.588     2.515

molecular dipole:
                 x           y           z       tot (Debye)
 q only:        0.159      -0.017       0.007
   full:        0.143      -0.015       0.012       0.368

 projected vibrational frequencies (cm⁻¹)
eigval :       -0.00    -0.00     0.00     0.00     0.00     0.00
eigval :       12.49    19.31    22.30    38.23    40.28    49.79
eigval :       52.35    54.70    62.23    67.62    68.26    70.87
eigval :       73.95    80.64   108.93   127.00   149.78   180.83
eigval :      185.46   202.47   226.91   234.38   239.21   247.96
eigval :      270.95   299.18   307.66   317.03   354.19   363.15
eigval :      372.48   375.62   376.92   377.85   380.78   388.70
eigval :      399.65   424.91   446.63   471.27   485.40   493.33
eigval :      511.69   552.93   556.73   579.80   584.84   585.43
eigval :      587.24   590.78   592.88   599.81   609.63   617.82
eigval :      641.54   659.01   660.72   668.48   672.06   677.23
eigval :      678.00   691.10   716.80   751.21   755.35   759.30
eigval :      761.52   762.26   812.25   842.01   869.55   872.50
eigval :      874.01   874.80   875.92   879.26   880.64   890.10
eigval :      892.02   900.78   901.19   903.08   909.16   917.21
eigval :      918.26   925.88   926.47   926.94   927.04   928.93
eigval :      929.94   930.04   930.66   931.16   933.90   936.19
eigval :      947.16   979.54   985.85   994.62  1004.04  1014.20
eigval :     1033.88  1082.06  1083.04  1083.15  1084.00  1084.99
eigval :     1120.75  1120.95  1121.10  1122.92  1123.60  1141.29
eigval :     1163.67  1178.91  1179.42  1179.86  1180.40  1182.17
eigval :     1185.18  1194.50  1195.56  1198.28  1199.00  1203.19
eigval :     1214.22  1240.85  1270.49  1277.72  1279.05  1281.33
eigval :     1281.83  1284.07  1291.02  1301.90  1310.33  1314.13
eigval :     1314.93  1315.93  1319.05  1324.21  1324.75  1328.72
eigval :     1410.09  1428.09  1429.05  1430.07  1434.53  1441.22
eigval :     1465.88  1470.20  1473.06  1473.17  1475.14  1484.16
eigval :     1552.46  1575.33  1576.47  1577.06  1578.34  1579.20
eigval :     1582.87  1591.40  1591.91  1593.31  1596.94  1599.57
eigval :     1612.43  3063.90  3064.38  3064.55  3065.73  3066.90
eigval :     3068.38  3070.54  3070.94  3071.43  3071.93  3073.21
eigval :     3073.42  3074.03  3074.26  3077.21  3079.74  3080.14
eigval :     3080.96  3081.31  3082.64  3083.58  3084.65  3086.61
eigval :     3087.49  3088.48  3088.74  3090.16  3092.63  3094.16

   temp. (K)  partition function   enthalpy   heat capacity  entropy
                                   cal/mol     cal/K/mol   cal/K/mol   J/K/mol
 298.15  VIB  0.360E+15            18596.477    117.370    117.074
         ROT  0.423E+08              888.752      2.981     37.879
         INT  0.152E+23            19485.230    120.351    154.953
         TR   0.108E+29             1481.254      4.968     44.493
         TOT                       20966.4836   125.3194   199.4458   834.4811

       T/K    H(0)-H(T)+PV         H(T)/Eh          T*S/Eh         G(T)/Eh
   ------------------------------------------------------------------------
    298.15    0.334122E-01    0.569924E+00    0.947631E-01    0.475161E+00
   ------------------------------------------------------------------------

         :::::::::::::::::::::::::::::::::::::::::::::::::::::
         ::                  THERMODYNAMIC                  ::
         :::::::::::::::::::::::::::::::::::::::::::::::::::::
         :: total free energy         -98.610674390605 Eh   ::
         ::.................................................::
         :: total energy              -99.085835581523 Eh   ::
         :: zero point energy           0.536512088614 Eh   ::
         :: G(RRHO) w/o ZPVE           -0.061350897696 Eh   ::
         :: G(RRHO) contrib.            0.475161190918 Eh   ::
         :::::::::::::::::::::::::::::::::::::::::::::::::::::

           -------------------------------------------------
          | TOTAL ENERGY              -99.085835581523 Eh   |
          | TOTAL ENTHALPY            -98.515911274510 Eh   |
          | TOTAL FREE ENERGY         -98.610674390605 Eh   |
          | GRADIENT NORM               0.000041843359 Eh/α |
          | HOMO-LUMO GAP               2.274865289638 eV   |
           -------------------------------------------------

 * finished run on 2025/07/18 at 16:04:26.701
