   * xtb version 6.7.1 (edcfbbe) compiled by 'albert@albert-system' on 2024-07-22

   ID    Z sym.   atoms
    1    6 C      1-16, 18-39
    2    7 N      17
    3    1 H      40-68

          program call               : xtb data2507/toluene/DPTPEA/DPTPEA_toluene_S0_finalOpt.xtbopt.xyz --gfn 2 --uhf 2 --gbsa toluene --ohess vtight --parallel 40 --molden --ceasefiles --namespace data2507/toluene/DPTPEA/DPTPEA_toluene_T1_preOpt
      * Solvation model:               GBSA
        Solvent                        toluene
        Solvent mass                       9.2140E+01 g/mol
          :  Hamiltonian                  GFN2-xTB          :
 * total energy  :   -98.9952095 Eh     change       -0.4037256E-07 Eh
 * total energy  :   -99.0042926 Eh     change       -0.9083065E-02 Eh
 * total energy  :   -99.0079366 Eh     change       -0.3643990E-02 Eh
 * total energy  :   -99.0092428 Eh     change       -0.1306197E-02 Eh
 * total energy  :   -99.0107291 Eh     change       -0.1486338E-02 Eh
 * total energy  :   -99.0120004 Eh     change       -0.1271329E-02 Eh
 * total energy  :   -99.0130306 Eh     change       -0.1030179E-02 Eh
 * total energy  :   -99.0137106 Eh     change       -0.6800208E-03 Eh
 * total energy  :   -99.0141677 Eh     change       -0.4570481E-03 Eh
 * total energy  :   -99.0145635 Eh     change       -0.3958217E-03 Eh
 * total energy  :   -99.0203598 Eh     change       -0.1702689E-05 Eh
 * total energy  :   -99.0203615 Eh     change       -0.1684944E-05 Eh
 * total energy  :   -99.0203631 Eh     change       -0.1594803E-05 Eh
 * total energy  :   -99.0203644 Eh     change       -0.1366846E-05 Eh
 * total energy  :   -99.0203655 Eh     change       -0.1095258E-05 Eh
 * total energy  :   -99.0203664 Eh     change       -0.8534730E-06 Eh
 * total energy  :   -99.0203671 Eh     change       -0.6860051E-06 Eh
 * total energy  :   -99.0203675 Eh     change       -0.4593295E-06 Eh
 * total energy  :   -99.0203676 Eh     change       -0.8236727E-07 Eh
   *** GEOMETRY OPTIMIZATION CONVERGED AFTER 65 ITERATIONS ***

 final structure:
================
68
 xtb: 6.7.1 (edcfbbe)
C           -6.33935821078888        0.29308599640744        2.27736177005843
C           -5.25386923268871       -0.54571918548470        2.49760646674689
C           -4.11694677885481       -0.43210676297153        1.73089047469725
C           -4.01432893966267        0.54335131941499        0.71793020849339
C           -2.83749033326848        0.62858646112919       -0.09163769014900
C           -2.03441764461540       -0.58739479664287       -0.28324357690393
C           -2.72247151235971       -1.77952360880005       -0.70270912964187
C           -2.29660289770595       -3.06225122139499       -0.31149339931196
C           -2.99411658936314       -4.18847826913333       -0.69121391235302
C           -4.13469546783723       -4.08155186014013       -1.47472468596089
C           -4.58080761353441       -2.82380734156326       -1.85833797723787
C           -3.89543084017435       -1.69271449454718       -1.47480702902392
C           -0.63588484676759       -0.53399680764201       -0.07461727436699
C            0.25792033779995       -1.44844443556713       -0.68698579265626
C            1.61403778369338       -1.32911717038243       -0.54888828505137
C            2.17500658278611       -0.29613668514693        0.21853793823516
N            3.55296782830194       -0.16234663761098        0.33627736913662
C            4.13348360953306        1.11022252056519        0.41824987192752
C            5.24072677143639        1.32808725622876        1.23897247344350
C            5.81613620463225        2.58199503726267        1.31138468811885
C            5.29629776331979        3.63645556714135        0.57733820544275
C            4.19446583913299        3.42575114343261       -0.23677324227879
C            3.61647593038551        2.17399075027974       -0.32259633747215
C            4.37319052559759       -1.29839532903666        0.34273693106268
C            3.97275743805454       -2.45350436946249        1.01541506589189
C            4.78234130484899       -3.57288556860912        1.01678637680571
C            6.00122502703227       -3.55833851104999        0.35710189701530
C            6.40520954773158       -2.41199621213305       -0.30914949069700
C            5.59987868602401       -1.28957191697208       -0.32215683600212
C            1.30624688797024        0.60984051111845        0.84632376253552
C           -0.04932768151693        0.49821737253365        0.70093702870803
C           -2.41429719391269        1.83665555533198       -0.72644792427812
C           -1.58550839273689        1.79935612985404       -1.86848878283962
C           -1.12815428168367        2.95677723694770       -2.45540470382004
C           -1.46399834636648        4.19691688730124       -1.92664704259205
C           -2.26581526268718        4.25865605545611       -0.79372601339435
C           -2.73499586070033        3.10744433825335       -0.20257070373552
C           -5.13324055432306        1.37376620232026        0.50262151090623
C           -6.27040120422280        1.24504151960631        1.26856484562846
H           -7.23203180014347        0.19909730459005        2.87790435018060
H           -5.30177823753582       -1.29278075604809        3.27751062683813
H           -3.27279545248006       -1.07927489123563        1.91922430028239
H           -1.43614310648395       -3.15830471329236        0.33489522457350
H           -2.65246801156916       -5.16248836694088       -0.36903663855357
H           -4.67612234954461       -4.96696594347762       -1.77387835120103
H           -5.47207477422563       -2.73042940115546       -2.46311566042554
H           -4.24455273901743       -0.71950144877460       -1.78923264157976
H           -0.14006893208303       -2.21339323273936       -1.33658562258408
H            2.26954223862825       -2.01728304713381       -1.06338553966119
H            5.64074876479682        0.51004281915860        1.82015298316366
H            6.67165800631874        2.73848837389431        1.95200899241916
H            5.74671405960225        4.61563668601980        0.63937804776199
H            3.78597205994600        4.24006638599112       -0.81719722384161
H            2.76489928367716        2.00973884097779       -0.96679529258054
H            3.02830629216370       -2.46151942169818        1.53963678810416
H            4.46272298500037       -4.46015279743799        1.54353531947479
H            6.63189061224321       -4.43451709823613        0.36233902422654
H            7.35120708305979       -2.39391565535575       -0.83027011489073
H            5.91135875974519       -0.40070905828403       -0.85110587163450
H            1.71920354365652        1.39688705411255        1.46084399170440
H           -0.69492994874660        1.19434886541911        1.21479517028435
H           -1.33337704299768        0.84145469228803       -2.29957024407048
H           -0.50472135818300        2.89948802836684       -3.33693587563474
H           -1.10017143106769        5.10361438489765       -2.38689061752521
H           -2.51566289069094        5.21910604985575       -0.36462604908397
H           -3.31512581190623        3.17075698565031        0.70646815226434
H           -5.11249310432567        2.08679231481451       -0.30878473760818
H           -7.11959515524642        1.88584547558630        1.07575675408927

          :  Hamiltonian                  GFN2-xTB          :
         :: gradient norm              0.000174582156 Eh/a0 ::
         :: HOMO-LUMO gap              1.575680176307 eV    ::
         :: SCC energy              -100.924243180932 Eh    ::
         :: -> dispersion             -0.093917985755 Eh    ::
         :: -> Gsolv                  -0.040103066568 Eh    ::
         :: repulsion energy           1.903875555584 Eh    ::

    * Orbital Energies and Occupations

         #    Occupation            Energy/Eh            Energy/eV
      -------------------------------------------------------------
         1        2.0000           -0.6699924             -18.2314
       ...           ...                  ...                  ...
        82        2.0000           -0.4114492             -11.1961
        83        2.0000           -0.4101808             -11.1616
        84        2.0000           -0.4099411             -11.1551
        85        2.0000           -0.4079314             -11.1004
        86        2.0000           -0.4054339             -11.0324
        87        2.0000           -0.4024856             -10.9522
        88        2.0000           -0.3999925             -10.8844
        89        2.0000           -0.3987466             -10.8504
        90        2.0000           -0.3958492             -10.7716
        91        2.0000           -0.3931882             -10.6992
        92        2.0000           -0.3602332              -9.8024
        93        1.0000           -0.3308043              -9.0016
        94        1.0000           -0.2922445              -7.9524 (HOMO)
        95                         -0.2343397              -6.3767 (LUMO)
        96                         -0.2310227              -6.2864
        97                         -0.2297326              -6.2513
        98                         -0.2252215              -6.1286
        99                         -0.2246471              -6.1130
       100                         -0.2194469              -5.9715
       101                         -0.2172629              -5.9120
       102                         -0.2161898              -5.8828
       103                         -0.2148869              -5.8474
       104                         -0.2069564              -5.6316
       105                         -0.1898206              -5.1653
       ...                                ...                  ...
       185                          0.6920330              18.8312
      -------------------------------------------------------------
                  HL-Gap            0.0579048 Eh            1.5757 eV

     #   Z          covCN         q      C6AA      α(0)
     1   6 C        2.919    -0.035    28.868     8.811
     2   6 C        2.915    -0.031    28.773     8.796
     3   6 C        2.924    -0.035    28.870     8.811
     4   6 C        2.971     0.013    27.714     8.635
     5   6 C        2.970    -0.009    28.236     8.716
     6   6 C        2.969    -0.017    28.427     8.746
     7   6 C        2.972     0.013    27.728     8.637
     8   6 C        2.922    -0.038    28.951     8.824
     9   6 C        2.916    -0.033    28.811     8.802
    10   6 C        2.919    -0.037    28.920     8.819
    11   6 C        2.916    -0.032    28.794     8.799
    12   6 C        2.924    -0.037    28.913     8.818
    13   6 C        2.969     0.009    27.802     8.649
    14   6 C        2.920    -0.038    28.949     8.823
    15   6 C        2.915    -0.047    29.170     8.857
    16   6 C        2.924     0.058    26.693     8.473
    17   7 N        2.752    -0.058    22.354     7.022
    18   6 C        2.925     0.064    26.563     8.452
    19   6 C        2.922    -0.046    29.132     8.851
    20   6 C        2.919    -0.029    28.724     8.789
    21   6 C        2.919    -0.036    28.903     8.816
    22   6 C        2.919    -0.029    28.717     8.788
    23   6 C        2.921    -0.044    29.103     8.847
    24   6 C        2.925     0.064    26.561     8.452
    25   6 C        2.922    -0.044    29.104     8.847
    26   6 C        2.919    -0.029    28.720     8.788
    27   6 C        2.919    -0.036    28.899     8.816
    28   6 C        2.919    -0.029    28.718     8.788
    29   6 C        2.922    -0.045    29.124     8.850
    30   6 C        2.915    -0.046    29.150     8.853
    31   6 C        2.921    -0.036    28.906     8.817
    32   6 C        2.970     0.013    27.712     8.635
    33   6 C        2.923    -0.035    28.877     8.812
    34   6 C        2.915    -0.031    28.774     8.796
    35   6 C        2.918    -0.035    28.870     8.811
    36   6 C        2.915    -0.031    28.783     8.798
    37   6 C        2.922    -0.037    28.911     8.818
    38   6 C        2.922    -0.036    28.902     8.816
    39   6 C        2.915    -0.032    28.789     8.798
    40   1 H        0.926     0.027     2.626     2.534
    41   1 H        0.926     0.027     2.635     2.538
    42   1 H        0.926     0.027     2.631     2.536
    43   1 H        0.926     0.030     2.588     2.516
    44   1 H        0.925     0.026     2.639     2.540
    45   1 H        0.926     0.025     2.662     2.551
    46   1 H        0.926     0.024     2.673     2.557
    47   1 H        0.926     0.023     2.691     2.565
    48   1 H        0.926     0.036     2.497     2.471
    49   1 H        0.926     0.032     2.554     2.499
    50   1 H        0.926     0.035     2.510     2.478
    51   1 H        0.926     0.037     2.487     2.466
    52   1 H        0.926     0.036     2.508     2.477
    53   1 H        0.926     0.036     2.496     2.471
    54   1 H        0.926     0.035     2.512     2.479
    55   1 H        0.926     0.036     2.503     2.474
    56   1 H        0.926     0.037     2.488     2.467
    57   1 H        0.926     0.036     2.505     2.475
    58   1 H        0.926     0.037     2.487     2.466
    59   1 H        0.926     0.035     2.513     2.479
    60   1 H        0.926     0.031     2.575     2.509
    61   1 H        0.926     0.030     2.593     2.518
    62   1 H        0.926     0.026     2.644     2.543
    63   1 H        0.925     0.026     2.640     2.541
    64   1 H        0.926     0.028     2.622     2.532
    65   1 H        0.926     0.028     2.615     2.529
    66   1 H        0.926     0.031     2.566     2.505
    67   1 H        0.926     0.031     2.568     2.506
    68   1 H        0.926     0.028     2.617     2.530

molecular dipole:
                 x           y           z       tot (Debye)
 q only:        1.415       0.077       0.164
   full:        1.361       0.081       0.149       3.487

 projected vibrational frequencies (cm⁻¹)
eigval :       -0.00    -0.00    -0.00     0.00     0.00     0.00
eigval :       12.24    13.97    19.03    33.52    35.33    48.43
eigval :       52.37    55.51    61.15    64.20    69.09    80.75
eigval :       82.76    97.54   119.05   126.37   159.04   187.83
eigval :      198.20   204.27   214.99   234.73   243.68   273.85
eigval :      279.57   292.13   308.76   311.22   359.81   367.63
eigval :      369.55   372.94   378.43   380.47   383.84   388.03
eigval :      395.74   409.94   437.36   453.55   475.61   480.90
eigval :      501.71   518.37   547.59   578.34   581.59   583.34
eigval :      585.23   585.94   590.89   598.79   603.04   612.47
eigval :      619.53   655.00   658.80   659.72   660.28   665.40
eigval :      672.13   674.87   713.19   744.61   746.76   751.44
eigval :      754.83   757.96   809.31   832.84   847.10   856.41
eigval :      866.09   869.98   871.64   872.64   879.76   887.85
eigval :      890.10   893.06   893.31   895.24   908.24   910.08
eigval :      914.48   918.59   920.48   921.29   925.11   925.55
eigval :      925.99   926.18   927.30   929.23   934.59   942.17
eigval :      943.80   969.09   979.07   983.16   992.78  1002.83
eigval :     1011.54  1078.66  1079.06  1080.39  1081.11  1081.59
eigval :     1106.71  1119.85  1120.16  1121.82  1124.83  1132.60
eigval :     1146.92  1177.21  1177.70  1178.05  1178.44  1178.90
eigval :     1180.90  1191.21  1192.11  1192.27  1199.59  1206.10
eigval :     1217.14  1253.07  1266.22  1274.47  1275.05  1278.49
eigval :     1280.92  1286.10  1300.20  1309.98  1315.27  1317.26
eigval :     1320.08  1324.00  1324.20  1326.18  1329.56  1331.60
eigval :     1358.41  1418.68  1424.70  1428.60  1430.96  1435.69
eigval :     1438.17  1439.05  1446.92  1455.60  1463.96  1466.27
eigval :     1467.37  1493.95  1534.78  1538.59  1545.02  1565.67
eigval :     1568.64  1571.73  1576.12  1579.33  1586.22  1587.02
eigval :     1592.40  3061.80  3062.17  3062.85  3062.93  3063.13
eigval :     3064.28  3073.31  3074.17  3074.27  3075.09  3075.36
eigval :     3075.55  3076.08  3077.36  3078.03  3079.22  3080.94
eigval :     3081.53  3083.68  3084.63  3086.26  3086.50  3087.26
eigval :     3087.69  3089.08  3090.01  3093.06  3095.23  3095.86

   temp. (K)  partition function   enthalpy   heat capacity  entropy
                                   cal/mol     cal/K/mol   cal/K/mol   J/K/mol
 298.15  VIB  0.499E+15            18657.159    118.226    117.003
         ROT  0.426E+08              888.752      2.981     37.890
         INT  0.212E+23            19545.911    121.207    154.893
         TR   0.108E+29             1481.254      4.968     44.493
         TOT                       21027.1651   126.1754   199.3862   834.2317

       T/K    H(0)-H(T)+PV         H(T)/Eh          T*S/Eh         G(T)/Eh
   ------------------------------------------------------------------------
    298.15    0.335089E-01    0.567692E+00    0.947348E-01    0.472957E+00
   ------------------------------------------------------------------------

         :::::::::::::::::::::::::::::::::::::::::::::::::::::
         ::                  THERMODYNAMIC                  ::
         :::::::::::::::::::::::::::::::::::::::::::::::::::::
         :: total free energy         -98.547410519520 Eh   ::
         ::.................................................::
         :: total energy              -99.020367627089 Eh   ::
         :: zero point energy           0.534182987769 Eh   ::
         :: G(RRHO) w/o ZPVE           -0.061225880200 Eh   ::
         :: G(RRHO) contrib.            0.472957107569 Eh   ::
         :::::::::::::::::::::::::::::::::::::::::::::::::::::

           -------------------------------------------------
          | TOTAL ENERGY              -99.020367627089 Eh   |
          | TOTAL ENTHALPY            -98.452675718814 Eh   |
          | TOTAL FREE ENERGY         -98.547410519520 Eh   |
          | GRADIENT NORM               0.000174546385 Eh/α |
          | HOMO-LUMO GAP               1.575670428897 eV   |
           -------------------------------------------------

 * finished run on 2025/07/18 at 16:08:12.128
