   * xtb version 6.7.1 (edcfbbe) compiled by 'albert@albert-system' on 2024-07-22

   ID    Z sym.   atoms
    1    6 C      1-16, 18-39
    2    7 N      17
    3    1 H      40-68

          program call               : xtb data2507/toluene/DPTPEA/DPTPEA_toluene_T1_crest.xyz --gfn 2 --uhf 2 --gbsa toluene --ohess vtight --parallel 40 --molden --ceasefiles --namespace data2507/toluene/DPTPEA/DPTPEA_toluene_T1_finalOpt
      * Solvation model:               GBSA
        Solvent                        toluene
        Solvent mass                       9.2140E+01 g/mol
          :  Hamiltonian                  GFN2-xTB          :
 * total energy  :   -99.0201804 Eh     change       -0.5127845E-09 Eh
 * total energy  :   -99.0202236 Eh     change       -0.4321049E-04 Eh
 * total energy  :   -99.0202473 Eh     change       -0.2367939E-04 Eh
 * total energy  :   -99.0202572 Eh     change       -0.9888428E-05 Eh
 * total energy  :   -99.0202691 Eh     change       -0.1191284E-04 Eh
 * total energy  :   -99.0202753 Eh     change       -0.6232282E-05 Eh
 * total energy  :   -99.0202815 Eh     change       -0.6137739E-05 Eh
 * total energy  :   -99.0202867 Eh     change       -0.5275166E-05 Eh
 * total energy  :   -99.0202922 Eh     change       -0.5457849E-05 Eh
 * total energy  :   -99.0202981 Eh     change       -0.5889956E-05 Eh
 * total energy  :   -99.0203511 Eh     change       -0.6785135E-06 Eh
 * total energy  :   -99.0203519 Eh     change       -0.7629150E-06 Eh
 * total energy  :   -99.0203527 Eh     change       -0.8302825E-06 Eh
 * total energy  :   -99.0203533 Eh     change       -0.6365969E-06 Eh
 * total energy  :   -99.0203538 Eh     change       -0.5056681E-06 Eh
 * total energy  :   -99.0203543 Eh     change       -0.4911503E-06 Eh
 * total energy  :   -99.0203549 Eh     change       -0.5411088E-06 Eh
 * total energy  :   -99.0203555 Eh     change       -0.6159992E-06 Eh
 * total energy  :   -99.0203555 Eh     change       -0.2840437E-08 Eh
   *** GEOMETRY OPTIMIZATION CONVERGED AFTER 44 ITERATIONS ***

 final structure:
================
68
 xtb: 6.7.1 (edcfbbe)
C           -6.28732359538137        0.33268777359584        2.41567941919220
C           -5.21399294244792       -0.53077413483210        2.59668060057518
C           -4.09258243890997       -0.42602091965086        1.80629554507099
C           -3.99355754668700        0.56448981806186        0.80757236190461
C           -2.83323774772610        0.64330573765783       -0.02562010688607
C           -2.04941758464664       -0.57929270825483       -0.25162667345448
C           -2.75715733279241       -1.76072817612579       -0.66550128204874
C           -2.32227521764915       -3.05168870242851       -0.31142759943691
C           -3.04012081730640       -4.16876765910343       -0.67952803799682
C           -4.21240808264635       -4.04487278528491       -1.41225703117762
C           -4.66667090574037       -2.77953432178217       -1.75972220810617
C           -3.95979130477488       -1.65751115725193       -1.38913266895979
C           -0.64503419966403       -0.53882725734782       -0.07592445053178
C            0.22849344003005       -1.44303722761078       -0.73050630700689
C            1.58844516413339       -1.33259772022234       -0.62356568005815
C            2.17261406832131       -0.31996364268216        0.15320988455810
N            3.55373352401442       -0.19374355191884        0.24062106043379
C            4.13918002700208        1.07587658699762        0.33247268780955
C            5.26316865696939        1.27814893963195        1.13416426171068
C            5.84126695632936        2.53017730160244        1.21711246159094
C            5.30777206512872        3.59799056210118        0.51272702068022
C            4.18953527076212        3.40264861123744       -0.28261815623991
C            3.60837792305524        2.15310224618924       -0.37858727845013
C            4.36888947244495       -1.33269605248651        0.21307707656316
C            3.97430430285439       -2.49809555593642        0.87146851655168
C            4.77997770258631       -3.61984953100979        0.84179655372466
C            5.98936129201855       -3.59771369113417        0.16507133383449
C            6.38715391521063       -2.44156791015745       -0.48781345356066
C            5.58546003604430       -1.31661287494818       -0.47005502375384
C            1.32422289226170        0.57501463412919        0.82295228592026
C           -0.03502972574570        0.47246187463252        0.70857610197115
C           -2.40298383963565        1.85536730493458       -0.64880648292612
C           -1.59770616576891        1.82433819856020       -1.80767831130011
C           -1.12848549068270        2.98377407506805       -2.38111902446804
C           -1.42988305262994        4.21971931269999       -1.82277838247145
C           -2.20972720259772        4.27507081425175       -0.67435610539096
C           -2.68963927383013        3.12188859058062       -0.09579286460379
C           -5.10096843553259        1.41936715795074        0.63134651042103
C           -6.22244944433109        1.30022096962809        1.42145578786177
H           -7.16778101917175        0.24591856390858        3.03506847979670
H           -5.25885823669048       -1.29010892514940        3.36483486624472
H           -3.25725909900766       -1.09229065339178        1.96486357840733
H           -1.43775437899830       -3.16153741861715        0.29923078937832
H           -2.69109456764642       -5.14901179844987       -0.38529275392629
H           -4.77091225114428       -4.92318243593892       -1.70075750411779
H           -5.58130647093589       -2.67319452384706       -2.32626961107396
H           -4.31572198954134       -0.67846834674378       -1.67657706687528
H           -0.18921462584980       -2.19086462972568       -1.38766121656967
H            2.22799034279491       -2.01143727876352       -1.16958739319476
H            5.67378759713566        0.44963988144466        1.69268701090694
H            6.70983844672060        2.67458785714439        1.84286467564775
H            5.76073165849328        4.57544516533260        0.58282111975226
H            3.77017530747239        4.22737222236959       -0.84011004384548
H            2.74329265205368        2.00106051450322       -1.00760844815745
H            3.03782714687335       -2.51204297880546        1.40969187204588
H            4.46524559187643       -4.51480665368687        1.35840125874736
H            6.61749031437654       -4.47552849893672        0.14679788430729
H            7.32543002771959       -2.41766888040979       -1.02249930996117
H            5.89214351298920       -0.41998714683132       -0.98858727327304
H            1.75632232661839        1.34552596945893        1.44521151911413
H           -0.66458736734422        1.15881151739116        1.25449951112966
H           -1.37283444257978        0.87049133438105       -2.26221050217790
H           -0.52244995804382        2.93137073131716       -3.27502459336996
H           -1.05643462004455        5.12787599859645       -2.27228296800713
H           -2.43300337846724        5.23169471714763       -0.22264889074680
H           -3.25099715318751        3.17928840809495        0.82532858651926
H           -5.08455085802451        2.14495533016507       -0.16892279850474
H           -7.06291185178669        1.96064907679420        1.25891046256765

          :  Hamiltonian                  GFN2-xTB          :
         :: gradient norm              0.000037561780 Eh/a0 ::
         :: HOMO-LUMO gap              1.575368173378 eV    ::
         :: SCC energy              -100.924211158625 Eh    ::
         :: -> dispersion             -0.094003947634 Eh    ::
         :: -> Gsolv                  -0.040066921692 Eh    ::
         :: repulsion energy           1.903855683608 Eh    ::

    * Orbital Energies and Occupations

         #    Occupation            Energy/Eh            Energy/eV
      -------------------------------------------------------------
         1        2.0000           -0.6699919             -18.2314
       ...           ...                  ...                  ...
        82        2.0000           -0.4114081             -11.1950
        83        2.0000           -0.4101857             -11.1617
        84        2.0000           -0.4099778             -11.1561
        85        2.0000           -0.4079242             -11.1002
        86        2.0000           -0.4054919             -11.0340
        87        2.0000           -0.4025226             -10.9532
        88        2.0000           -0.4000382             -10.8856
        89        2.0000           -0.3986923             -10.8490
        90        2.0000           -0.3958793             -10.7724
        91        2.0000           -0.3932071             -10.6997
        92        2.0000           -0.3600904              -9.7986
        93        1.0000           -0.3310091              -9.0072
        94        1.0000           -0.2921973              -7.9511 (HOMO)
        95                         -0.2343035              -6.3757 (LUMO)
        96                         -0.2311552              -6.2901
        97                         -0.2297062              -6.2506
        98                         -0.2252023              -6.1281
        99                         -0.2246636              -6.1134
       100                         -0.2195157              -5.9733
       101                         -0.2173104              -5.9133
       102                         -0.2162241              -5.8838
       103                         -0.2147901              -5.8447
       104                         -0.2067862              -5.6269
       105                         -0.1899122              -5.1678
       ...                                ...                  ...
       185                          0.6920315              18.8311
      -------------------------------------------------------------
                  HL-Gap            0.0578938 Eh            1.5754 eV

     #   Z          covCN         q      C6AA      α(0)
     1   6 C        2.919    -0.035    28.867     8.811
     2   6 C        2.915    -0.031    28.772     8.796
     3   6 C        2.924    -0.035    28.869     8.811
     4   6 C        2.970     0.013    27.713     8.635
     5   6 C        2.970    -0.009    28.238     8.716
     6   6 C        2.969    -0.017    28.426     8.745
     7   6 C        2.971     0.013    27.729     8.638
     8   6 C        2.922    -0.038    28.955     8.824
     9   6 C        2.916    -0.033    28.810     8.802
    10   6 C        2.919    -0.037    28.921     8.819
    11   6 C        2.915    -0.032    28.793     8.799
    12   6 C        2.924    -0.037    28.913     8.818
    13   6 C        2.969     0.010    27.800     8.649
    14   6 C        2.920    -0.038    28.945     8.823
    15   6 C        2.915    -0.047    29.168     8.856
    16   6 C        2.924     0.058    26.692     8.472
    17   7 N        2.752    -0.058    22.356     7.022
    18   6 C        2.925     0.064    26.562     8.452
    19   6 C        2.922    -0.046    29.132     8.851
    20   6 C        2.919    -0.029    28.724     8.789
    21   6 C        2.919    -0.036    28.903     8.816
    22   6 C        2.919    -0.029    28.717     8.788
    23   6 C        2.922    -0.044    29.102     8.847
    24   6 C        2.925     0.064    26.560     8.452
    25   6 C        2.922    -0.045    29.107     8.847
    26   6 C        2.919    -0.029    28.720     8.788
    27   6 C        2.919    -0.036    28.901     8.816
    28   6 C        2.919    -0.029    28.719     8.788
    29   6 C        2.922    -0.045    29.126     8.850
    30   6 C        2.915    -0.046    29.149     8.853
    31   6 C        2.922    -0.036    28.903     8.816
    32   6 C        2.970     0.013    27.712     8.635
    33   6 C        2.923    -0.035    28.877     8.812
    34   6 C        2.915    -0.031    28.775     8.796
    35   6 C        2.918    -0.035    28.869     8.811
    36   6 C        2.915    -0.031    28.783     8.798
    37   6 C        2.922    -0.037    28.910     8.817
    38   6 C        2.922    -0.036    28.904     8.816
    39   6 C        2.915    -0.032    28.789     8.798
    40   1 H        0.926     0.027     2.626     2.534
    41   1 H        0.926     0.027     2.636     2.539
    42   1 H        0.926     0.027     2.632     2.537
    43   1 H        0.926     0.030     2.586     2.515
    44   1 H        0.925     0.026     2.640     2.541
    45   1 H        0.926     0.025     2.663     2.552
    46   1 H        0.926     0.024     2.674     2.557
    47   1 H        0.926     0.023     2.691     2.565
    48   1 H        0.926     0.037     2.495     2.470
    49   1 H        0.926     0.032     2.551     2.498
    50   1 H        0.926     0.035     2.510     2.477
    51   1 H        0.926     0.037     2.487     2.466
    52   1 H        0.926     0.036     2.508     2.476
    53   1 H        0.926     0.036     2.496     2.471
    54   1 H        0.926     0.035     2.513     2.479
    55   1 H        0.926     0.036     2.505     2.475
    56   1 H        0.926     0.037     2.489     2.467
    57   1 H        0.926     0.036     2.507     2.476
    58   1 H        0.926     0.037     2.488     2.466
    59   1 H        0.926     0.035     2.513     2.479
    60   1 H        0.926     0.031     2.575     2.510
    61   1 H        0.926     0.030     2.592     2.517
    62   1 H        0.926     0.026     2.644     2.543
    63   1 H        0.925     0.026     2.640     2.541
    64   1 H        0.926     0.028     2.621     2.532
    65   1 H        0.925     0.028     2.615     2.529
    66   1 H        0.926     0.031     2.565     2.505
    67   1 H        0.926     0.031     2.567     2.505
    68   1 H        0.926     0.028     2.617     2.530

molecular dipole:
                 x           y           z       tot (Debye)
 q only:        1.414       0.073       0.131
   full:        1.361       0.077       0.120       3.477

 projected vibrational frequencies (cm⁻¹)
eigval :       -0.00    -0.00     0.00     0.00     0.00     0.00
eigval :       11.08    14.77    18.04    24.40    37.75    46.94
eigval :       51.56    52.68    60.83    61.91    67.35    81.27
eigval :       83.37    96.97   118.44   126.59   160.19   187.31
eigval :      196.22   204.97   215.29   235.79   243.99   273.66
eigval :      279.86   292.72   309.13   311.25   359.87   367.74
eigval :      370.13   372.59   378.98   380.27   384.83   388.21
eigval :      396.54   410.84   436.16   453.17   476.16   481.48
eigval :      503.40   518.09   547.58   578.38   581.65   583.48
eigval :      585.26   585.57   590.97   598.90   602.86   612.29
eigval :      619.54   655.30   658.64   659.46   660.98   665.76
eigval :      672.41   675.53   713.24   744.43   746.72   750.48
eigval :      756.30   759.42   809.83   832.95   847.12   855.09
eigval :      865.82   867.60   871.92   873.33   880.12   887.94
eigval :      889.48   893.20   893.78   895.69   908.45   910.21
eigval :      914.61   919.55   919.75   921.38   923.35   923.84
eigval :      927.05   928.49   928.62   929.98   934.58   939.48
eigval :      941.79   969.05   978.91   983.07   992.67  1002.96
eigval :     1012.21  1078.22  1078.81  1080.63  1080.73  1081.84
eigval :     1106.51  1120.21  1120.28  1122.22  1125.01  1132.98
eigval :     1147.52  1177.54  1178.15  1178.43  1178.54  1179.12
eigval :     1181.20  1191.06  1192.34  1193.00  1199.56  1205.94
eigval :     1217.79  1253.19  1266.89  1273.69  1275.42  1278.60
eigval :     1280.72  1285.81  1300.74  1310.15  1315.40  1317.14
eigval :     1320.60  1324.22  1324.28  1326.25  1329.68  1331.70
eigval :     1356.95  1418.67  1424.45  1428.63  1431.03  1435.27
eigval :     1438.12  1439.11  1446.24  1455.28  1464.11  1466.51
eigval :     1467.56  1494.47  1534.86  1538.43  1544.27  1565.58
eigval :     1568.51  1571.75  1576.18  1579.17  1586.35  1587.00
eigval :     1592.58  3061.75  3062.10  3062.65  3062.72  3062.96
eigval :     3064.70  3073.06  3074.25  3074.46  3075.10  3075.58
eigval :     3075.71  3076.26  3077.54  3077.77  3078.98  3080.91
eigval :     3082.21  3083.69  3084.81  3086.33  3086.64  3087.28
eigval :     3087.64  3089.28  3089.62  3092.82  3095.29  3095.99

   temp. (K)  partition function   enthalpy   heat capacity  entropy
                                   cal/mol     cal/K/mol   cal/K/mol   J/K/mol
 298.15  VIB  0.792E+15            18675.183    117.997    117.279
         ROT  0.425E+08              888.752      2.981     37.885
         INT  0.336E+23            19563.936    120.978    155.165
         TR   0.108E+29             1481.254      4.968     44.493
         TOT                       21045.1895   125.9458   199.6578   835.3681

       T/K    H(0)-H(T)+PV         H(T)/Eh          T*S/Eh         G(T)/Eh
   ------------------------------------------------------------------------
    298.15    0.335376E-01    0.567707E+00    0.948638E-01    0.472843E+00
   ------------------------------------------------------------------------

         :::::::::::::::::::::::::::::::::::::::::::::::::::::
         ::                  THERMODYNAMIC                  ::
         :::::::::::::::::::::::::::::::::::::::::::::::::::::
         :: total free energy         -98.547512529381 Eh   ::
         ::.................................................::
         :: total energy              -99.020355478773 Eh   ::
         :: zero point energy           0.534169154360 Eh   ::
         :: G(RRHO) w/o ZPVE           -0.061326204968 Eh   ::
         :: G(RRHO) contrib.            0.472842949392 Eh   ::
         :::::::::::::::::::::::::::::::::::::::::::::::::::::

           -------------------------------------------------
          | TOTAL ENERGY              -99.020355478773 Eh   |
          | TOTAL ENTHALPY            -98.452648680225 Eh   |
          | TOTAL FREE ENERGY         -98.547512529381 Eh   |
          | GRADIENT NORM               0.000037547992 Eh/α |
          | HOMO-LUMO GAP               1.575369663616 eV   |
           -------------------------------------------------

 * finished run on 2025/07/18 at 16:11:56.055
