   * xtb version 6.7.1 (edcfbbe) compiled by 'albert@albert-system' on 2024-07-22

   ID    Z sym.   atoms
    1    8 O      1, 3
    2   16 S      2, 15
    3    6 C      4-7, 9-14, 16-27, 29-42
    4    7 N      8, 28
    5    1 H      43-66

          program call               : xtb data2507/gas/SFPC/SFPC_gas_S0_crest.xyz --gfn 2 --ohess vtight --parallel 40 --molden --ceasefiles --namespace data2507/gas/SFPC/SFPC_gas_S0_finalOpt
          :  Hamiltonian                  GFN2-xTB          :
 * total energy  :  -109.8133017 Eh     change       -0.6145768E-08 Eh
 * total energy  :  -109.8133032 Eh     change       -0.1530157E-05 Eh
 * total energy  :  -109.8133058 Eh     change       -0.2648014E-05 Eh
 * total energy  :  -109.8133082 Eh     change       -0.2339339E-05 Eh
 * total energy  :  -109.8133098 Eh     change       -0.1602033E-05 Eh
 * total energy  :  -109.8133117 Eh     change       -0.1928426E-05 Eh
 * total energy  :  -109.8133145 Eh     change       -0.2808604E-05 Eh
 * total energy  :  -109.8133173 Eh     change       -0.2816719E-05 Eh
 * total energy  :  -109.8133192 Eh     change       -0.1833297E-05 Eh
 * total energy  :  -109.8133204 Eh     change       -0.1276899E-05 Eh
 * total energy  :  -109.8133263 Eh     change       -0.1316019E-05 Eh
 * total energy  :  -109.8133274 Eh     change       -0.1108996E-05 Eh
 * total energy  :  -109.8133286 Eh     change       -0.1210911E-05 Eh
 * total energy  :  -109.8133303 Eh     change       -0.1640494E-05 Eh
 * total energy  :  -109.8133326 Eh     change       -0.2310028E-05 Eh
 * total energy  :  -109.8133350 Eh     change       -0.2400259E-05 Eh
 * total energy  :  -109.8133367 Eh     change       -0.1700936E-05 Eh
 * total energy  :  -109.8133377 Eh     change       -0.1013838E-05 Eh
 * total energy  :  -109.8133377 Eh     change       -0.9845223E-08 Eh
   *** GEOMETRY OPTIMIZATION CONVERGED AFTER 22 ITERATIONS ***

 final structure:
================
66
 xtb: 6.7.1 (edcfbbe)
O            0.26710669622199        5.47853266628872        1.36321715829614
S            0.06531634580903        4.78481742951792        0.12265614154963
O           -0.07466894039379        5.54432259678806       -1.08781602885827
C            1.28566221263562        3.47714973313747       -0.08790418879911
C            1.69667689405399        2.79087444175890        1.04107636641591
C            2.19207174778519        1.50723172569778        0.91522849789616
C            2.25810784724911        0.91343869943154       -0.34235501147112
N            2.57390552728809       -0.46608519748434       -0.42526686607375
C            1.55551959652828       -1.36278821242823       -0.76181182416603
C            0.34087698850306       -0.91366306627925       -1.28149131600006
C           -0.66474135310825       -1.79600823851141       -1.63513782854445
C           -0.48964244240504       -3.15725962904635       -1.48318560389797
C            0.69440442260708       -3.62116161961263       -0.94060947847718
C            1.69641170824391       -2.74024084532672       -0.56967341686296
S            3.10308761707726       -3.44627773344496        0.24181140892444
C            4.29184104917020       -2.15058691070964        0.03679728688007
C            5.62817957041810       -2.47862116193956        0.19580722743340
C            6.60744862110960       -1.50534491559610        0.10490007324969
C            6.23921867756316       -0.20023897930464       -0.16570539921347
C            4.90724765519608        0.12602465229220       -0.34642171934183
C            3.90501582674738       -0.83843119568698       -0.23823601511338
C            1.95886995960625        1.65750290164173       -1.48188669388661
C            1.45346594992814        2.93806022425155       -1.35008800257625
C           -1.25196253476937        3.57042343683978        0.27733378960438
C           -1.77022659460769        3.00995851385739       -0.87624515237536
C           -2.41112927155931        1.78756772112509       -0.81721874650620
C           -2.50728479953945        1.11422017135563        0.40152771556254
N           -2.98475618135019       -0.19453152687359        0.45316378065184
C           -4.12800573025115       -0.68857758114802       -0.14773904788408
C           -5.13908178898638       -0.00945827162258       -0.81063528131085
C           -6.20407835065424       -0.74882110813239       -1.29045550437115
C           -6.27123985372035       -2.12811453858684       -1.10947821795913
C           -5.27803585412310       -2.80518696924240       -0.42957669982614
C           -4.19724743483902       -2.08444646396547        0.06050103129176
C           -3.02133428087443       -2.44770467189666        0.80307222912614
C           -2.51464357820575       -3.65912595348032        1.25447199261820
C           -1.29525130700389       -3.66610098619838        1.90070039769855
C           -0.57740742093138       -2.48790543069543        2.08870518548893
C           -1.06519639227480       -1.26983564658715        1.65633600950694
C           -2.30017616961659       -1.25468668741581        1.02568628852762
C           -2.06180966970045        1.73286341415737        1.57133034156441
C           -1.42538475362071        2.95590718604717        1.50491935307949
H            1.58408167830502        3.25826119807495        2.00640207415843
H            2.48195775361004        0.93784921791707        1.78569651286077
H            0.16337032062310        0.14419178780509       -1.39487511950855
H           -1.58982496515519       -1.40840639439026       -2.03427441457272
H           -1.26777031999589       -3.84901015111110       -1.76247857753880
H            0.85085851862643       -4.67627589911850       -0.77708802295470
H            5.88605897421279       -3.50471386283355        0.40853562523992
H            7.64419650057849       -1.76793830549965        0.24367374251987
H            6.98769407043534        0.57311504806852       -0.24503987331394
H            4.63417411653379        1.14590073181363       -0.57095014454626
H            2.08069940034081        1.21052733538796       -2.45734904044760
H            1.15650158985313        3.51835835530001       -2.20951008619744
H           -1.63211626557528        3.52573938608093       -1.81358011339066
H           -2.78139282079146        1.32018126348986       -1.71685279430836
H           -5.10494838114181        1.06203819480651       -0.93844319344649
H           -7.00326322988871       -0.24473094909247       -1.81310565544055
H           -7.11918240094678       -2.67022455830627       -1.50026073221334
H           -5.33887913375314       -3.87172199523088       -0.27523592723783
H           -3.06179340650337       -4.57503494986281        1.09070997758768
H           -0.88027061289657       -4.59722942883391        2.25544709759311
H            0.38440883519359       -2.52931318721573        2.57750094088328
H           -0.49121504752747       -0.36416031041253        1.78682869196047
H           -2.19693574838893        1.23347796417734        2.51840952963181
H           -1.04157017105331        3.43941931100268        2.38929499264030

          :  Hamiltonian                  GFN2-xTB          :
         :: gradient norm              0.000064595850 Eh/a0 ::
         :: HOMO-LUMO gap              1.706145274161 eV    ::
         :: SCC energy              -111.686002291705 Eh    ::
         :: -> dispersion             -0.112147499371 Eh    ::
         :: repulsion energy           1.872664591546 Eh    ::

    * Orbital Energies and Occupations

         #    Occupation            Energy/Eh            Energy/eV
      -------------------------------------------------------------
         1        2.0000           -0.7785572             -21.1856
       ...           ...                  ...                  ...
        89        2.0000           -0.4316945             -11.7470
        90        2.0000           -0.4293475             -11.6831
        91        2.0000           -0.4287902             -11.6680
        92        2.0000           -0.4273320             -11.6283
        93        2.0000           -0.4266910             -11.6109
        94        2.0000           -0.4215519             -11.4710
        95        2.0000           -0.4197258             -11.4213
        96        2.0000           -0.4139383             -11.2638
        97        2.0000           -0.4121303             -11.2146
        98        2.0000           -0.3886549             -10.5758
        99        2.0000           -0.3877794             -10.5520
       100        2.0000           -0.3746892             -10.1958
       101        2.0000           -0.3484816              -9.4827 (HOMO)
       102                         -0.2857819              -7.7765 (LUMO)
       103                         -0.2654346              -7.2228
       104                         -0.2580002              -7.0205
       105                         -0.2553680              -6.9489
       106                         -0.2515916              -6.8462
       107                         -0.2493185              -6.7843
       108                         -0.2384997              -6.4899
       109                         -0.2337771              -6.3614
       110                         -0.2311652              -6.2903
       111                         -0.2110575              -5.7432
       112                         -0.2034360              -5.5358
       ...                                ...                  ...
       202                          1.2170408              33.1174
      -------------------------------------------------------------
                  HL-Gap            0.0626997 Eh            1.7061 eV

     #   Z          covCN         q      C6AA      α(0)
     1   8 O        0.860    -0.527    24.401     6.623
     2  16 S        3.835     0.962   107.735    17.469
     3   8 O        0.860    -0.528    24.404     6.623
     4   6 C        2.971    -0.084    30.090     8.998
     5   6 C        2.963    -0.030    28.750     8.795
     6   6 C        2.924    -0.035    28.881     8.813
     7   6 C        2.931     0.074    26.353     8.419
     8   7 N        2.750    -0.074    22.673     7.072
     9   6 C        2.941     0.059    26.687     8.473
    10   6 C        2.927    -0.060    29.488     8.905
    11   6 C        2.920    -0.031    28.783     8.798
    12   6 C        2.918    -0.037    28.915     8.818
    13   6 C        2.988    -0.038    28.940     8.825
    14   6 C        2.972     0.034    27.246     8.562
    15  16 S        2.132    -0.144   147.133    20.415
    16   6 C        2.971     0.033    27.249     8.563
    17   6 C        2.979    -0.039    28.965     8.828
    18   6 C        2.919    -0.038    28.934     8.821
    19   6 C        2.919    -0.033    28.819     8.803
    20   6 C        2.928    -0.057    29.405     8.893
    21   6 C        2.949     0.058    26.688     8.473
    22   6 C        2.922    -0.036    28.900     8.816
    23   6 C        2.961    -0.031    28.760     8.796
    24   6 C        2.971    -0.087    30.176     9.011
    25   6 C        2.960    -0.030    28.758     8.796
    26   6 C        2.923    -0.040    28.993     8.830
    27   6 C        2.914     0.072    26.390     8.424
    28   7 N        2.803    -0.041    22.030     6.971
    29   6 C        3.070     0.046    26.901     8.504
    30   6 C        2.910    -0.051    29.264     8.870
    31   6 C        2.924    -0.032    28.803     8.801
    32   6 C        2.920    -0.039    28.973     8.827
    33   6 C        2.913    -0.032    28.792     8.799
    34   6 C        3.067    -0.014    28.301     8.723
    35   6 C        3.067    -0.014    28.297     8.723
    36   6 C        2.913    -0.032    28.789     8.798
    37   6 C        2.920    -0.038    28.947     8.823
    38   6 C        2.925    -0.031    28.765     8.795
    39   6 C        2.910    -0.050    29.233     8.866
    40   6 C        3.073     0.045    26.906     8.505
    41   6 C        2.924    -0.040    28.995     8.830
    42   6 C        2.963    -0.030    28.750     8.795
    43   1 H        0.926     0.064     2.153     2.295
    44   1 H        0.926     0.058     2.226     2.333
    45   1 H        0.926     0.025     2.657     2.549
    46   1 H        0.926     0.031     2.576     2.510
    47   1 H        0.926     0.039     2.464     2.455
    48   1 H        0.926     0.047     2.353     2.399
    49   1 H        0.926     0.047     2.358     2.401
    50   1 H        0.926     0.040     2.453     2.449
    51   1 H        0.926     0.038     2.473     2.459
    52   1 H        0.926     0.031     2.568     2.506
    53   1 H        0.926     0.060     2.204     2.322
    54   1 H        0.926     0.065     2.144     2.290
    55   1 H        0.926     0.062     2.178     2.308
    56   1 H        0.926     0.057     2.233     2.337
    57   1 H        0.926     0.029     2.605     2.524
    58   1 H        0.926     0.034     2.536     2.490
    59   1 H        0.926     0.033     2.550     2.497
    60   1 H        0.926     0.035     2.521     2.483
    61   1 H        0.926     0.036     2.502     2.474
    62   1 H        0.926     0.035     2.515     2.480
    63   1 H        0.926     0.034     2.533     2.489
    64   1 H        0.926     0.020     2.735     2.586
    65   1 H        0.926     0.059     2.208     2.324
    66   1 H        0.926     0.063     2.168     2.303

molecular dipole:
                 x           y           z       tot (Debye)
 q only:       -0.192      -1.890      -0.173
   full:       -0.215      -1.506      -0.304       3.944

 projected vibrational frequencies (cm⁻¹)
eigval :       -0.00    -0.00    -0.00    -0.00     0.00     0.00
eigval :        9.13    18.59    24.99    30.80    36.94    43.64
eigval :       52.08    66.51    77.85    89.54   102.22   107.49
eigval :      109.54   121.01   125.03   148.07   156.20   159.16
eigval :      166.85   194.39   228.26   231.70   240.81   242.69
eigval :      261.18   273.81   277.97   297.33   312.49   353.85
eigval :      365.24   368.67   375.51   381.52   385.21   393.26
eigval :      398.64   404.26   410.46   416.76   421.13   425.67
eigval :      431.03   439.43   471.41   491.22   493.26   504.75
eigval :      516.46   521.79   524.55   534.42   541.34   554.04
eigval :      581.89   589.32   592.49   601.93   611.26   628.52
eigval :      647.30   648.26   654.96   667.55   673.11   683.27
eigval :      688.85   707.29   708.04   737.26   745.24   758.00
eigval :      769.36   773.04   773.80   781.94   810.56   823.51
eigval :      859.94   864.72   866.39   875.14   875.77   882.75
eigval :      897.59   900.84   902.31   903.50   904.31   906.58
eigval :      909.10   915.99   917.12   919.01   921.20   923.29
eigval :      926.31   927.07   932.55   936.15  1000.43  1004.16
eigval :     1012.46  1042.44  1052.00  1070.59  1075.60  1085.07
eigval :     1100.49  1102.49  1108.28  1109.31  1116.63  1117.72
eigval :     1138.19  1152.44  1153.22  1159.14  1164.89  1170.73
eigval :     1177.24  1179.06  1180.96  1183.15  1196.71  1207.29
eigval :     1235.55  1240.28  1243.91  1244.91  1245.02  1257.18
eigval :     1258.69  1297.65  1298.42  1299.81  1310.79  1316.86
eigval :     1320.22  1324.24  1333.07  1356.22  1360.18  1363.69
eigval :     1391.70  1398.11  1410.48  1420.60  1424.20  1428.20
eigval :     1454.44  1462.64  1472.77  1476.50  1478.22  1487.36
eigval :     1558.18  1569.35  1570.09  1571.83  1573.02  1573.74
eigval :     1576.42  1577.55  1590.43  1593.16  1600.19  1613.97
eigval :     3074.33  3079.83  3083.63  3084.61  3084.95  3087.53
eigval :     3089.64  3090.05  3090.93  3091.88  3093.73  3094.69
eigval :     3095.40  3096.49  3098.81  3099.00  3100.48  3103.53
eigval :     3103.85  3105.56  3107.07  3107.84  3109.42  3110.78

   temp. (K)  partition function   enthalpy   heat capacity  entropy
                                   cal/mol     cal/K/mol   cal/K/mol   J/K/mol
 298.15  VIB  0.280E+15            19530.396    125.278    119.873
         ROT  0.443E+08              888.752      2.981     37.969
         INT  0.124E+23            20419.148    128.259    157.843
         TR   0.135E+29             1481.254      4.968     44.941
         TOT                       21900.4022   133.2270   202.7839   848.4480

       T/K    H(0)-H(T)+PV         H(T)/Eh          T*S/Eh         G(T)/Eh
   ------------------------------------------------------------------------
    298.15    0.349005E-01    0.524203E+00    0.963492E-01    0.427854E+00
   ------------------------------------------------------------------------

         :::::::::::::::::::::::::::::::::::::::::::::::::::::
         ::                  THERMODYNAMIC                  ::
         :::::::::::::::::::::::::::::::::::::::::::::::::::::
         :: total free energy        -109.385483483524 Eh   ::
         ::.................................................::
         :: total energy             -109.813337700159 Eh   ::
         :: zero point energy           0.489302896936 Eh   ::
         :: G(RRHO) w/o ZPVE           -0.061448680301 Eh   ::
         :: G(RRHO) contrib.            0.427854216635 Eh   ::
         :::::::::::::::::::::::::::::::::::::::::::::::::::::

           -------------------------------------------------
          | TOTAL ENERGY             -109.813337700159 Eh   |
          | TOTAL ENTHALPY           -109.289134290868 Eh   |
          | TOTAL FREE ENERGY        -109.385483483524 Eh   |
          | GRADIENT NORM               0.000064603125 Eh/α |
          | HOMO-LUMO GAP               1.706146336003 eV   |
           -------------------------------------------------

 * finished run on 2025/08/26 at 02:18:29.051
