   * xtb version 6.7.1 (edcfbbe) compiled by 'albert@albert-system' on 2024-07-22

   ID    Z sym.   atoms
    1    8 O      1, 3
    2   16 S      2, 15
    3    6 C      4-7, 9-14, 16-27, 29-42
    4    7 N      8, 28
    5    1 H      43-66

          program call               : xtb data2507/gas/SFPC/SFPC.xyz --gfn 2 --ohess vtight --parallel 40 --molden --ceasefiles --namespace data2507/gas/SFPC/SFPC_gas_S0_preOpt
          :  Hamiltonian                  GFN2-xTB          :
 * total energy  :  -109.7908849 Eh     change       -0.2671428E-08 Eh
 * total energy  :  -109.8058249 Eh     change       -0.1493996E-01 Eh
 * total energy  :  -109.8100579 Eh     change       -0.4232991E-02 Eh
 * total energy  :  -109.8107220 Eh     change       -0.6641216E-03 Eh
 * total energy  :  -109.8110521 Eh     change       -0.3300536E-03 Eh
 * total energy  :  -109.8111617 Eh     change       -0.1096678E-03 Eh
 * total energy  :  -109.8112345 Eh     change       -0.7276567E-04 Eh
 * total energy  :  -109.8112930 Eh     change       -0.5852064E-04 Eh
 * total energy  :  -109.8113551 Eh     change       -0.6212345E-04 Eh
 * total energy  :  -109.8114143 Eh     change       -0.5913416E-04 Eh
 * total energy  :  -109.8128452 Eh     change       -0.2391389E-06 Eh
 * total energy  :  -109.8128456 Eh     change       -0.3413532E-06 Eh
 * total energy  :  -109.8128461 Eh     change       -0.4847784E-06 Eh
 * total energy  :  -109.8128468 Eh     change       -0.7088607E-06 Eh
 * total energy  :  -109.8128478 Eh     change       -0.9797698E-06 Eh
 * total energy  :  -109.8128489 Eh     change       -0.1159587E-05 Eh
 * total energy  :  -109.8128500 Eh     change       -0.1055357E-05 Eh
 * total energy  :  -109.8128507 Eh     change       -0.7737102E-06 Eh
 * total energy  :  -109.8128508 Eh     change       -0.7011607E-08 Eh
   *** GEOMETRY OPTIMIZATION CONVERGED AFTER 260 ITERATIONS ***

 final structure:
================
66
 xtb: 6.7.1 (edcfbbe)
O            0.44043740860267        5.18712793803104        0.69925767480033
S            0.40274458838639        4.34889748866334       -0.46729496796741
O            0.47903545660257        4.95939393922173       -1.76577185958142
C            1.65707588023191        3.06638034848340       -0.34188195597118
C            2.19389801322833        2.52650294961911       -1.49418587889395
C            2.97449283432345        1.38646767717331       -1.41014967869342
C            3.19887919240645        0.79670922702628       -0.17169596285587
N            3.92789609322107       -0.42355319922746       -0.10841349070716
C            5.31359766256324       -0.34244292206295        0.02451060323244
C            5.91885593696088        0.90142338763074        0.20717822315257
C            7.29108998385598        1.02324269501390        0.33672733949841
C            8.09808694223996       -0.09809618846077        0.30260425146089
C            7.51499509545495       -1.34086351016860        0.12913118949147
C            6.14338565011770       -1.46468853202299       -0.01809733993368
S            5.52035555934549       -3.09756459668949       -0.30283474282359
C            3.78727987659573       -2.86563930943842       -0.02415163884353
C            3.02758665130417       -4.01575654748795        0.11347029169272
C            1.65388256497927       -3.94409429698197        0.26239032686665
C            1.04454126923464       -2.70406928088282        0.26812917599824
C            1.80200778278682       -1.55223350539754        0.14357186840727
C            3.19079016533581       -1.60211168622169        0.00771263407795
C            2.68915729103339        1.37506595352871        0.98877939536567
C            1.90718652461385        2.51137989393639        0.89960483049335
C           -1.02280052970562        3.26332539996744       -0.37731048196739
C           -1.31726665741135        2.47506925423139       -1.47490172687329
C           -2.28182264976764        1.49322743323878       -1.36915209561736
C           -2.94051905581128        1.29124660243335       -0.15424547482797
N           -3.86436230743701        0.25413340794804       -0.03125499392045
C           -5.13328357739195        0.34379692622960        0.51501154739385
C           -5.81570081341972        1.45536398290712        0.98596780097834
C           -7.10436300654211        1.27085442276576        1.45092879382542
C           -7.70862167788950        0.01609356193841        1.44141930711806
C           -7.04271734925848       -1.08887845300983        0.94955974148139
C           -5.74690051510257       -0.92812404329810        0.47746302093394
C           -4.79198891454404       -1.82823663275794       -0.10897889222810
C           -4.80611795910858       -3.19033406424359       -0.37824460776620
C           -3.68099985677524       -3.76669976338148       -0.93379939204501
C           -2.54689955826189       -3.00584048697351       -1.20615965344048
C           -2.51012111283415       -1.64804988741726       -0.94746554781002
C           -3.64687276375189       -1.05911931844783       -0.41365873457866
C           -2.65337544416391        2.11361583483995        0.93621422414626
C           -1.68874569257462        3.09674069430049        0.82185786171971
H            1.98862295744157        3.00467467785923       -2.43897039802017
H            3.39625499557054        0.93661071813031       -2.29611108746397
H            5.30584315824977        1.78865902106688        0.24250134175340
H            7.72237308674115        2.00368351168215        0.46826763272214
H            9.16807060853733       -0.01268505021939        0.40632053997209
H            8.11924529902100       -2.23442196976258        0.09203072022352
H            3.53145288949523       -4.96991356594806        0.08799460109955
H            1.07181725643348       -4.84618321291592        0.36440716016127
H           -0.02663089366571       -2.62200459229936        0.37306158969043
H            1.30048919307984       -0.59660635222933        0.14625175159956
H            2.89151378317747        0.91476195174467        1.94440531867560
H            1.48461338447731        2.97647912662388        1.77613118898374
H           -0.79478236517326        2.64988390831845       -2.40201286148160
H           -2.53735329236580        0.88063924472446       -2.22003956854300
H           -5.36520248740066        2.43628229125083        0.97843244353660
H           -7.65594930077538        2.12011898501494        1.82563449454830
H           -8.71611213218161       -0.08703977268540        1.81539246118394
H           -7.51688686951022       -2.05817980152129        0.92511447747364
H           -5.67891290784493       -3.78297388969571       -0.15051440270800
H           -3.67200049091229       -4.82374013019797       -1.15308602319345
H           -1.67481195755135       -3.48555828431501       -1.62564514211041
H           -1.61804948038293       -1.07272699135947       -1.14647075216013
H           -3.16357594721752        1.95323500446036        1.87358264480530
H           -1.43381246880317        3.73734337770952        1.65147888437998

          :  Hamiltonian                  GFN2-xTB          :
         :: gradient norm              0.000062836126 Eh/a0 ::
         :: HOMO-LUMO gap              1.738915851067 eV    ::
         :: SCC energy              -111.684650908170 Eh    ::
         :: -> dispersion             -0.098967199083 Eh    ::
         :: repulsion energy           1.871800155426 Eh    ::

    * Orbital Energies and Occupations

         #    Occupation            Energy/Eh            Energy/eV
      -------------------------------------------------------------
         1        2.0000           -0.7777102             -21.1626
       ...           ...                  ...                  ...
        89        2.0000           -0.4319287             -11.7534
        90        2.0000           -0.4300545             -11.7024
        91        2.0000           -0.4284631             -11.6591
        92        2.0000           -0.4283003             -11.6546
        93        2.0000           -0.4277349             -11.6393
        94        2.0000           -0.4209566             -11.4548
        95        2.0000           -0.4176629             -11.3652
        96        2.0000           -0.4158938             -11.3170
        97        2.0000           -0.4126700             -11.2293
        98        2.0000           -0.3891117             -10.5883
        99        2.0000           -0.3871723             -10.5355
       100        2.0000           -0.3760563             -10.2330
       101        2.0000           -0.3460174              -9.4156 (HOMO)
       102                         -0.2821133              -7.6767 (LUMO)
       103                         -0.2644030              -7.1948
       104                         -0.2614882              -7.1155
       105                         -0.2582893              -7.0284
       106                         -0.2532021              -6.8900
       107                         -0.2478762              -6.7451
       108                         -0.2370815              -6.4513
       109                         -0.2322551              -6.3200
       110                         -0.2313913              -6.2965
       111                         -0.2074996              -5.6464
       112                         -0.2042262              -5.5573
       ...                                ...                  ...
       202                          1.2086458              32.8889
      -------------------------------------------------------------
                  HL-Gap            0.0639040 Eh            1.7389 eV

     #   Z          covCN         q      C6AA      α(0)
     1   8 O        0.860    -0.532    24.506     6.637
     2  16 S        3.822     0.952   108.045    17.495
     3   8 O        0.860    -0.532    24.507     6.637
     4   6 C        2.971    -0.079    29.962     8.979
     5   6 C        2.955    -0.026    28.654     8.780
     6   6 C        2.924    -0.034    28.841     8.807
     7   6 C        2.933     0.077    26.278     8.407
     8   7 N        2.750    -0.076    22.713     7.078
     9   6 C        2.944     0.059    26.679     8.471
    10   6 C        2.928    -0.058    29.453     8.900
    11   6 C        2.919    -0.033    28.822     8.804
    12   6 C        2.918    -0.038    28.951     8.823
    13   6 C        2.985    -0.039    28.970     8.829
    14   6 C        2.971     0.033    27.251     8.563
    15  16 S        2.134    -0.146   147.183    20.419
    16   6 C        2.971     0.033    27.248     8.562
    17   6 C        2.988    -0.040    28.974     8.830
    18   6 C        2.918    -0.039    28.965     8.826
    19   6 C        2.919    -0.035    28.871     8.811
    20   6 C        2.927    -0.060    29.484     8.905
    21   6 C        2.943     0.059    26.682     8.472
    22   6 C        2.922    -0.033    28.832     8.805
    23   6 C        2.960    -0.029    28.716     8.790
    24   6 C        2.971    -0.083    30.085     8.997
    25   6 C        2.962    -0.029    28.729     8.792
    26   6 C        2.924    -0.040    28.988     8.829
    27   6 C        2.913     0.072    26.379     8.422
    28   7 N        2.802    -0.041    22.031     6.971
    29   6 C        3.070     0.046    26.901     8.504
    30   6 C        2.910    -0.051    29.257     8.869
    31   6 C        2.924    -0.032    28.789     8.799
    32   6 C        2.920    -0.039    28.962     8.825
    33   6 C        2.913    -0.032    28.788     8.798
    34   6 C        3.067    -0.015    28.308     8.724
    35   6 C        3.066    -0.014    28.298     8.723
    36   6 C        2.913    -0.032    28.788     8.798
    37   6 C        2.920    -0.039    28.971     8.827
    38   6 C        2.924    -0.032    28.810     8.802
    39   6 C        2.910    -0.051    29.277     8.872
    40   6 C        3.071     0.045    26.918     8.507
    41   6 C        2.923    -0.040    28.996     8.831
    42   6 C        2.953    -0.027    28.668     8.782
    43   1 H        0.926     0.069     2.097     2.264
    44   1 H        0.926     0.061     2.181     2.310
    45   1 H        0.926     0.030     2.588     2.516
    46   1 H        0.926     0.037     2.483     2.464
    47   1 H        0.926     0.039     2.465     2.455
    48   1 H        0.926     0.046     2.371     2.408
    49   1 H        0.926     0.046     2.366     2.406
    50   1 H        0.926     0.038     2.476     2.461
    51   1 H        0.926     0.037     2.494     2.469
    52   1 H        0.926     0.022     2.709     2.574
    53   1 H        0.926     0.059     2.209     2.324
    54   1 H        0.926     0.062     2.172     2.305
    55   1 H        0.926     0.058     2.227     2.334
    56   1 H        0.926     0.059     2.209     2.324
    57   1 H        0.926     0.030     2.590     2.517
    58   1 H        0.926     0.034     2.528     2.486
    59   1 H        0.926     0.033     2.545     2.495
    60   1 H        0.926     0.035     2.516     2.480
    61   1 H        0.926     0.035     2.510     2.477
    62   1 H        0.926     0.033     2.548     2.496
    63   1 H        0.926     0.034     2.534     2.489
    64   1 H        0.926     0.025     2.659     2.550
    65   1 H        0.926     0.059     2.205     2.322
    66   1 H        0.926     0.066     2.124     2.279

molecular dipole:
                 x           y           z       tot (Debye)
 q only:       -0.608      -1.699       0.307
   full:       -0.684      -1.341       0.366       3.938

 projected vibrational frequencies (cm⁻¹)
eigval :       -0.00    -0.00     0.00     0.00     0.00     0.00
eigval :        7.00     7.62    14.21    26.69    32.30    34.64
eigval :       38.55    44.83    48.26    78.52   101.13   104.66
eigval :      109.09   112.08   125.49   144.43   147.46   155.14
eigval :      157.63   186.82   227.17   228.83   237.77   243.65
eigval :      254.98   273.06   278.12   299.87   314.64   353.48
eigval :      364.09   367.48   375.50   380.60   387.93   392.39
eigval :      396.07   401.19   410.74   416.61   421.87   426.29
eigval :      429.21   439.53   473.27   491.32   492.38   503.92
eigval :      512.08   518.32   527.91   534.18   541.90   552.49
eigval :      581.25   588.30   592.70   602.99   611.83   633.24
eigval :      648.64   650.94   652.32   670.12   674.01   680.00
eigval :      686.76   707.41   708.70   737.77   747.56   758.35
eigval :      770.71   771.56   774.13   783.91   811.00   820.06
eigval :      860.38   861.31   868.62   876.13   876.78   883.79
eigval :      897.77   901.33   902.62   904.78   905.69   908.39
eigval :      909.40   916.09   917.12   920.36   921.11   922.73
eigval :      927.03   928.42   929.61   933.79  1002.39  1005.85
eigval :     1012.02  1042.46  1052.00  1071.11  1074.89  1086.82
eigval :     1103.73  1106.71  1107.85  1109.45  1117.67  1118.80
eigval :     1136.30  1152.84  1152.92  1158.93  1165.56  1171.10
eigval :     1177.15  1180.60  1181.05  1185.36  1197.13  1207.87
eigval :     1234.72  1240.01  1244.14  1244.43  1247.04  1255.16
eigval :     1258.18  1298.19  1298.71  1298.98  1309.91  1314.66
eigval :     1322.94  1323.13  1333.96  1355.81  1359.44  1363.32
eigval :     1392.43  1398.94  1408.69  1420.51  1424.11  1427.25
eigval :     1456.51  1465.33  1474.27  1475.92  1479.65  1486.64
eigval :     1556.95  1571.00  1572.13  1574.72  1574.97  1575.48
eigval :     1577.91  1580.15  1589.58  1593.59  1599.32  1613.37
eigval :     3076.63  3080.70  3083.37  3085.46  3087.05  3088.88
eigval :     3089.82  3091.74  3092.67  3092.73  3093.49  3095.11
eigval :     3096.49  3097.29  3098.35  3098.63  3100.17  3101.49
eigval :     3106.14  3106.63  3107.31  3107.96  3108.35  3109.01

   temp. (K)  partition function   enthalpy   heat capacity  entropy
                                   cal/mol     cal/K/mol   cal/K/mol   J/K/mol
 298.15  VIB  0.935E+16            19746.376    123.883    123.012
         ROT  0.627E+08              888.752      2.981     38.660
         INT  0.586E+24            20635.128    126.864    161.671
         TR   0.135E+29             1481.254      4.968     44.941
         TOT                       22116.3819   131.8322   206.6123   864.4658

       T/K    H(0)-H(T)+PV         H(T)/Eh          T*S/Eh         G(T)/Eh
   ------------------------------------------------------------------------
    298.15    0.352447E-01    0.524251E+00    0.981682E-01    0.426083E+00
   ------------------------------------------------------------------------

         :::::::::::::::::::::::::::::::::::::::::::::::::::::
         ::                  THERMODYNAMIC                  ::
         :::::::::::::::::::::::::::::::::::::::::::::::::::::
         :: total free energy        -109.386767575845 Eh   ::
         ::.................................................::
         :: total energy             -109.812850752744 Eh   ::
         :: zero point energy           0.489006639714 Eh   ::
         :: G(RRHO) w/o ZPVE           -0.062923462815 Eh   ::
         :: G(RRHO) contrib.            0.426083176899 Eh   ::
         :::::::::::::::::::::::::::::::::::::::::::::::::::::

           -------------------------------------------------
          | TOTAL ENERGY             -109.812850752744 Eh   |
          | TOTAL ENTHALPY           -109.288599415083 Eh   |
          | TOTAL FREE ENERGY        -109.386767575845 Eh   |
          | GRADIENT NORM               0.000062820996 Eh/α |
          | HOMO-LUMO GAP               1.738917198401 eV   |
           -------------------------------------------------

 * finished run on 2025/08/26 at 02:11:45.929
