   * xtb version 6.7.1 (edcfbbe) compiled by 'albert@albert-system' on 2024-07-22

   ID    Z sym.   atoms
    1    8 O      1, 3
    2   16 S      2, 15
    3    6 C      4-7, 9-14, 16-27, 29-42
    4    7 N      8, 28
    5    1 H      43-66

          program call               : xtb data2507/gas/SFPC/SFPC_gas_T1_crest.xyz --gfn 2 --spinpol --tblite --uhf 2 --ohess vtight --parallel 40 --molden --ceasefiles --namespace data2507/gas/SFPC/SFPC_gas_T1_finalOpt
 * total energy  :  -109.7297362 Eh     change        0.1229978E-08 Eh
 * total energy  :  -109.7297563 Eh     change       -0.2007939E-04 Eh
 * total energy  :  -109.7297666 Eh     change       -0.1029409E-04 Eh
 * total energy  :  -109.7297687 Eh     change       -0.2046954E-05 Eh
 * total energy  :  -109.7297689 Eh     change       -0.2119836E-06 Eh
 * total energy  :  -109.7297706 Eh     change       -0.1766842E-05 Eh
 * total energy  :  -109.7297723 Eh     change       -0.1634455E-05 Eh
 * total energy  :  -109.7297741 Eh     change       -0.1865546E-05 Eh
 * total energy  :  -109.7297758 Eh     change       -0.1660956E-05 Eh
 * total energy  :  -109.7297774 Eh     change       -0.1654989E-05 Eh
 * total energy  :  -109.7297821 Eh     change       -0.1131379E-05 Eh
 * total energy  :  -109.7297835 Eh     change       -0.1430105E-05 Eh
 * total energy  :  -109.7297851 Eh     change       -0.1532543E-05 Eh
 * total energy  :  -109.7297864 Eh     change       -0.1291357E-05 Eh
 * total energy  :  -109.7297878 Eh     change       -0.1405671E-05 Eh
 * total energy  :  -109.7297889 Eh     change       -0.1171059E-05 Eh
 * total energy  :  -109.7297895 Eh     change       -0.6140079E-06 Eh
 * total energy  :  -109.7297901 Eh     change       -0.6025601E-06 Eh
 * total energy  :  -109.7297902 Eh     change       -0.6900791E-08 Eh
   *** GEOMETRY OPTIMIZATION CONVERGED AFTER 22 ITERATIONS ***

 final structure:
================
66
 xtb: 6.7.1 (edcfbbe)
O            0.54529490198261        5.52418185560585        1.34799464550108
S            0.27740190739593        4.83959398051201        0.11224628719088
O            0.15907043010429        5.61119817507295       -1.09567577800319
C            1.41003251689559        3.47757931816227       -0.12983124865383
C            1.71958838600948        2.68924121016002        0.98131814329798
C            2.08273975234689        1.37488678946659        0.80964116251634
C            2.13956217144411        0.83422763460407       -0.47901378049890
N            2.34858587002154       -0.56798851028154       -0.62757178505935
C            1.26311208834351       -1.33699092051634       -0.98286996957920
C            0.07687015906489       -0.75254252079930       -1.45601547504454
C           -0.99767155284607       -1.51293786124568       -1.84149832095100
C           -0.96210804859629       -2.91703904410620       -1.72807201310178
C            0.15383109970852       -3.51657166023287       -1.21428505837824
C            1.27720175867685       -2.76227055432783       -0.85407979051537
S            2.56125060848885       -3.61233968624347       -0.05936141119664
C            3.83492455414834       -2.43773470966471       -0.03720541432153
C            5.10346892491754       -2.85918420292002        0.37091014977379
C            6.14376992153958       -1.97366973941577        0.46816102645095
C            5.92525580376756       -0.60995130809711        0.16882520797084
C            4.68130561368742       -0.16951953730363       -0.19157256189436
C            3.58872281432745       -1.05175703407698       -0.30471933463571
C            1.94653427403398        1.65662380076916       -1.59611374391308
C            1.56382038284238        2.96655439382416       -1.41593038131036
C           -1.09501958882352        3.70829739461450        0.30219044484837
C           -1.62457916299575        3.11640238965855       -0.83755291375112
C           -2.24855090327399        1.89038225328586       -0.75067307181084
C           -2.32047353908872        1.23416234980003        0.48191872079191
N           -2.74613146862805       -0.09749382183763        0.55997688214993
C           -3.88507212324815       -0.64925003728851        0.01175013479289
C           -4.94079829214278       -0.02706064045300       -0.63901826770447
C           -5.98369179715731       -0.82008551268992       -1.07779692842513
C           -5.98734638153140       -2.19803929948568       -0.86952782667915
C           -4.94948145574303       -2.81934612070273       -0.20388970719095
C           -3.88824665535053       -2.04441360936251        0.24517565845868
C           -2.67539618790013       -2.34277321610825        0.95367825519365
C           -2.10203742900339       -3.51888331015717        1.41876129144849
C           -0.86239917010528       -3.45814052088217        2.02286455200720
C           -0.19013185120548       -2.24516941068608        2.15716023843240
C           -0.74306743930745       -1.06056379906926        1.71128021675134
C           -1.99836973069618       -1.11341707692273        1.12166651321870
C           -1.88109196287235        1.88336614626959        1.63822940484022
C           -1.26467513205886        3.11195027344224        1.54690995738161
H            1.63891764484509        3.12553711819045        1.96354662546824
H            2.29611359520496        0.74207953907388        1.65880095659005
H            0.00918447422724        0.32098655938197       -1.52616589581843
H           -1.88426420374274       -1.03527705769516       -2.22571264881471
H           -1.81563613127526       -3.50315012484343       -2.02636696551405
H            0.20005152099248       -4.58666182008704       -1.08126971639459
H            5.24289665506152       -3.90662151599393        0.59187064835054
H            7.12409761991935       -2.31003461840543        0.76315201613498
H            6.74604632950235        0.08651586856801        0.22634253442630
H            4.52447055731988        0.87407050933653       -0.41644323574839
H            2.06924838436312        1.24409252424600       -2.58656820627568
H            1.35472564133070        3.61213156451203       -2.25408576004284
H           -1.49988615162178        3.61625706180193       -1.78539085686567
H           -2.63003717576489        1.40634275708519       -1.63694102577463
H           -4.95219345002671        1.04193877827623       -0.78874451046967
H           -6.81643731280636       -0.36171988155086       -1.59022434749737
H           -6.82083357349103       -2.78290997577037       -1.22881471249155
H           -4.96024077463658       -3.88486539340636       -0.03016295828351
H           -2.61456968858134       -4.46136784996591        1.29947092658284
H           -0.39743876601449       -4.36138406324628        2.38877415319070
H            0.78656862220545       -2.23287985393264        2.62004280678189
H           -0.21158924592609       -0.12502018742009        1.80422723988346
H           -2.00530451235967        1.39882467842013        2.59504824152134
H           -0.88587939849716        3.61967625274398        2.41960592475994

 projected vibrational frequencies (cm⁻¹)
eigval :       -0.00    -0.00    -0.00     0.00     0.00     0.00
eigval :        9.35    22.41    29.87    37.01    43.43    51.37
eigval :       59.22    72.54    80.60    88.70    98.25   103.70
eigval :      109.23   125.41   131.10   142.24   150.46   160.63
eigval :      168.12   193.92   212.85   222.51   240.37   242.18
eigval :      257.13   273.57   277.96   303.77   321.44   343.57
eigval :      364.68   369.67   370.82   375.86   379.35   383.48
eigval :      388.58   394.98   400.34   407.48   410.83   423.21
eigval :      425.67   434.32   438.31   458.86   480.11   495.88
eigval :      510.41   518.47   524.23   532.79   538.00   540.64
eigval :      577.78   579.81   591.46   599.53   608.64   609.59
eigval :      613.79   626.83   643.80   649.49   672.23   673.72
eigval :      679.96   706.93   708.10   733.92   738.16   744.24
eigval :      746.78   757.96   768.77   780.11   792.92   807.46
eigval :      843.88   845.70   853.00   862.81   872.26   874.06
eigval :      885.13   889.77   892.67   895.57   895.86   896.47
eigval :      896.85   899.09   902.13   903.79   911.67   914.97
eigval :      918.92   922.94   924.24   926.53   984.67   998.04
eigval :     1011.88  1023.12  1033.96  1058.09  1066.94  1068.76
eigval :     1071.86  1074.49  1077.55  1110.70  1115.22  1116.62
eigval :     1119.56  1142.80  1150.79  1157.93  1164.73  1167.00
eigval :     1169.83  1171.00  1175.78  1179.69  1194.91  1197.52
eigval :     1207.18  1228.34  1235.95  1238.33  1242.56  1243.11
eigval :     1249.69  1283.71  1298.22  1302.67  1313.38  1324.25
eigval :     1327.24  1335.48  1341.49  1353.86  1361.23  1361.63
eigval :     1372.17  1395.46  1398.70  1403.87  1414.75  1421.64
eigval :     1422.51  1426.62  1430.07  1442.53  1445.78  1450.48
eigval :     1471.78  1475.79  1484.30  1488.29  1508.02  1522.00
eigval :     1542.53  1569.74  1571.72  1586.81  1596.14  1610.33
eigval :     3068.52  3078.68  3079.59  3080.98  3083.28  3084.03
eigval :     3085.32  3088.30  3089.25  3090.47  3091.23  3092.40
eigval :     3094.68  3097.00  3097.60  3101.72  3102.71  3105.18
eigval :     3106.35  3107.01  3111.75  3112.62  3115.27  3117.19

   temp. (K)  partition function   enthalpy   heat capacity  entropy
                                   cal/mol     cal/K/mol   cal/K/mol   J/K/mol
 298.15  VIB  0.135E+15            19736.787    127.682    120.840
         ROT  0.409E+08              888.752      2.981     37.809
         INT  0.552E+22            20625.540    130.663    158.649
         TR   0.135E+29             1481.254      4.968     44.941
         TOT                       22106.7937   135.6314   203.5898   851.8196

       T/K    H(0)-H(T)+PV         H(T)/Eh          T*S/Eh         G(T)/Eh
   ------------------------------------------------------------------------
    298.15    0.352294E-01    0.520400E+00    0.967321E-01    0.423668E+00
   ------------------------------------------------------------------------

         :::::::::::::::::::::::::::::::::::::::::::::::::::::
         ::                  THERMODYNAMIC                  ::
         :::::::::::::::::::::::::::::::::::::::::::::::::::::
         :: total free energy        -109.306122605778 Eh   ::
         ::.................................................::
         :: total energy             -109.729790146936 Eh   ::
         :: zero point energy           0.485170193093 Eh   ::
         :: G(RRHO) w/o ZPVE           -0.061502651935 Eh   ::
         :: G(RRHO) contrib.            0.423667541158 Eh   ::
         :::::::::::::::::::::::::::::::::::::::::::::::::::::

           -------------------------------------------------
          | TOTAL ENERGY             -109.729790146936 Eh   |
          | TOTAL ENTHALPY           -109.209390535651 Eh   |
          | TOTAL FREE ENERGY        -109.306122605778 Eh   |
          | GRADIENT NORM               0.000062852153 Eh/α |
           -------------------------------------------------

 * finished run on 2025/08/26 at 02:24:11.294
