   * xtb version 6.7.1 (edcfbbe) compiled by 'albert@albert-system' on 2024-07-22

   ID    Z sym.   atoms
    1    8 O      1, 3
    2   16 S      2, 15
    3    6 C      4-7, 9-14, 16-27, 29-42
    4    7 N      8, 28
    5    1 H      43-66

          program call               : xtb data2507/gas/SFPC/SFPC_gas_S0_finalOpt.xtbopt.xyz --gfn 2 --spinpol --tblite --uhf 2 --ohess vtight --parallel 40 --molden --ceasefiles --namespace data2507/gas/SFPC/SFPC_gas_T1_preOpt
 * total energy  :  -109.7222357 Eh     change        0.6461249E-09 Eh
 * total energy  :  -109.7268404 Eh     change       -0.4604633E-02 Eh
 * total energy  :  -109.7284073 Eh     change       -0.1566992E-02 Eh
 * total energy  :  -109.7286337 Eh     change       -0.2263938E-03 Eh
 * total energy  :  -109.7288319 Eh     change       -0.1981283E-03 Eh
 * total energy  :  -109.7289377 Eh     change       -0.1058377E-03 Eh
 * total energy  :  -109.7290500 Eh     change       -0.1122739E-03 Eh
 * total energy  :  -109.7291289 Eh     change       -0.7892918E-04 Eh
 * total energy  :  -109.7291662 Eh     change       -0.3733576E-04 Eh
 * total energy  :  -109.7291919 Eh     change       -0.2561051E-04 Eh
 * total energy  :  -109.7297032 Eh     change       -0.7843165E-06 Eh
 * total energy  :  -109.7297039 Eh     change       -0.7664227E-06 Eh
 * total energy  :  -109.7297047 Eh     change       -0.7715725E-06 Eh
 * total energy  :  -109.7297055 Eh     change       -0.7520229E-06 Eh
 * total energy  :  -109.7297062 Eh     change       -0.7667752E-06 Eh
 * total energy  :  -109.7297070 Eh     change       -0.7425675E-06 Eh
 * total energy  :  -109.7297077 Eh     change       -0.7369435E-06 Eh
 * total energy  :  -109.7297084 Eh     change       -0.7431116E-06 Eh
 * total energy  :  -109.7297085 Eh     change       -0.1702857E-07 Eh
   *** GEOMETRY OPTIMIZATION CONVERGED AFTER 221 ITERATIONS ***

 final structure:
================
66
 xtb: 6.7.1 (edcfbbe)
O            0.27103811095875        5.52102876098289        1.32175000742728
S            0.09247444339781        4.82457684008109        0.07648190323682
O            0.00391113541710        5.58913169201004       -1.13849278070017
C            1.28902717928369        3.50916529804953       -0.10389503744299
C            1.57805612763698        2.73915489097854        1.02524242012568
C            2.00966652039507        1.44256134503476        0.87822005208732
C            2.15698087846251        0.90294609683035       -0.40330609071893
N            2.44360076715986       -0.48754825751348       -0.53364866327950
C            1.40802979795593       -1.31449307935588       -0.90542607879786
C            0.20883033825912       -0.79573419043726       -1.42064390045706
C           -0.81752617115555       -1.61375394208421       -1.81908076930379
C           -0.71844861116644       -3.01233577529178       -1.67595895111609
C            0.41066590511717       -3.54853092249235       -1.12235175123698
C            1.48817582612668       -2.73514681161556       -0.75082548788972
S            2.79551520203614       -3.50664383573608        0.08571321379938
C            4.01044966199767       -2.27092795425260        0.10966102105330
C            5.29070136011055       -2.62236984854994        0.54710465907114
C            6.28181497571939       -1.68336003182811        0.65440168042754
C            5.99923263880816       -0.33521820446725        0.33847605168206
C            4.74142699555873        0.03707851159898       -0.05022562820561
C            3.69968749570639       -0.90214244707348       -0.17828795777237
C            1.97727926899155        1.71046016545121       -1.53326041183073
C            1.52598798103814        3.00164019444488       -1.37858996962026
C           -1.24395882467958        3.64235292745051        0.20138416257854
C           -1.69887821620945        3.03447302587063       -0.96169975222188
C           -2.29693156703258        1.79395042626419       -0.90164558266742
C           -2.41873149061962        1.14102521081312        0.32859882038630
N           -2.83362994351475       -0.19490822974800        0.38954496491056
C           -3.94389042994148       -0.75409638861268       -0.20788101803299
C           -4.97357278041348       -0.13846845722171       -0.90499193838381
C           -5.99223346330596       -0.93771485268719       -1.38710126463060
C           -5.99724630944337       -2.31548017409697       -1.17711712774347
C           -4.98586430007999       -2.93028924031692       -0.46631222526068
C           -3.94937057932873       -2.14890456700823        0.02760761358149
C           -2.76813882446964       -2.43863085616440        0.79093393523972
C           -2.21063242058485       -3.61047237316519        1.28547655674077
C           -1.00121991425743       -3.54098321723745        1.94677935127933
C           -0.34257297493876       -2.32386007533581        2.10912126469703
C           -0.88089089724704       -1.14323066416861        1.63584863469776
C           -2.10647959816175       -1.20491985408836        0.98751766977511
C           -2.04818844901918        1.80051613721031        1.50280750726980
C           -1.45686125823433        3.04315960653271        1.43779128348918
H            1.42859299973651        3.17409207276309        1.99996074300959
H            2.20823865504353        0.82193111815475        1.73987033591159
H            0.09361138012352        0.27202448186039       -1.51468840267606
H           -1.71422381553824       -1.18634330580134       -2.23752380942557
H           -1.53467076275526       -3.64429079333728       -1.98466934676835
H            0.50390866531232       -4.61266861323910       -0.96790408319541
H            5.47935299107411       -3.65882621710805        0.78280624131590
H            7.27229661028654       -1.96579683388675        0.97130902552785
H            6.78150085571130        0.40338325108255        0.40615525507422
H            4.53458864396094        1.06936378232879       -0.28657703386298
H            2.16429277276025        1.29970462770892       -2.51433711769966
H            1.32688099126038        3.63416984468662       -2.22902447482635
H           -1.53935194727299        3.53549644586995       -1.90365053081384
H           -2.62149756248243        1.29803915917573       -1.80399951313328
H           -4.98407499239307        0.93027596672298       -1.05663388763306
H           -6.80468615411043       -0.48455596301020       -1.93546177914999
H           -6.81123367944932       -2.90533946997604       -1.57124590772991
H           -4.99849897946454       -3.99564244074548       -0.29176923139699
H           -2.71214116966954       -4.55605330177831        1.14531750953338
H           -0.54911491272101       -4.44059490634430        2.33685722621069
H            0.61102863687864       -2.30517041868348        2.61740946731677
H           -0.35957788106973       -0.20439749261632        1.75178394126901
H           -2.20734095614497        1.31471734829585        2.45378687596190
H           -1.13329857347442        3.56146646671159        2.32633512932930

 projected vibrational frequencies (cm⁻¹)
eigval :       -0.00    -0.00    -0.00    -0.00     0.00     0.00
eigval :       10.06    22.51    28.75    36.63    42.45    50.19
eigval :       58.14    71.31    81.66    87.97    97.89   103.55
eigval :      108.82   123.57   130.29   142.04   150.93   159.50
eigval :      167.65   192.38   213.04   222.63   240.31   241.71
eigval :      256.54   273.62   277.11   303.65   321.40   343.84
eigval :      364.97   369.27   370.51   375.99   378.90   382.99
eigval :      388.17   395.22   400.16   407.25   410.74   423.19
eigval :      425.84   434.62   438.06   458.84   480.14   496.37
eigval :      510.31   518.41   524.18   532.69   537.77   540.72
eigval :      577.69   579.78   591.55   599.74   608.68   609.66
eigval :      613.53   627.19   644.20   649.84   672.20   673.75
eigval :      679.76   706.97   707.99   734.10   738.29   744.96
eigval :      748.45   757.75   769.45   780.81   793.41   808.68
eigval :      844.69   846.80   853.97   864.07   873.27   875.22
eigval :      885.50   891.14   893.06   896.23   896.74   896.92
eigval :      897.32   900.08   902.74   904.07   912.17   915.90
eigval :      919.71   923.83   924.40   927.30   985.25   998.47
eigval :     1011.66  1022.29  1033.42  1058.03  1067.10  1068.80
eigval :     1071.44  1073.93  1078.00  1111.14  1115.33  1117.23
eigval :     1119.21  1142.81  1151.41  1158.09  1165.67  1168.05
eigval :     1170.71  1171.48  1176.84  1180.94  1195.69  1198.28
eigval :     1207.20  1228.33  1236.51  1238.45  1243.10  1243.87
eigval :     1250.16  1285.14  1299.02  1303.17  1314.09  1324.71
eigval :     1327.05  1334.86  1343.26  1354.10  1361.13  1362.30
eigval :     1372.18  1396.21  1399.41  1404.25  1416.14  1422.10
eigval :     1423.44  1426.92  1431.00  1442.47  1445.94  1451.30
eigval :     1472.36  1476.12  1484.72  1488.64  1507.79  1522.81
eigval :     1542.71  1570.73  1571.68  1586.88  1596.22  1609.86
eigval :     3069.31  3078.89  3079.40  3080.37  3083.26  3084.68
eigval :     3084.96  3087.86  3089.24  3090.35  3091.03  3092.19
eigval :     3094.85  3096.80  3097.82  3101.62  3102.78  3105.50
eigval :     3106.70  3106.90  3111.91  3112.14  3115.38  3117.12

   temp. (K)  partition function   enthalpy   heat capacity  entropy
                                   cal/mol     cal/K/mol   cal/K/mol   J/K/mol
 298.15  VIB  0.145E+15            19748.074    127.557    120.897
         ROT  0.418E+08              888.752      2.981     37.853
         INT  0.606E+22            20636.826    130.538    158.750
         TR   0.135E+29             1481.254      4.968     44.941
         TOT                       22118.0803   135.5064   203.6908   852.2422

       T/K    H(0)-H(T)+PV         H(T)/Eh          T*S/Eh         G(T)/Eh
   ------------------------------------------------------------------------
    298.15    0.352474E-01    0.520496E+00    0.967801E-01    0.423716E+00
   ------------------------------------------------------------------------

         :::::::::::::::::::::::::::::::::::::::::::::::::::::
         ::                  THERMODYNAMIC                  ::
         :::::::::::::::::::::::::::::::::::::::::::::::::::::
         :: total free energy        -109.305992180467 Eh   ::
         ::.................................................::
         :: total energy             -109.729708449993 Eh   ::
         :: zero point energy           0.485248923347 Eh   ::
         :: G(RRHO) w/o ZPVE           -0.061532653821 Eh   ::
         :: G(RRHO) contrib.            0.423716269526 Eh   ::
         :::::::::::::::::::::::::::::::::::::::::::::::::::::

           -------------------------------------------------
          | TOTAL ENERGY             -109.729708449993 Eh   |
          | TOTAL ENTHALPY           -109.209212122129 Eh   |
          | TOTAL FREE ENERGY        -109.305992180467 Eh   |
          | GRADIENT NORM               0.000086027302 Eh/α |
           -------------------------------------------------

 * finished run on 2025/08/26 at 02:18:48.965
