   * xtb version 6.7.1 (edcfbbe) compiled by 'albert@albert-system' on 2024-07-22

   ID    Z sym.   atoms
    1    6 C      1-29, 31-35, 37-59
    2    7 N      30, 36
    3    1 H      60-107

          program call               : xtb data2507/gas/mCP-Ph/mCP-Ph.xyz --gfn 2 --ohess vtight --parallel 40 --molden --ceasefiles --namespace data2507/gas/mCP-Ph/mCP-Ph_gas_S0_preOpt
          :  Hamiltonian                  GFN2-xTB          :
 * total energy  :  -152.4749458 Eh     change       -0.2690513E-08 Eh
 * total energy  :  -152.4933810 Eh     change       -0.1843522E-01 Eh
 * total energy  :  -152.4993976 Eh     change       -0.6016578E-02 Eh
 * total energy  :  -152.5012580 Eh     change       -0.1860390E-02 Eh
 * total energy  :  -152.5020921 Eh     change       -0.8341274E-03 Eh
 * total energy  :  -152.5024058 Eh     change       -0.3136562E-03 Eh
 * total energy  :  -152.5026215 Eh     change       -0.2157006E-03 Eh
 * total energy  :  -152.5027839 Eh     change       -0.1624930E-03 Eh
 * total energy  :  -152.5028879 Eh     change       -0.1039963E-03 Eh
 * total energy  :  -152.5029370 Eh     change       -0.4904547E-04 Eh
 * total energy  :  -152.5033472 Eh     change       -0.4090857E-06 Eh
 * total energy  :  -152.5033476 Eh     change       -0.4520670E-06 Eh
 * total energy  :  -152.5033480 Eh     change       -0.3889764E-06 Eh
 * total energy  :  -152.5033484 Eh     change       -0.3143900E-06 Eh
 * total energy  :  -152.5033486 Eh     change       -0.2548402E-06 Eh
 * total energy  :  -152.5033489 Eh     change       -0.2730694E-06 Eh
 * total energy  :  -152.5033492 Eh     change       -0.3218412E-06 Eh
 * total energy  :  -152.5033496 Eh     change       -0.4049126E-06 Eh
 * total energy  :  -152.5033496 Eh     change       -0.2954437E-08 Eh
   *** GEOMETRY OPTIMIZATION CONVERGED AFTER 68 ITERATIONS ***

 final structure:
================
107
 xtb: 6.7.1 (edcfbbe)
C           -4.05372807670848        5.49114247525170        1.07304922539052
C           -2.92053209236845        5.41108641202709        0.04016164186238
C           -1.56181786951216        5.51905270670910        0.74743055527043
C           -3.05808582924927        6.60340217108885       -0.91041266436092
C           -2.99846036394051        4.07156630557387       -0.67568198045946
C           -3.16946116615247        3.95891906202463       -2.05169890703816
C           -3.23658436951873        2.72664809329633       -2.68357430449348
C           -3.12836673330369        1.57535223012649       -1.92599548971554
C           -2.95148513823745        1.67442705114070       -0.53937528759585
C           -2.89260062672812        2.90076400340676        0.07870017128911
C           -2.88008492721548        0.29756006652353        0.09373936695862
C           -4.03958689702169        0.18395062848708        1.06298236947014
C           -5.27316217214280       -0.30013349068896        0.64805981729010
C           -6.34274132851538       -0.34245749911377        1.52515858508807
C           -6.19732557320295        0.10703328345696        2.82577612586098
C           -4.97377121021952        0.60181591789958        3.24393110121456
C           -3.90395771515650        0.64216267841616        2.36887472251665
C           -1.54786995086414       -0.01442559868428        0.74463758293559
C           -0.39926574148204        0.69583347467970        0.38802126675355
C            0.84260744436635        0.39110668115347        0.91142055755721
C            0.93428991098189       -0.66843779673165        1.80068815624746
C           -0.21955329327307       -1.38885655927936        2.18144353013513
C           -1.45633659181616       -1.06288292341918        1.64662437998854
C            0.20771181601914       -2.37424479385976        3.13482029412218
C           -0.45489243127706       -3.37063091577577        3.83876515139188
C            0.27716618728861       -4.18409734937958        4.68032413903255
C            1.65458307098615       -4.02318207556594        4.81113745677342
C            2.33558377614948       -3.03799852876750        4.12156790366430
C            1.60138640004726       -2.20011211018304        3.29467863983910
N            2.02874919764665       -1.16578288235242        2.48379553550729
C            3.34399599181667       -0.69857430353349        2.38335449894519
C            4.07276964662131       -0.40713761506829        3.53403954099156
C            5.37460629403364        0.04572453726561        3.42647484825923
C            5.96092727517359        0.21781204387651        2.18621120016696
C            5.23209687669912       -0.05909275578369        1.03198759926449
N            5.81872247731634        0.11185717671316       -0.22762184476216
C            6.50634633568129        1.23307150575238       -0.65126941878628
C            6.71103154845179        2.44257830726813       -0.00298468368056
C            7.42193374548699        3.42084860775462       -0.67163996896164
C            7.91251851762891        3.21275634585724       -1.95870028249857
C            7.68877133276211        2.02131278827225       -2.61907679194784
C            6.97708754611499        1.02283506122210       -1.96739700012416
C            6.55352121953043       -0.29594669213858       -2.34689020491025
C            6.72785904765479       -1.06028720688260       -3.49300561945601
C            6.19869959667547       -2.33483156295464       -3.52470458015548
C            5.51668749534956       -2.85389434437568       -2.42667259649598
C            5.33083574396029       -2.11274865871906       -1.27524444168322
C            5.83911045062802       -0.82213054981122       -1.24634369917961
C            3.92403936637783       -0.51866170961718        1.13265731319793
C           -3.02240769708012       -0.59558781144729       -1.12453548020294
C           -3.00685087216314       -1.96879582004668       -1.18001149345458
C           -3.13974195038879       -2.62207852881479       -2.40743691563293
C           -3.12356433993188       -4.14262474004984       -2.43022628711556
C           -3.27006352590353       -4.71865780985848       -3.84121844212352
C           -1.79044231287255       -4.63575021850249       -1.84940934456712
C           -4.28868872472448       -4.66575066863420       -1.57779679456322
C           -3.28262156674310       -1.84989231093814       -3.55583542848628
C           -3.29199641283310       -0.46410958479182       -3.51104251039456
C           -3.15911569708407        0.17029755745304       -2.28989489599426
H           -3.97303080929450        4.70107727015262        1.81443742950601
H           -4.02348894684603        6.44843729996468        1.58950611380834
H           -5.01861821148057        5.39495830379056        0.57935553057714
H           -1.48015335177543        6.47594185849567        1.25894633224293
H           -1.43230172059850        4.72847038627310        1.48141397046223
H           -0.75390196552078        5.44550269778920        0.02202396945811
H           -2.25941545547512        6.61054692312000       -1.64864985145250
H           -2.99675082767634        7.52898701287738       -0.34121985801524
H           -4.01767862846705        6.58747168226615       -1.42196694375288
H           -3.25574466928403        4.84355531467630       -2.66139657143706
H           -3.37239963746187        2.67291399021221       -3.75387504333600
H           -2.76052850257284        2.94779062758184        1.14882054195697
H           -5.39819983294291       -0.64807829426740       -0.36690330651099
H           -7.29475395839455       -0.72707042457799        1.18886009633702
H           -7.03259064091791        0.07383888971088        3.50981885113287
H           -4.85141301109608        0.95823279641266        4.25672737720319
H           -2.94992645017108        1.02107906223470        2.70689467640944
H           -0.48439061124744        1.51173106677441       -0.31405292512401
H            1.70914300469954        0.97353854354084        0.63712769297775
H           -2.33698814884611       -1.61049027077543        1.94771734772042
H           -1.52018078694877       -3.50414919389872        3.72426661804386
H           -0.21858015403937       -4.96347602015909        5.23960667402741
H            2.20402935619740       -4.68548365073266        5.46381760026482
H            3.40606976570044       -2.93501697766888        4.21698166513992
H            3.61016646059939       -0.52329227384764        4.50192060559073
H            5.93950859565139        0.26600764916288        4.31982994173605
H            6.98421080037489        0.54992996272754        2.10395369424899
H            6.31947164619854        2.62158086767341        0.98716374231777
H            7.59799224108992        4.36955099968977       -0.18627998361735
H            8.46662317004504        4.00114121881370       -2.44598879927064
H            8.05375604889470        1.86549587661598       -3.62304310471052
H            7.27107168571335       -0.66279096874144       -4.33701393052117
H            6.32073999885042       -2.94531145807975       -4.40701336050755
H            5.12691862438287       -3.86003988762258       -2.47406913003501
H            4.81746545846272       -2.53428783733649       -0.42422253328164
H            3.35872997667346       -0.73770725291454        0.23981977975562
H           -2.89319934571652       -2.53396269939719       -0.26765898530316
H           -3.24843968731473       -5.80567157689393       -3.79240407322903
H           -4.21555636861674       -4.42233242898760       -4.28970052007970
H           -2.45335289142815       -4.39549953198759       -4.48259801157968
H           -1.75262269680270       -5.72305514918485       -1.86862402723392
H           -1.65781774052434       -4.30872676352531       -0.82177696857080
H           -0.95984404670627       -4.25051350773283       -2.43748432467899
H           -4.20441436800108       -4.33658855830548       -0.54582193442926
H           -4.30257013281231       -5.75370148904272       -1.58847138799703
H           -5.23572709484935       -4.30470862031139       -1.97410206576345
H           -3.38838016556794       -2.32394595884535       -4.51807828026214
H           -3.40141108793607        0.10700173735967       -4.42140624834851

          :  Hamiltonian                  GFN2-xTB          :
         :: gradient norm              0.000040406690 Eh/a0 ::
         :: HOMO-LUMO gap              3.057528042056 eV    ::
         :: SCC energy              -155.326463478358 Eh    ::
         :: -> dispersion             -0.148461913907 Eh    ::
         :: repulsion energy           2.823113870117 Eh    ::

    * Orbital Energies and Occupations

         #    Occupation            Energy/Eh            Energy/eV
      -------------------------------------------------------------
         1        2.0000           -0.6768373             -18.4177
       ...           ...                  ...                  ...
       131        2.0000           -0.4048151             -11.0156
       132        2.0000           -0.4045836             -11.0093
       133        2.0000           -0.4044165             -11.0047
       134        2.0000           -0.4010217             -10.9124
       135        2.0000           -0.3985734             -10.8457
       136        2.0000           -0.3934005             -10.7050
       137        2.0000           -0.3876763             -10.5492
       138        2.0000           -0.3847290             -10.4690
       139        2.0000           -0.3779678             -10.2850
       140        2.0000           -0.3770757             -10.2608
       141        2.0000           -0.3656294              -9.9493
       142        2.0000           -0.3633082              -9.8861
       143        2.0000           -0.3601327              -9.7997 (HOMO)
       144                         -0.2477706              -6.7422 (LUMO)
       145                         -0.2456571              -6.6847
       146                         -0.2418136              -6.5801
       147                         -0.2383908              -6.4869
       148                         -0.2382978              -6.4844
       149                         -0.2229065              -6.0656
       150                         -0.2212251              -6.0198
       151                         -0.2211959              -6.0190
       152                         -0.2171327              -5.9085
       153                         -0.2118696              -5.7653
       154                         -0.2069292              -5.6308
       ...                                ...                  ...
       284                          0.7466945              20.3186
      -------------------------------------------------------------
                  HL-Gap            0.1123621 Eh            3.0575 eV

     #   Z          covCN         q      C6AA      α(0)
     1   6 C        3.762    -0.104    22.538     6.768
     2   6 C        3.903     0.026    20.085     6.370
     3   6 C        3.762    -0.104    22.527     6.766
     4   6 C        3.761    -0.107    22.584     6.775
     5   6 C        2.975     0.005    27.909     8.666
     6   6 C        2.925    -0.044    29.091     8.845
     7   6 C        2.914    -0.038    28.939     8.821
     8   6 C        3.035    -0.003    28.075     8.691
     9   6 C        3.057     0.001    27.952     8.670
    10   6 C        2.922    -0.040    29.000     8.831
    11   6 C        3.948     0.007    20.387     6.416
    12   6 C        2.980     0.018    27.600     8.618
    13   6 C        2.924    -0.036    28.885     8.814
    14   6 C        2.920    -0.030    28.759     8.794
    15   6 C        2.920    -0.033    28.830     8.805
    16   6 C        2.920    -0.031    28.775     8.797
    17   6 C        2.924    -0.034    28.843     8.807
    18   6 C        2.979     0.008    27.844     8.656
    19   6 C        2.927    -0.039    28.975     8.827
    20   6 C        2.909    -0.052    29.293     8.875
    21   6 C        3.073     0.044    26.946     8.511
    22   6 C        3.067    -0.018    28.393     8.737
    23   6 C        2.917    -0.038    28.942     8.822
    24   6 C        3.068    -0.017    28.353     8.731
    25   6 C        2.913    -0.033    28.812     8.802
    26   6 C        2.920    -0.041    29.013     8.833
    27   6 C        2.924    -0.033    28.834     8.806
    28   6 C        2.910    -0.051    29.273     8.872
    29   6 C        3.075     0.046    26.880     8.501
    30   7 N        2.803    -0.044    22.094     6.981
    31   6 C        2.912     0.067    26.505     8.442
    32   6 C        2.922    -0.049    29.209     8.863
    33   6 C        2.919    -0.028    28.706     8.786
    34   6 C        2.922    -0.049    29.207     8.863
    35   6 C        2.912     0.067    26.506     8.442
    36   7 N        2.803    -0.044    22.091     6.981
    37   6 C        3.074     0.047    26.879     8.500
    38   6 C        2.910    -0.051    29.269     8.871
    39   6 C        2.924    -0.033    28.832     8.806
    40   6 C        2.920    -0.041    29.009     8.832
    41   6 C        2.913    -0.033    28.813     8.802
    42   6 C        3.068    -0.016    28.352     8.731
    43   6 C        3.068    -0.017    28.351     8.731
    44   6 C        2.913    -0.033    28.813     8.802
    45   6 C        2.920    -0.040    29.004     8.832
    46   6 C        2.924    -0.033    28.823     8.804
    47   6 C        2.910    -0.051    29.260     8.870
    48   6 C        3.073     0.047    26.877     8.500
    49   6 C        2.926    -0.059    29.456     8.900
    50   6 C        3.057     0.001    27.957     8.671
    51   6 C        2.922    -0.040    28.998     8.831
    52   6 C        2.975     0.005    27.903     8.665
    53   6 C        3.903     0.026    20.084     6.370
    54   6 C        3.761    -0.107    22.583     6.774
    55   6 C        3.762    -0.104    22.534     6.767
    56   6 C        3.762    -0.104    22.528     6.766
    57   6 C        2.925    -0.044    29.091     8.845
    58   6 C        2.914    -0.038    28.939     8.821
    59   6 C        3.035    -0.003    28.077     8.691
    60   1 H        0.925     0.036     2.499     2.472
    61   1 H        0.925     0.036     2.502     2.474
    62   1 H        0.925     0.033     2.542     2.494
    63   1 H        0.925     0.036     2.505     2.475
    64   1 H        0.925     0.036     2.505     2.475
    65   1 H        0.925     0.033     2.550     2.497
    66   1 H        0.925     0.035     2.511     2.478
    67   1 H        0.925     0.035     2.513     2.479
    68   1 H        0.925     0.036     2.509     2.477
    69   1 H        0.926     0.034     2.525     2.485
    70   1 H        0.926     0.027     2.625     2.534
    71   1 H        0.926     0.028     2.614     2.528
    72   1 H        0.926     0.031     2.573     2.508
    73   1 H        0.926     0.028     2.614     2.528
    74   1 H        0.926     0.028     2.622     2.532
    75   1 H        0.926     0.027     2.625     2.533
    76   1 H        0.926     0.028     2.612     2.527
    77   1 H        0.926     0.033     2.538     2.491
    78   1 H        0.926     0.027     2.625     2.533
    79   1 H        0.926     0.032     2.562     2.503
    80   1 H        0.926     0.031     2.579     2.511
    81   1 H        0.926     0.028     2.613     2.528
    82   1 H        0.926     0.029     2.601     2.522
    83   1 H        0.926     0.027     2.632     2.537
    84   1 H        0.926     0.044     2.391     2.418
    85   1 H        0.926     0.041     2.439     2.442
    86   1 H        0.926     0.044     2.392     2.419
    87   1 H        0.926     0.027     2.629     2.536
    88   1 H        0.926     0.029     2.598     2.521
    89   1 H        0.926     0.028     2.610     2.526
    90   1 H        0.926     0.031     2.568     2.506
    91   1 H        0.926     0.031     2.566     2.505
    92   1 H        0.926     0.029     2.608     2.525
    93   1 H        0.926     0.030     2.592     2.518
    94   1 H        0.926     0.027     2.629     2.535
    95   1 H        0.926     0.051     2.310     2.377
    96   1 H        0.926     0.029     2.607     2.525
    97   1 H        0.925     0.035     2.514     2.479
    98   1 H        0.925     0.035     2.512     2.478
    99   1 H        0.925     0.035     2.511     2.478
   100   1 H        0.925     0.036     2.502     2.474
   101   1 H        0.925     0.036     2.497     2.471
   102   1 H        0.925     0.033     2.549     2.497
   103   1 H        0.925     0.036     2.500     2.473
   104   1 H        0.925     0.036     2.504     2.474
   105   1 H        0.925     0.033     2.548     2.496
   106   1 H        0.926     0.034     2.525     2.485
   107   1 H        0.926     0.027     2.629     2.535

molecular dipole:
                 x           y           z       tot (Debye)
 q only:        0.220       0.070       0.376
   full:        0.268       0.087       0.463       1.377

 projected vibrational frequencies (cm⁻¹)
eigval :       -0.00    -0.00    -0.00    -0.00     0.00     0.00
eigval :        6.33    10.34    14.15    19.33    21.01    27.21
eigval :       28.28    33.75    36.08    39.99    50.16    57.78
eigval :       60.72    65.96    78.20    80.35    80.96   101.52
eigval :      106.20   117.21   128.07   133.92   141.87   145.04
eigval :      155.47   172.08   178.96   181.20   185.27   201.47
eigval :      206.33   215.50   218.42   223.05   229.30   240.71
eigval :      244.33   258.69   261.76   271.90   275.99   284.16
eigval :      293.61   298.02   307.08   319.42   321.05   325.44
eigval :      332.45   333.39   341.83   352.82   359.49   365.22
eigval :      375.00   382.24   385.27   395.61   398.81   416.70
eigval :      420.15   423.67   428.98   432.54   435.83   440.17
eigval :      447.75   450.43   458.10   465.22   478.07   486.15
eigval :      514.50   520.05   529.60   533.99   534.25   541.08
eigval :      541.44   542.94   570.99   573.13   585.86   590.07
eigval :      590.67   604.58   608.80   613.64   621.80   630.39
eigval :      633.93   644.24   650.34   669.75   671.84   675.77
eigval :      679.23   687.99   696.79   708.13   709.41   714.86
eigval :      721.66   729.18   750.29   761.04   762.80   769.42
eigval :      775.40   780.78   780.95   805.45   810.91   819.41
eigval :      822.87   830.70   868.73   870.47   871.74   874.20
eigval :      880.53   883.26   886.33   888.31   890.82   894.96
eigval :      897.03   899.09   899.88   903.30   905.17   905.75
eigval :      907.17   908.54   910.52   912.30   916.66   921.49
eigval :      924.00   924.32   931.45   933.19   934.78   936.12
eigval :      960.39   960.41   962.11   962.82   963.26   963.35
eigval :      966.53   976.35   997.11   998.64  1009.50  1015.11
eigval :     1019.04  1033.53  1035.57  1035.88  1036.03  1037.38
eigval :     1070.84  1072.61  1074.30  1087.80  1110.40  1115.72
eigval :     1122.05  1126.73  1127.88  1130.31  1140.08  1152.81
eigval :     1157.93  1170.06  1177.55  1178.88  1179.87  1181.33
eigval :     1182.78  1183.86  1189.89  1196.56  1201.40  1204.03
eigval :     1212.56  1227.25  1227.33  1231.67  1234.48  1235.13
eigval :     1236.80  1237.16  1238.28  1246.73  1251.57  1255.29
eigval :     1257.75  1285.02  1287.11  1287.37  1289.83  1300.22
eigval :     1300.57  1302.70  1308.66  1318.76  1320.12  1330.62
eigval :     1345.75  1353.84  1358.43  1360.44  1363.37  1376.57
eigval :     1378.17  1403.11  1404.03  1406.62  1406.72  1416.79
eigval :     1418.67  1422.17  1425.74  1428.62  1429.45  1430.15
eigval :     1432.13  1436.68  1453.33  1464.85  1473.46  1474.66
eigval :     1476.09  1476.83  1479.68  1485.79  1488.25  1492.34
eigval :     1492.37  1495.03  1495.16  1501.59  1501.99  1505.87
eigval :     1506.25  1515.01  1515.02  1520.31  1520.46  1569.02
eigval :     1572.92  1577.07  1579.49  1584.80  1586.84  1589.09
eigval :     1589.63  1595.76  1599.61  1600.44  1600.85  1607.60
eigval :     1612.49  1615.30  1617.16  3020.82  3020.88  3022.13
eigval :     3022.29  3026.14  3026.15  3029.07  3029.35  3030.17
eigval :     3030.41  3035.20  3035.39  3037.84  3038.04  3046.29
eigval :     3046.35  3049.69  3050.05  3068.44  3072.35  3075.41
eigval :     3076.31  3076.48  3076.99  3079.07  3079.22  3081.05
eigval :     3081.42  3082.61  3082.97  3084.80  3085.74  3086.04
eigval :     3088.40  3088.66  3089.78  3090.19  3090.66  3091.88
eigval :     3095.48  3095.78  3096.33  3097.30  3100.55  3102.59
eigval :     3105.22  3112.42  3112.85

   temp. (K)  partition function   enthalpy   heat capacity  entropy
                                   cal/mol     cal/K/mol   cal/K/mol   J/K/mol
 298.15  VIB  0.281E+24            29960.731    188.324    185.770
         ROT  0.144E+09              888.752      2.981     40.312
         INT  0.405E+32            30849.484    191.305    226.082
         TR   0.203E+29             1481.254      4.968     45.747
         TOT                       32330.7378   196.2734   271.8291  1137.3329

       T/K    H(0)-H(T)+PV         H(T)/Eh          T*S/Eh         G(T)/Eh
   ------------------------------------------------------------------------
    298.15    0.515223E-01    0.916805E+00    0.129155E+00    0.787651E+00
   ------------------------------------------------------------------------

         :::::::::::::::::::::::::::::::::::::::::::::::::::::
         ::                  THERMODYNAMIC                  ::
         :::::::::::::::::::::::::::::::::::::::::::::::::::::
         :: total free energy        -151.715699027345 Eh   ::
         ::.................................................::
         :: total energy             -152.503349608240 Eh   ::
         :: zero point energy           0.865283037735 Eh   ::
         :: G(RRHO) w/o ZPVE           -0.077632456840 Eh   ::
         :: G(RRHO) contrib.            0.787650580895 Eh   ::
         :::::::::::::::::::::::::::::::::::::::::::::::::::::

           -------------------------------------------------
          | TOTAL ENERGY             -152.503349608240 Eh   |
          | TOTAL ENTHALPY           -151.586544260361 Eh   |
          | TOTAL FREE ENERGY        -151.715699027345 Eh   |
          | GRADIENT NORM               0.000040404005 Eh/α |
          | HOMO-LUMO GAP               3.057528043486 eV   |
           -------------------------------------------------

 * finished run on 2025/08/24 at 22:18:29.692
