   * xtb version 6.7.1 (edcfbbe) compiled by 'albert@albert-system' on 2024-07-22

   ID    Z sym.   atoms
    1    6 C      1-29, 31-35, 37-59
    2    7 N      30, 36
    3    1 H      60-107

          program call               : xtb data2507/gas/mCP-Ph/mCP-Ph_gas_T1_crest.xyz --gfn 2 --spinpol --tblite --uhf 2 --ohess vtight --parallel 40 --molden --ceasefiles --namespace data2507/gas/mCP-Ph/mCP-Ph_gas_T1_finalOpt
 * total energy  :  -152.4009183 Eh     change        0.4143058E-07 Eh
 * total energy  :  -152.4009569 Eh     change       -0.3856313E-04 Eh
 * total energy  :  -152.4009651 Eh     change       -0.8205388E-05 Eh
 * total energy  :  -152.4009668 Eh     change       -0.1658167E-05 Eh
 * total energy  :  -152.4009686 Eh     change       -0.1804245E-05 Eh
 * total energy  :  -152.4009705 Eh     change       -0.1897639E-05 Eh
 * total energy  :  -152.4009722 Eh     change       -0.1776666E-05 Eh
 * total energy  :  -152.4009738 Eh     change       -0.1556231E-05 Eh
 * total energy  :  -152.4009752 Eh     change       -0.1436561E-05 Eh
 * total energy  :  -152.4009768 Eh     change       -0.1547460E-05 Eh
 * total energy  :  -152.4009909 Eh     change       -0.2655217E-06 Eh
 * total energy  :  -152.4009912 Eh     change       -0.2386031E-06 Eh
 * total energy  :  -152.4009913 Eh     change       -0.1251630E-06 Eh
 * total energy  :  -152.4009916 Eh     change       -0.2620990E-06 Eh
 * total energy  :  -152.4009917 Eh     change       -0.1670499E-06 Eh
 * total energy  :  -152.4009919 Eh     change       -0.1512205E-06 Eh
 * total energy  :  -152.4009922 Eh     change       -0.3211906E-06 Eh
 * total energy  :  -152.4009923 Eh     change       -0.1262393E-06 Eh
 * total energy  :  -152.4009924 Eh     change       -0.9650500E-07 Eh
   *** GEOMETRY OPTIMIZATION CONVERGED AFTER 44 ITERATIONS ***

 final structure:
================
107
 xtb: 6.7.1 (edcfbbe)
C           -7.00771011308949        2.87112660752433       -3.28109716121326
C           -6.05147001155992        2.74078627873380       -2.09231493689763
C           -6.82226135116921        3.11929750452133       -0.81588615176851
C           -4.89165488929625        3.72916903719088       -2.30191003322267
C           -5.49018875815211        1.34603970134308       -1.93380982289043
C           -5.83671798035755        0.26815741998878       -2.78950848533750
C           -5.33252991353284       -0.98618314009651       -2.63316885900010
C           -4.41324634604751       -1.24864065605902       -1.56525128181088
C           -4.07150373780522       -0.14817020441099       -0.68101833053429
C           -4.58050758448315        1.09119978942916       -0.87193567694908
C           -3.10180773858427       -0.62691393309133        0.38284009628997
C           -3.70583419166554       -0.64788203778775        1.77469093664385
C           -2.88464292695479       -0.71900291150400        2.89468932466515
C           -3.42944272761301       -0.80924401529959        4.16205523560664
C           -4.80389224982610       -0.83484831620943        4.32956368006551
C           -5.62784283680619       -0.77421654992125        3.21941010582054
C           -5.08293010696800       -0.68716857940078        1.95054642288521
C           -1.84980398022730        0.22161332427898        0.30544516365297
C           -0.78946857150067       -0.16655933653557       -0.51776997059115
C            0.35472268528654        0.59533195226775       -0.64165020038884
C            0.43309334658390        1.77854938492185        0.07567767199318
C           -0.65384224119552        2.21653310522282        0.86439947452466
C           -1.79073100965673        1.43133572640940        0.98093196533680
C           -0.27750375895351        3.49531898127136        1.40035227162580
C           -0.91007658517569        4.40077200322025        2.24112848487991
C           -0.24321619476003        5.55921709776370        2.58744950451346
C            1.04379501703841        5.81182816172347        2.11877012210364
C            1.69458273392605        4.92516393039738        1.28170870555630
C            1.02020349103179        3.77139293052265        0.91073876339817
N            1.43960364156826        2.72328820276948        0.11411399298396
C            2.69801719053314        2.59530584249939       -0.48683890932883
C            3.20981428777926        3.61780789050927       -1.28090716063545
C            4.45770696461141        3.47486516851968       -1.85981158436849
C            5.19960259022491        2.32432920662485       -1.66514983377986
C            4.69667861750927        1.30238256230225       -0.86245906625782
N            5.45410138642798        0.14779733031861       -0.63250505160131
C            5.00289181826061       -1.15549411665460       -0.72723144371209
C            3.76551799944740       -1.63893019837257       -1.12536976568064
C            3.58083249897334       -3.00766243285427       -1.15077862668425
C            4.60409000406897       -3.88552340645162       -0.80212427840304
C            5.84819129702927       -3.41291384969914       -0.43538278995998
C            6.05540426753779       -2.04021419477617       -0.39964397765009
C            7.19386220937811       -1.22267449580988       -0.08715847358777
C            8.49137092278350       -1.50984128042850        0.31535288952975
C            9.35304991947728       -0.46145495608244        0.56779769477088
C            8.92874364519224        0.85911911608868        0.44057931910690
C            7.64285678474127        1.16942092877644        0.04078885932839
C            6.78049038149456        0.12014646424542       -0.24258381326030
C            3.44568316938433        1.44269936190259       -0.27292727813535
C           -2.89383514599162       -2.07154898120232       -0.03045366760541
C           -2.08640423438584       -3.00714688976233        0.52207681997288
C           -2.04041543853932       -4.32701189099504       -0.00265216926141
C           -1.09288052920348       -5.32678952004082        0.62077178946682
C           -1.39913112472090       -5.45648089999989        2.12206050037227
C           -1.19504716225826       -6.72092018625469       -0.00449077637256
C            0.34822236927156       -4.82186528685498        0.43105852665374
C           -2.87716293771613       -4.63615934976193       -1.10677392153435
C           -3.69998575670625       -3.71954509420428       -1.68497566423787
C           -3.73387637975453       -2.38074045413226       -1.17419901574156
H           -7.86893970614127        2.21701350597856       -3.16559311040915
H           -7.37090901199492        3.89518753345752       -3.34303540849650
H           -6.50398583248020        2.63697325358869       -4.21618097866971
H           -7.23675944155346        4.12064288533301       -0.91271092238127
H           -7.64003766963179        2.42071510693442       -0.65073955669908
H           -6.17655001345177        3.09996828467691        0.05753428368537
H           -5.27891319081013        4.73892966429352       -2.42177206296636
H           -4.33130317830770        3.46443724090379       -3.19625034635637
H           -4.20637756854422        3.72443676008539       -1.45891750978068
H           -6.52522829458137        0.44523919424432       -3.60030350116722
H           -5.60713298915291       -1.78569790760719       -3.30425821512163
H           -4.30139404451214        1.89241729917209       -0.20458694907196
H           -1.81113317500594       -0.69083782817503        2.77371741030891
H           -2.77853858894740       -0.85900131705075        5.02324733240745
H           -5.22934911161727       -0.90407265196889        5.31998481815200
H           -6.70130606609847       -0.79758748370576        3.34031394902033
H           -5.73280447438250       -0.64674473192096        1.08836975191466
H           -0.86851762470639       -1.09040492485415       -1.07123187070680
H            1.15459551637405        0.28436876233647       -1.29573276127978
H           -2.61278212934714        1.75511880406249        1.60185263405660
H           -1.90094972245381        4.19580943509670        2.61783195868582
H           -0.71842571812731        6.27822835518507        3.23797956391642
H            1.54647289782672        6.71940134397646        2.41894123980260
H            2.69903981163255        5.12214314859774        0.93847225187694
H            2.62192282032805        4.50619176082506       -1.45246707845000
H            4.85043718635091        4.26357294772305       -2.48388596963603
H            6.16001618133830        2.20468603726370       -2.14200369655568
H            2.97108359662535       -0.97201762645677       -1.42043696182160
H            2.62233725308680       -3.40343804390927       -1.45104239717331
H            4.41986473291337       -4.94905181629451       -0.83123873467008
H            6.64861599396061       -4.09212886776677       -0.18353212701180
H            8.81288617846620       -2.53381663704248        0.43177544411930
H           10.36733369438088       -0.66240539072135        0.87897538875004
H            9.61902725408017        1.65943487381453        0.66316404257271
H            7.32057446500464        2.19700550550369       -0.03376944347355
H            3.06464068172814        0.66938752738548        0.37677974241842
H           -1.46506931640524       -2.74586679475181        1.36531294242607
H           -0.73468957649826       -6.18893241654447        2.57591270463488
H           -1.26722516750562       -4.51126262392746        2.64049802442376
H           -2.42662398330382       -5.78337930585816        2.26760636020063
H           -0.49938042693742       -7.39303587703454        0.49427033090389
H           -0.93805931131458       -6.69854310933260       -1.06108589698955
H           -2.19696496410368       -7.12814453493620        0.11076382982409
H            0.57713430296441       -4.74526671784958       -0.62997345420588
H            1.05295919543160       -5.51382437679938        0.88737871156605
H            0.48932872136507       -3.84321139974591        0.88171164141630
H           -2.86428062740482       -5.63702486158373       -1.50788290897377
H           -4.32730300343477       -3.98277241142875       -2.52292574806635

 projected vibrational frequencies (cm⁻¹)
eigval :       -0.00    -0.00    -0.00     0.00     0.00     0.00
eigval :        7.05     9.21    14.97    18.97    22.02    27.90
eigval :       28.00    33.57    36.02    38.87    46.54    54.53
eigval :       57.59    61.92    70.25    77.75    86.02   101.18
eigval :      104.53   110.53   121.65   127.38   132.34   143.39
eigval :      153.69   170.98   171.72   175.07   176.10   193.85
eigval :      201.41   210.37   216.91   218.77   231.42   236.64
eigval :      240.99   248.72   259.92   267.57   272.25   273.83
eigval :      289.67   302.67   305.62   307.99   314.91   319.08
eigval :      323.10   325.59   332.72   337.76   348.78   358.75
eigval :      364.27   373.63   379.05   384.23   394.07   397.91
eigval :      403.61   422.13   424.95   425.17   429.02   433.38
eigval :      440.27   444.73   446.67   452.77   471.96   477.91
eigval :      506.95   513.74   516.36   520.91   531.90   533.47
eigval :      541.05   546.22   559.49   561.41   579.62   581.41
eigval :      589.46   590.37   599.01   601.30   611.68   614.45
eigval :      621.44   631.33   651.46   653.34   664.81   671.37
eigval :      673.10   675.13   684.64   691.95   695.79   707.86
eigval :      708.85   712.15   750.48   753.48   760.60   763.20
eigval :      767.39   769.03   770.38   774.85   779.35   800.94
eigval :      804.72   818.25   860.26   863.19   864.04   868.13
eigval :      869.72   873.16   878.16   879.28   885.57   891.81
eigval :      894.32   894.47   895.64   897.66   899.42   902.14
eigval :      902.97   903.07   906.71   908.09   913.04   919.25
eigval :      921.40   922.70   923.58   928.46   930.39   933.21
eigval :      933.70   954.77   955.09   957.40   960.00   960.53
eigval :      962.08   963.01   967.21   992.78   997.66  1009.55
eigval :     1017.77  1027.31  1028.50  1029.49  1032.80  1033.71
eigval :     1070.03  1072.11  1074.30  1081.25  1088.37  1088.70
eigval :     1113.03  1116.29  1118.57  1122.13  1127.89  1128.81
eigval :     1148.86  1154.09  1168.23  1170.87  1171.39  1176.19
eigval :     1178.12  1180.40  1180.89  1182.27  1188.43  1200.20
eigval :     1200.94  1201.83  1205.97  1211.38  1212.05  1223.96
eigval :     1230.46  1233.11  1235.17  1239.52  1244.15  1251.14
eigval :     1255.69  1260.04  1272.70  1284.39  1285.95  1293.95
eigval :     1295.35  1300.29  1301.47  1308.27  1318.15  1320.98
eigval :     1322.14  1345.16  1352.33  1355.50  1358.88  1360.27
eigval :     1363.28  1376.62  1378.14  1390.74  1401.39  1402.37
eigval :     1404.11  1404.74  1418.59  1420.74  1424.52  1426.46
eigval :     1426.74  1427.63  1434.67  1464.07  1472.04  1473.47
eigval :     1476.05  1478.00  1479.77  1485.39  1486.15  1488.70
eigval :     1490.33  1490.34  1493.50  1493.62  1499.91  1500.61
eigval :     1503.63  1503.82  1514.21  1514.33  1519.55  1519.90
eigval :     1541.44  1567.69  1571.46  1576.04  1577.18  1581.55
eigval :     1585.53  1587.63  1589.81  1598.10  1598.66  1599.87
eigval :     1612.25  1614.91  1643.02  3020.39  3020.44  3021.26
eigval :     3021.43  3025.53  3026.49  3028.39  3028.72  3030.29
eigval :     3030.39  3035.02  3035.11  3037.51  3037.77  3046.04
eigval :     3047.27  3050.54  3051.97  3068.17  3071.34  3076.82
eigval :     3076.96  3078.63  3079.76  3080.21  3081.38  3082.60
eigval :     3082.90  3083.84  3084.13  3084.40  3085.63  3085.84
eigval :     3086.68  3087.18  3089.32  3090.13  3090.61  3094.36
eigval :     3095.07  3096.23  3096.89  3099.43  3100.73  3104.14
eigval :     3105.29  3106.94  3107.72

   temp. (K)  partition function   enthalpy   heat capacity  entropy
                                   cal/mol     cal/K/mol   cal/K/mol   J/K/mol
 298.15  VIB  0.746E+24            30438.968    190.375    188.911
         ROT  0.139E+09              888.752      2.981     40.247
         INT  0.104E+33            31327.721    193.356    229.159
         TR   0.203E+29             1481.254      4.968     45.747
         TOT                       32808.9744   198.3243   274.9052  1150.2034

       T/K    H(0)-H(T)+PV         H(T)/Eh          T*S/Eh         G(T)/Eh
   ------------------------------------------------------------------------
    298.15    0.522844E-01    0.912922E+00    0.130616E+00    0.782306E+00
   ------------------------------------------------------------------------

         :::::::::::::::::::::::::::::::::::::::::::::::::::::
         ::                  THERMODYNAMIC                  ::
         :::::::::::::::::::::::::::::::::::::::::::::::::::::
         :: total free energy        -151.618686389526 Eh   ::
         ::.................................................::
         :: total energy             -152.400992421099 Eh   ::
         :: zero point energy           0.860637940665 Eh   ::
         :: G(RRHO) w/o ZPVE           -0.078331909092 Eh   ::
         :: G(RRHO) contrib.            0.782306031573 Eh   ::
         :::::::::::::::::::::::::::::::::::::::::::::::::::::

           -------------------------------------------------
          | TOTAL ENERGY             -152.400992421099 Eh   |
          | TOTAL ENTHALPY           -151.488070051607 Eh   |
          | TOTAL FREE ENERGY        -151.618686389526 Eh   |
          | GRADIENT NORM               0.000051803360 Eh/α |
           -------------------------------------------------

 * finished run on 2025/08/24 at 22:51:50.125
