   * xtb version 6.7.1 (edcfbbe) compiled by 'albert@albert-system' on 2024-07-22

   ID    Z sym.   atoms
    1    6 C      1-29, 31-35, 37-59
    2    7 N      30, 36
    3    1 H      60-107

          program call               : xtb data2507/gas/mCP-Ph/mCP-Ph_gas_S0_crest.xyz --gfn 2 --ohess vtight --parallel 40 --molden --ceasefiles --namespace data2507/gas/mCP-Ph/mCP-Ph_gas_S0_finalOpt
          :  Hamiltonian                  GFN2-xTB          :
 * total energy  :  -152.5050077 Eh     change       -0.1755780E-08 Eh
 * total energy  :  -152.5050094 Eh     change       -0.1760606E-05 Eh
 * total energy  :  -152.5050121 Eh     change       -0.2657843E-05 Eh
 * total energy  :  -152.5050160 Eh     change       -0.3851818E-05 Eh
 * total energy  :  -152.5050180 Eh     change       -0.2025406E-05 Eh
 * total energy  :  -152.5050213 Eh     change       -0.3344465E-05 Eh
 * total energy  :  -152.5050287 Eh     change       -0.7339857E-05 Eh
 * total energy  :  -152.5050370 Eh     change       -0.8345613E-05 Eh
 * total energy  :  -152.5050415 Eh     change       -0.4504013E-05 Eh
 * total energy  :  -152.5050448 Eh     change       -0.3246772E-05 Eh
 * total energy  :  -152.5051024 Eh     change       -0.9669719E-06 Eh
 * total energy  :  -152.5051032 Eh     change       -0.8516263E-06 Eh
 * total energy  :  -152.5051038 Eh     change       -0.5617710E-06 Eh
 * total energy  :  -152.5051042 Eh     change       -0.4164546E-06 Eh
 * total energy  :  -152.5051046 Eh     change       -0.4296691E-06 Eh
 * total energy  :  -152.5051051 Eh     change       -0.4904956E-06 Eh
 * total energy  :  -152.5051056 Eh     change       -0.5146227E-06 Eh
 * total energy  :  -152.5051061 Eh     change       -0.4963020E-06 Eh
 * total energy  :  -152.5051061 Eh     change       -0.9261953E-08 Eh
   *** GEOMETRY OPTIMIZATION CONVERGED AFTER 44 ITERATIONS ***

 final structure:
================
107
 xtb: 6.7.1 (edcfbbe)
C           -6.93237087464603        3.00650930131166       -3.32353437882382
C           -6.01300481174726        2.84800734549863       -2.10952276021207
C           -6.82102541234097        3.19216595130914       -0.84995649646182
C           -4.84495475571015        3.83257339969050       -2.26444844114081
C           -5.45788301893754        1.43925968370108       -1.96793810622543
C           -5.78071946220924        0.40788315104622       -2.84392796067646
C           -5.26150881111498       -0.86917187029206       -2.69565651864797
C           -4.40059913386513       -1.12736964535236       -1.64529580046797
C           -4.07348646862124       -0.09965784160839       -0.75055126610959
C           -4.58852471386647        1.16460152652719       -0.90966740082713
C           -3.11838333424595       -0.59892601911258        0.31705448880418
C           -3.73220813492099       -0.61705316683255        1.70365064699192
C           -2.91609702276626       -0.70108017219326        2.82629831958587
C           -3.46600981537003       -0.77863913687518        4.09258113712115
C           -4.84069899457201       -0.77827549104315        4.25628160437588
C           -5.65975158964233       -0.70480681464846        3.14341983207279
C           -5.11011593568404       -0.62959189208635        1.87562678614497
C           -1.85209301622294        0.23046305302864        0.25948722936072
C           -0.77853991642692       -0.17629698783234       -0.53645862687060
C            0.37848569757050        0.57013718731948       -0.63674821485251
C            0.45747566750683        1.75421457604641        0.07831322770077
C           -0.63913225685080        2.20804799203288        0.84356158549143
C           -1.78991931746208        1.43933678665386        0.93527623612239
C           -0.25660426147369        3.48180698720184        1.38644910201886
C           -0.89321100596952        4.39689302838076        2.21397018753534
C           -0.21722572586308        5.54573200752506        2.57341721924583
C            1.08258809259296        5.78006005338089        2.13068752604292
C            1.73742495024986        4.88410365684666        1.30720772219932
C            1.05455918074385        3.73946470083832        0.92329590573237
N            1.47602539911789        2.68511873006287        0.13682687888739
C            2.73975374669652        2.54582142487874       -0.45056652648104
C            3.26630433804820        3.56244257443342       -1.24239119029623
C            4.51721089828917        3.40773009961363       -1.81159163746820
C            5.24759430768149        2.25129122537999       -1.60888151942500
C            4.73080300783936        1.23600323189414       -0.80654380990527
N            5.47820821954465        0.07680382365263       -0.56731776684324
C            5.01858915001660       -1.22390284959454       -0.65802394752846
C            3.77890842387421       -1.70112355446163       -1.05660054743858
C            3.58508189171720       -3.06870617048564       -1.07590746372717
C            4.60179029582818       -3.95173625837035       -0.72128230800507
C            5.84829896537418       -3.48565460130001       -0.35439470046906
C            6.06447437969992       -2.11421774962654       -0.32434864169600
C            7.20769589788217       -1.30303710024557       -0.01267176106844
C            8.50251421088041       -1.59730632121718        0.39332864064535
C            9.37068153594216       -0.55375604282512        0.64354625947716
C            8.95515255182869        0.76910123892373        0.51122644642894
C            7.67209242993263        1.08637748181284        0.10796259290157
C            6.80348543474466        0.04183590351923       -0.17401276795987
C            3.47643870351401        1.38810344082135       -0.22699162791984
C           -2.92537455627326       -2.04201518203451       -0.11053266191070
C           -2.13837937401020       -3.00627100783325        0.47312160789153
C           -2.09828396235334       -4.29613576797852       -0.06144224354033
C           -1.18871997631859       -5.32844216168028        0.58696968198057
C           -1.55309596784318       -5.46780259719130        2.07164905765499
C           -1.30243523310579       -6.71194047719922       -0.05927760020694
C            0.26464608328482       -4.85227164978639        0.44681315070712
C           -2.87778673742977       -4.57325580410082       -1.18000651505439
C           -3.67608124013659       -3.60820564015941       -1.77465761682228
C           -3.69941489217877       -2.33276141111664       -1.24176893581745
H           -7.79825151184056        2.35270462458691       -3.24828024952314
H           -7.29109765593726        4.03274785203559       -3.37434393776729
H           -6.40082931673185        2.79075106068624       -4.24755465490962
H           -7.23372569242803        4.19566091063797       -0.93121727787331
H           -7.64320990730917        2.48977639005564       -0.72764169744224
H           -6.20210081771132        3.14948309690097        0.04200644661711
H           -4.19033687499599        3.81505423627861       -1.39750687235107
H           -5.22262519460330        4.84585536275442       -2.38549349766496
H           -4.25307570182582        3.57731347691663       -3.14117520774401
H           -6.45044028614398        0.58721339892512       -3.66922461422905
H           -5.52922197311234       -1.64787020466814       -3.39486362135542
H           -4.31618949466219        1.93924354987572       -0.20945975733648
H           -1.84180480821741       -0.69273073231279        2.70968955407798
H           -2.81805373418215       -0.83953237666844        4.95521403377739
H           -5.27037734674294       -0.83680158103679        5.24553740446438
H           -6.73380219231620       -0.70766622176785        3.26076807241967
H           -5.75861933398763       -0.57815617859203        1.01331512025583
H           -0.85510502222888       -1.10055490637466       -1.08918916841336
H            1.18833289547132        0.24526755123542       -1.27145901609446
H           -2.61957532212195        1.77665856580823        1.53861111555421
H           -1.89439014365538        4.20653538265178        2.57063656825444
H           -0.69519581067872        6.27176529308549        3.21406677155475
H            1.59175835798178        6.68066018647732        2.44082172386885
H            2.75111763974514        5.06661252794124        0.98355053895089
H            2.68723655839665        4.45549106456565       -1.41976362044960
H            4.92125008663975        4.19159290740727       -2.43455130712491
H            6.20999006499827        2.12202524964299       -2.07917050183551
H            2.98941051242709       -1.03052937606213       -1.35644222296756
H            2.62436434336694       -3.45955981540570       -1.37563185901949
H            4.41048281060077       -5.01412731531325       -0.74561340898346
H            6.64371887495716       -4.16900170544833       -0.09792986737678
H            8.81706155076421       -2.62293850994837        0.51407294343915
H           10.38310872397842       -0.76025284586135        0.95708870008392
H            9.65015999889441        1.56569575945790        0.73245825928040
H            7.35669670699272        2.11581350299563        0.02974263629645
H            3.08400897845203        0.61994145530367        0.42202905002634
H           -1.54669386865691       -2.75301219500737        1.33945259572050
H           -0.92601241764260       -6.22294741948959        2.54128228623461
H           -1.41561097542250       -4.53290292106797        2.60725753270044
H           -2.59352096197499       -5.76889315995994        2.17578187642522
H           -0.64429247053758       -7.40776943200207        0.45754100414272
H           -1.00386125448976       -6.68417723586287       -1.10471772102590
H           -2.31835451564615       -7.09370945819752        0.01197335359942
H            0.52508283586973       -4.75977872866831       -0.60578670775697
H            0.94306758831649       -5.56699753492969        0.90794724891526
H            0.41373716851969       -3.88558528028848        0.92042939791800
H           -2.87239250107769       -5.56014700842810       -1.61339847695532
H           -4.26706202914623       -3.85429016551557       -2.64475296344370

          :  Hamiltonian                  GFN2-xTB          :
         :: gradient norm              0.000067171735 Eh/a0 ::
         :: HOMO-LUMO gap              3.038143845940 eV    ::
         :: SCC energy              -155.329078866453 Eh    ::
         :: -> dispersion             -0.151545038221 Eh    ::
         :: repulsion energy           2.823972730885 Eh    ::

    * Orbital Energies and Occupations

         #    Occupation            Energy/Eh            Energy/eV
      -------------------------------------------------------------
         1        2.0000           -0.6771484             -18.4261
       ...           ...                  ...                  ...
       131        2.0000           -0.4050985             -11.0233
       132        2.0000           -0.4048411             -11.0163
       133        2.0000           -0.4045383             -11.0080
       134        2.0000           -0.4008634             -10.9080
       135        2.0000           -0.3984614             -10.8427
       136        2.0000           -0.3935340             -10.7086
       137        2.0000           -0.3878283             -10.5533
       138        2.0000           -0.3847787             -10.4704
       139        2.0000           -0.3784428             -10.2980
       140        2.0000           -0.3770261             -10.2594
       141        2.0000           -0.3658924              -9.9564
       142        2.0000           -0.3640567              -9.9065
       143        2.0000           -0.3597647              -9.7897 (HOMO)
       144                         -0.2481150              -6.7516 (LUMO)
       145                         -0.2457652              -6.6876
       146                         -0.2419785              -6.5846
       147                         -0.2389983              -6.5035
       148                         -0.2384622              -6.4889
       149                         -0.2228101              -6.0630
       150                         -0.2217111              -6.0331
       151                         -0.2211386              -6.0175
       152                         -0.2169237              -5.9028
       153                         -0.2121210              -5.7721
       154                         -0.2069361              -5.6310
       ...                                ...                  ...
       284                          0.7468786              20.3236
      -------------------------------------------------------------
                  HL-Gap            0.1116497 Eh            3.0381 eV

     #   Z          covCN         q      C6AA      α(0)
     1   6 C        3.761    -0.107    22.582     6.774
     2   6 C        3.903     0.026    20.084     6.370
     3   6 C        3.762    -0.104    22.527     6.766
     4   6 C        3.762    -0.104    22.535     6.767
     5   6 C        2.975     0.005    27.904     8.665
     6   6 C        2.925    -0.044    29.093     8.845
     7   6 C        2.914    -0.038    28.941     8.822
     8   6 C        3.035    -0.004    28.077     8.691
     9   6 C        3.056     0.001    27.959     8.672
    10   6 C        2.922    -0.040    28.998     8.831
    11   6 C        3.948     0.007    20.386     6.416
    12   6 C        2.981     0.018    27.599     8.617
    13   6 C        2.924    -0.034    28.839     8.807
    14   6 C        2.920    -0.031    28.771     8.796
    15   6 C        2.920    -0.033    28.828     8.805
    16   6 C        2.920    -0.030    28.760     8.794
    17   6 C        2.924    -0.036    28.888     8.814
    18   6 C        2.978     0.007    27.855     8.657
    19   6 C        2.927    -0.039    28.974     8.827
    20   6 C        2.910    -0.051    29.267     8.871
    21   6 C        3.078     0.044    26.938     8.509
    22   6 C        3.065    -0.018    28.402     8.739
    23   6 C        2.917    -0.038    28.933     8.821
    24   6 C        3.069    -0.017    28.354     8.731
    25   6 C        2.913    -0.033    28.812     8.802
    26   6 C        2.920    -0.041    29.016     8.833
    27   6 C        2.924    -0.033    28.830     8.805
    28   6 C        2.910    -0.051    29.272     8.872
    29   6 C        3.076     0.047    26.873     8.499
    30   7 N        2.803    -0.045    22.106     6.983
    31   6 C        2.912     0.067    26.501     8.441
    32   6 C        2.921    -0.048    29.199     8.861
    33   6 C        2.919    -0.028    28.702     8.785
    34   6 C        2.922    -0.049    29.209     8.863
    35   6 C        2.911     0.067    26.504     8.442
    36   7 N        2.802    -0.044    22.082     6.979
    37   6 C        3.073     0.046    26.882     8.501
    38   6 C        2.911    -0.050    29.247     8.868
    39   6 C        2.924    -0.033    28.819     8.804
    40   6 C        2.920    -0.040    29.003     8.831
    41   6 C        2.913    -0.033    28.815     8.802
    42   6 C        3.068    -0.017    28.355     8.731
    43   6 C        3.068    -0.016    28.348     8.730
    44   6 C        2.913    -0.033    28.815     8.802
    45   6 C        2.920    -0.041    29.007     8.832
    46   6 C        2.924    -0.033    28.831     8.805
    47   6 C        2.910    -0.051    29.269     8.871
    48   6 C        3.074     0.047    26.881     8.501
    49   6 C        2.926    -0.057    29.426     8.896
    50   6 C        3.058     0.001    27.949     8.670
    51   6 C        2.922    -0.040    28.995     8.830
    52   6 C        2.975     0.005    27.909     8.666
    53   6 C        3.903     0.026    20.086     6.370
    54   6 C        3.761    -0.104    22.540     6.768
    55   6 C        3.761    -0.106    22.579     6.774
    56   6 C        3.762    -0.101    22.481     6.759
    57   6 C        2.925    -0.044    29.093     8.845
    58   6 C        2.914    -0.038    28.941     8.822
    59   6 C        3.035    -0.004    28.078     8.691
    60   1 H        0.925     0.035     2.512     2.478
    61   1 H        0.925     0.035     2.514     2.480
    62   1 H        0.925     0.035     2.513     2.479
    63   1 H        0.925     0.036     2.504     2.474
    64   1 H        0.925     0.033     2.547     2.496
    65   1 H        0.925     0.036     2.500     2.473
    66   1 H        0.925     0.037     2.495     2.470
    67   1 H        0.925     0.036     2.504     2.474
    68   1 H        0.925     0.032     2.551     2.498
    69   1 H        0.926     0.034     2.528     2.487
    70   1 H        0.926     0.027     2.631     2.536
    71   1 H        0.926     0.029     2.607     2.525
    72   1 H        0.926     0.028     2.613     2.528
    73   1 H        0.926     0.028     2.621     2.532
    74   1 H        0.926     0.028     2.621     2.532
    75   1 H        0.926     0.028     2.615     2.529
    76   1 H        0.926     0.031     2.573     2.508
    77   1 H        0.926     0.033     2.539     2.492
    78   1 H        0.926     0.024     2.673     2.557
    79   1 H        0.926     0.031     2.567     2.505
    80   1 H        0.926     0.030     2.580     2.512
    81   1 H        0.926     0.028     2.614     2.528
    82   1 H        0.926     0.029     2.602     2.522
    83   1 H        0.926     0.026     2.638     2.540
    84   1 H        0.926     0.045     2.389     2.417
    85   1 H        0.926     0.041     2.436     2.440
    86   1 H        0.926     0.045     2.386     2.415
    87   1 H        0.926     0.026     2.639     2.540
    88   1 H        0.926     0.031     2.574     2.509
    89   1 H        0.926     0.029     2.605     2.524
    90   1 H        0.926     0.031     2.570     2.507
    91   1 H        0.926     0.031     2.566     2.505
    92   1 H        0.926     0.028     2.608     2.526
    93   1 H        0.926     0.029     2.596     2.520
    94   1 H        0.926     0.027     2.623     2.533
    95   1 H        0.926     0.050     2.326     2.385
    96   1 H        0.926     0.028     2.612     2.527
    97   1 H        0.925     0.036     2.504     2.475
    98   1 H        0.925     0.036     2.499     2.472
    99   1 H        0.925     0.033     2.542     2.494
   100   1 H        0.925     0.035     2.512     2.479
   101   1 H        0.925     0.035     2.515     2.480
   102   1 H        0.925     0.035     2.512     2.478
   103   1 H        0.925     0.031     2.572     2.508
   104   1 H        0.925     0.036     2.500     2.472
   105   1 H        0.925     0.036     2.507     2.476
   106   1 H        0.926     0.034     2.526     2.486
   107   1 H        0.926     0.027     2.629     2.535

molecular dipole:
                 x           y           z       tot (Debye)
 q only:        0.211       0.309      -0.216
   full:        0.252       0.384      -0.251       1.331

 projected vibrational frequencies (cm⁻¹)
eigval :       -0.00    -0.00    -0.00     0.00     0.00     0.00
eigval :        7.17     9.35    19.12    20.29    21.64    27.95
eigval :       29.39    33.23    36.04    40.07    48.14    54.64
eigval :       58.78    63.35    77.68    80.06    86.02   101.46
eigval :      104.49   121.60   126.73   133.65   143.42   146.49
eigval :      154.72   173.75   177.04   179.11   184.43   195.21
eigval :      203.47   213.63   219.67   223.63   237.37   239.17
eigval :      247.12   253.70   262.23   272.30   274.03   285.20
eigval :      292.93   304.01   308.53   314.75   319.85   325.51
eigval :      330.06   336.00   339.15   352.21   361.54   365.56
eigval :      374.45   380.26   385.45   394.36   398.64   418.76
eigval :      422.15   425.10   426.15   431.50   434.96   440.76
eigval :      446.23   450.44   458.40   461.44   478.09   487.75
eigval :      514.98   520.60   529.49   532.25   535.02   541.02
eigval :      542.86   552.99   565.04   573.12   584.64   590.70
eigval :      590.93   602.45   609.51   613.40   621.56   628.76
eigval :      632.10   645.90   652.41   669.38   671.58   675.03
eigval :      678.25   687.23   697.60   707.77   709.14   715.32
eigval :      721.55   728.78   750.34   760.98   763.15   767.36
eigval :      774.93   779.36   780.54   804.56   810.91   818.28
eigval :      820.32   830.66   863.64   869.79   871.68   873.25
eigval :      880.00   883.28   885.00   888.01   889.43   894.76
eigval :      896.53   898.89   899.50   902.88   903.05   904.80
eigval :      906.93   908.25   910.54   912.21   913.57   921.51
eigval :      922.74   923.70   931.37   933.18   934.18   935.61
eigval :      959.93   960.32   962.04   962.61   963.25   964.25
eigval :      966.78   976.94   997.16   998.44  1009.24  1015.24
eigval :     1018.81  1032.06  1034.55  1035.64  1036.21  1037.70
eigval :     1070.14  1071.84  1074.26  1088.18  1110.57  1114.49
eigval :     1121.54  1125.91  1127.83  1129.90  1139.82  1150.10
eigval :     1155.77  1169.34  1176.24  1178.11  1179.81  1180.65
eigval :     1182.79  1183.63  1188.58  1196.83  1201.48  1204.40
eigval :     1212.89  1227.26  1227.64  1230.92  1232.97  1234.39
eigval :     1235.25  1236.31  1237.94  1245.86  1251.43  1255.52
eigval :     1257.82  1285.08  1286.44  1287.50  1289.68  1300.26
eigval :     1300.50  1301.71  1310.39  1318.07  1320.15  1330.51
eigval :     1345.92  1354.27  1358.89  1360.42  1363.47  1376.53
eigval :     1377.71  1402.90  1403.84  1406.29  1406.70  1416.92
eigval :     1419.11  1421.22  1425.12  1428.25  1429.31  1430.13
eigval :     1432.08  1436.76  1453.30  1464.87  1473.13  1474.70
eigval :     1475.79  1476.74  1479.86  1486.02  1488.41  1492.35
eigval :     1492.40  1494.93  1495.07  1501.57  1502.04  1505.78
eigval :     1506.16  1515.07  1515.10  1520.38  1520.70  1569.55
eigval :     1573.03  1577.17  1579.50  1584.20  1587.30  1589.37
eigval :     1589.98  1595.72  1600.03  1600.57  1601.25  1607.58
eigval :     1612.36  1615.49  1617.69  3020.77  3020.87  3022.05
eigval :     3022.25  3025.22  3026.10  3029.12  3029.31  3030.14
eigval :     3030.51  3035.03  3035.20  3037.75  3038.08  3045.13
eigval :     3046.43  3050.00  3051.31  3068.94  3072.51  3075.19
eigval :     3076.48  3076.90  3079.03  3079.66  3079.72  3081.02
eigval :     3082.53  3084.58  3085.50  3085.86  3086.31  3087.07
eigval :     3088.70  3090.02  3090.34  3091.49  3092.14  3094.74
eigval :     3095.91  3096.79  3097.75  3099.62  3100.62  3104.37
eigval :     3105.38  3112.36  3112.76

   temp. (K)  partition function   enthalpy   heat capacity  entropy
                                   cal/mol     cal/K/mol   cal/K/mol   J/K/mol
 298.15  VIB  0.206E+24            29969.565    188.307    185.477
         ROT  0.139E+09              888.752      2.981     40.247
         INT  0.287E+32            30858.318    191.288    225.724
         TR   0.203E+29             1481.254      4.968     45.747
         TOT                       32339.5717   196.2559   271.4705  1135.8324

       T/K    H(0)-H(T)+PV         H(T)/Eh          T*S/Eh         G(T)/Eh
   ------------------------------------------------------------------------
    298.15    0.515364E-01    0.916746E+00    0.128984E+00    0.787761E+00
   ------------------------------------------------------------------------

         :::::::::::::::::::::::::::::::::::::::::::::::::::::
         ::                  THERMODYNAMIC                  ::
         :::::::::::::::::::::::::::::::::::::::::::::::::::::
         :: total free energy        -151.717344728126 Eh   ::
         ::.................................................::
         :: total energy             -152.505106135561 Eh   ::
         :: zero point energy           0.865209395126 Eh   ::
         :: G(RRHO) w/o ZPVE           -0.077447987692 Eh   ::
         :: G(RRHO) contrib.            0.787761407434 Eh   ::
         :::::::::::::::::::::::::::::::::::::::::::::::::::::

           -------------------------------------------------
          | TOTAL ENERGY             -152.505106135561 Eh   |
          | TOTAL ENTHALPY           -151.588360352577 Eh   |
          | TOTAL FREE ENERGY        -151.717344728126 Eh   |
          | GRADIENT NORM               0.000067163942 Eh/α |
          | HOMO-LUMO GAP               3.038144249182 eV   |
           -------------------------------------------------

 * finished run on 2025/08/24 at 22:34:59.686
