   * xtb version 6.7.1 (edcfbbe) compiled by 'albert@albert-system' on 2024-07-22

   ID    Z sym.   atoms
    1    6 C      1-29, 31-35, 37-59
    2    7 N      30, 36
    3    1 H      60-107

          program call               : xtb data2507/gas/mCP-Ph/mCP-Ph_gas_S0_finalOpt.xtbopt.xyz --gfn 2 --spinpol --tblite --uhf 2 --ohess vtight --parallel 40 --molden --ceasefiles --namespace data2507/gas/mCP-Ph/mCP-Ph_gas_T1_preOpt
 * total energy  :  -152.3927158 Eh     change        0.8491938E-07 Eh
 * total energy  :  -152.3942541 Eh     change       -0.1538320E-02 Eh
 * total energy  :  -152.3946913 Eh     change       -0.4371821E-03 Eh
 * total energy  :  -152.3947723 Eh     change       -0.8105442E-04 Eh
 * total energy  :  -152.3948371 Eh     change       -0.6475389E-04 Eh
 * total energy  :  -152.3948626 Eh     change       -0.2551479E-04 Eh
 * total energy  :  -152.3948843 Eh     change       -0.2167398E-04 Eh
 * total energy  :  -152.3948982 Eh     change       -0.1396599E-04 Eh
 * total energy  :  -152.3949072 Eh     change       -0.9000534E-05 Eh
 * total energy  :  -152.3949110 Eh     change       -0.3787537E-05 Eh
 * total energy  :  -152.3949546 Eh     change       -0.2071284E-06 Eh
 * total energy  :  -152.3949552 Eh     change       -0.5469232E-06 Eh
 * total energy  :  -152.3949555 Eh     change       -0.3393154E-06 Eh
 * total energy  :  -152.3949558 Eh     change       -0.2473421E-06 Eh
 * total energy  :  -152.3949558 Eh     change       -0.1632924E-07 Eh
 * total energy  :  -152.3949560 Eh     change       -0.1875962E-06 Eh
 * total energy  :  -152.3949562 Eh     change       -0.2440796E-06 Eh
 * total energy  :  -152.3949564 Eh     change       -0.1788738E-06 Eh
 * total energy  :  -152.3949565 Eh     change       -0.8579164E-07 Eh
   *** GEOMETRY OPTIMIZATION CONVERGED AFTER 53 ITERATIONS ***

 final structure:
================
107
 xtb: 6.7.1 (edcfbbe)
C           -6.90693445033970        3.00478065384699       -3.31422374795950
C           -5.99077584617325        2.84444783238078       -2.09804027127888
C           -6.80680015797531        3.17183946508114       -0.83901359819491
C           -4.83017610006805        3.83986158624413       -2.23983962061008
C           -5.42383248520330        1.43984784856071       -1.96642971103655
C           -5.72561013062351        0.41424691036977       -2.85877843017554
C           -5.19934346849801       -0.85957333259475       -2.71755511770505
C           -4.34848837461858       -1.12413276700321       -1.65839715090093
C           -4.04216280592263       -0.10034958781702       -0.74893632811991
C           -4.56312111326089        1.16178533648791       -0.90172414675019
C           -3.09842554405866       -0.60575827046163        0.32840217457821
C           -3.71743948104867       -0.62210363275239        1.71108604779242
C           -2.90274769426227       -0.69632281379985        2.83549742736236
C           -3.45556385987163       -0.77308800460082        4.10057333765402
C           -4.83078010363503       -0.78198779533722        4.26009672545082
C           -5.64787292401203       -0.71781605821186        3.14502369232833
C           -5.09556749217595       -0.64272769420657        1.87836534938193
C           -1.84520626479937        0.23313784711158        0.26066701897620
C           -0.77417723879934       -0.17063096961646       -0.55367035132132
C            0.38406780275273        0.58748215564942       -0.64473467788034
C            0.45900468253883        1.76669117189506        0.07498385545140
C           -0.65468142982824        2.23752861067291        0.83963256879820
C           -1.79684767075923        1.44589366856595        0.93801917692714
C           -0.28928347525612        3.51356841061178        1.35074834703776
C           -0.93596071448283        4.45626248364627        2.15233161107361
C           -0.25260777969825        5.60910654550206        2.50469245568311
C            1.05303928439857        5.83809560107136        2.08647461285742
C            1.71872124896955        4.91286353377813        1.27700105171367
C            1.03616251964552        3.77574208575093        0.89986704608898
N            1.46922293308725        2.69975102446514        0.13214488248760
C            2.73129429725886        2.55776185363173       -0.42389974397786
C            3.32044722866929        3.62654765493443       -1.14868103725442
C            4.57665335989933        3.46634535316146       -1.69279196156487
C            5.28631083188573        2.28988362007380       -1.52532132928170
C            4.71045757009028        1.22572018165677       -0.78479425427090
N            5.43817022896489        0.05789178779846       -0.57006769697494
C            4.96642809591489       -1.23689850899024       -0.69827931527576
C            3.73699706692619       -1.69011323219770       -1.14510678512368
C            3.52552346834216       -3.05920495760620       -1.20139765122686
C            4.52242238357431       -3.95821039155254       -0.82856162717599
C            5.76533810344963       -3.51640246831743       -0.41623073115265
C            6.00162723272101       -2.14631294914443       -0.35623260715025
C            7.14284956596689       -1.35684328453550       -0.01005672759264
C            8.43200318359149       -1.66710868839086        0.41086467978088
C            9.30023238143660       -0.63273142800841        0.70579147416537
C            8.89962171832338        0.69768749059709        0.60129555065239
C            7.62126402729848        1.03218792230763        0.17941173805833
C            6.75491806474404        0.00208522441297       -0.14775734306124
C            3.43546660080061        1.36564887327496       -0.26320930828265
C           -2.89569668017971       -2.04503397251508       -0.10686430346141
C           -2.11519448962423       -3.01058710482587        0.48172455692865
C           -2.06260520700523       -4.29665892715440       -0.06265068586728
C           -1.16686154388975       -5.33360182140182        0.59652892014703
C           -1.57335810760298       -5.49266913819649        2.06843911010599
C           -1.25730757798329       -6.70896285866611       -0.07042048499203
C            0.28857683213893       -4.85195914038852        0.50470532732777
C           -2.82203697585940       -4.56633821537962       -1.19808228052112
C           -3.61310323506919       -3.60020382431880       -1.79832502331469
C           -3.65049177357583       -2.32768987864904       -1.25503999048684
H           -7.76544041169266        2.34021423743422       -3.24918787554560
H           -7.27718291286678        4.02727481297088       -3.35587566716172
H           -6.36933349817249        2.80509274241899       -4.23832499282916
H           -7.23126306682631        4.17065056277328       -0.91654073960325
H           -7.62090182883327        2.45905234513323       -0.72297436351377
H           -6.19038037719913        3.13249666898126        0.05479187140088
H           -4.17620990644791        3.81685435017220       -1.37251778996926
H           -5.21567725845248        4.85147065389505       -2.34903912389416
H           -4.23550720373211        3.59989346929594       -3.11896857725286
H           -6.38435488239416        0.59836808297462       -3.69179857170140
H           -5.44998353006155       -1.63258044063641       -3.42912746590670
H           -4.30559700071877        1.93164046761918       -0.19104440485365
H           -1.82832707665085       -0.68126609568511        2.71979803764674
H           -2.80973696317642       -0.82603915078916        4.96520950014705
H           -5.26268621524718       -0.84000783255118        5.24835142227726
H           -6.72207449302513       -0.72731203933945        3.25997534961699
H           -5.74114696406104       -0.59740941520361        1.01339956074537
H           -0.85128195955143       -1.08795169763178       -1.11464801999651
H            1.19350582138854        0.26960367884137       -1.28272968738398
H           -2.62742515618447        1.76959719213388        1.54666005400828
H           -1.94509341580672        4.28287188607750        2.49303946553389
H           -0.74092827197878        6.34437541483629        3.12778030432238
H            1.56619719885768        6.73582220515229        2.39328879713524
H            2.74165032550180        5.08413541189978        0.97873926309595
H            2.75207856073033        4.52703643168584       -1.31628664253830
H            5.01351184266491        4.27030503911473       -2.26686576925149
H            6.25100041137565        2.15405696192962       -1.98598497182135
H            2.96557901074252       -1.00515199829344       -1.45844847733204
H            2.57207325934660       -3.43131583621558       -1.54322575662897
H            4.32005659622713       -5.01800109760227       -0.87660498724614
H            6.54281039013591       -4.21582261010268       -0.14917643179977
H            8.74156181787422       -2.69652088967730        0.50823251181528
H           10.30447928078067       -0.85550017564523        1.03506087486657
H            9.59314604265973        1.48341053398818        0.85969872228969
H            7.31158438422539        2.06486130908001        0.12756393237553
H            3.00927781983729        0.57483195659766        0.33581485495694
H           -1.53992577691124       -2.76321873190241        1.36064214002772
H           -0.95697665006258       -6.25110523113633        2.54672903731882
H           -1.45522425505789       -4.56363064666541        2.61873581842085
H           -2.61511690234588       -5.79895231824651        2.13888714936967
H           -0.60770880387687       -7.40790029232966        0.45288019317908
H           -0.93382409593330       -6.66546357722820       -1.10788427200289
H           -2.27229693283774       -7.09752175765244       -0.02862073120441
H            0.58079756027455       -4.74588189595710       -0.53798690274506
H            0.95476229779463       -5.57070574511384        0.97714502468492
H            0.42174342734814       -3.89083884995473        0.99382569262744
H           -2.80496163704424       -5.54954301874758       -1.63940562007057
H           -4.18768873188306       -3.84033746197105       -2.68086491563108

 projected vibrational frequencies (cm⁻¹)
eigval :       -0.00    -0.00    -0.00    -0.00     0.00     0.00
eigval :        5.64     8.71    17.47    19.09    21.44    28.57
eigval :       29.41    31.85    35.21    39.32    46.58    57.17
eigval :       57.95    64.49    77.19    79.43    86.62    99.01
eigval :      103.44   120.65   124.82   132.16   141.36   145.30
eigval :      152.17   172.37   175.58   177.53   182.84   190.13
eigval :      201.08   212.25   218.74   221.06   233.52   237.80
eigval :      241.94   249.11   261.81   263.26   267.86   284.26
eigval :      292.62   301.69   307.96   313.82   319.97   324.66
eigval :      325.97   332.26   334.54   350.57   357.29   364.54
eigval :      367.50   372.46   375.08   381.64   384.32   400.77
eigval :      410.18   415.06   418.11   422.88   431.25   435.15
eigval :      443.20   449.73   455.11   456.14   475.78   482.69
eigval :      494.35   509.68   512.04   524.87   529.03   531.87
eigval :      541.34   549.12   557.57   566.43   575.45   577.07
eigval :      581.85   589.88   599.43   607.82   616.13   619.48
eigval :      623.13   630.63   637.67   644.76   658.55   661.79
eigval :      668.55   677.02   684.26   692.78   696.45   704.89
eigval :      714.92   719.14   725.55   743.86   748.53   754.26
eigval :      756.57   758.79   764.38   773.01   782.67   807.16
eigval :      816.08   822.68   827.49   830.41   842.51   849.04
eigval :      853.72   859.40   864.91   870.75   873.84   878.18
eigval :      879.18   880.24   883.01   884.87   892.37   892.58
eigval :      892.72   899.56   900.49   903.46   903.96   907.90
eigval :      908.75   909.06   911.28   915.51   930.17   932.28
eigval :      936.53   956.81   959.46   959.96   961.29   962.15
eigval :      962.75   963.02   964.75   978.14   993.37  1001.19
eigval :     1008.26  1011.18  1020.58  1033.59  1035.00  1035.37
eigval :     1036.49  1061.70  1063.95  1069.39  1085.84  1089.72
eigval :     1102.52  1108.46  1118.70  1123.24  1125.40  1126.01
eigval :     1134.04  1138.25  1147.52  1157.36  1169.18  1171.88
eigval :     1173.67  1177.30  1180.63  1181.44  1191.35  1192.80
eigval :     1201.52  1206.12  1210.48  1222.32  1226.51  1226.64
eigval :     1229.46  1231.51  1232.86  1233.63  1235.87  1236.14
eigval :     1237.33  1253.35  1255.58  1269.69  1272.47  1277.22
eigval :     1283.88  1285.27  1289.15  1292.06  1296.41  1300.53
eigval :     1319.72  1320.39  1325.84  1330.14  1350.96  1356.87
eigval :     1367.88  1373.23  1386.32  1393.73  1395.02  1402.47
eigval :     1404.38  1404.81  1405.55  1406.64  1410.80  1416.29
eigval :     1426.77  1427.76  1428.56  1431.35  1433.07  1435.89
eigval :     1446.65  1449.44  1453.61  1456.79  1463.28  1474.64
eigval :     1477.19  1482.83  1490.67  1490.98  1493.09  1493.64
eigval :     1499.54  1499.92  1503.07  1504.34  1505.44  1513.47
eigval :     1513.94  1518.39  1518.91  1519.65  1525.81  1532.92
eigval :     1547.71  1561.35  1563.04  1565.56  1584.51  1586.71
eigval :     1587.55  1599.56  1605.38  3021.03  3021.42  3022.79
eigval :     3023.01  3026.28  3026.55  3029.19  3029.45  3030.46
eigval :     3030.77  3035.01  3035.12  3037.91  3038.16  3046.57
eigval :     3046.75  3049.93  3051.06  3069.31  3072.93  3075.55
eigval :     3076.27  3077.69  3078.81  3079.52  3079.68  3080.53
eigval :     3084.20  3085.73  3086.46  3087.43  3088.98  3090.47
eigval :     3091.48  3091.73  3091.89  3092.06  3093.46  3093.93
eigval :     3096.26  3097.65  3101.30  3105.24  3106.46  3109.43
eigval :     3111.45  3112.67  3113.07

   temp. (K)  partition function   enthalpy   heat capacity  entropy
                                   cal/mol     cal/K/mol   cal/K/mol   J/K/mol
 298.15  VIB  0.570E+24            30432.290    191.572    188.433
         ROT  0.139E+09              888.752      2.981     40.235
         INT  0.789E+32            31321.043    194.553    228.668
         TR   0.203E+29             1481.254      4.968     45.747
         TOT                       32802.2967   199.5214   274.4147  1148.1513

       T/K    H(0)-H(T)+PV         H(T)/Eh          T*S/Eh         G(T)/Eh
   ------------------------------------------------------------------------
    298.15    0.522738E-01    0.909165E+00    0.130383E+00    0.778781E+00
   ------------------------------------------------------------------------

         :::::::::::::::::::::::::::::::::::::::::::::::::::::
         ::                  THERMODYNAMIC                  ::
         :::::::::::::::::::::::::::::::::::::::::::::::::::::
         :: total free energy        -151.616175198993 Eh   ::
         ::.................................................::
         :: total energy             -152.394956603135 Eh   ::
         :: zero point energy           0.856890913751 Eh   ::
         :: G(RRHO) w/o ZPVE           -0.078109509609 Eh   ::
         :: G(RRHO) contrib.            0.778781404142 Eh   ::
         :::::::::::::::::::::::::::::::::::::::::::::::::::::

           -------------------------------------------------
          | TOTAL ENERGY             -152.394956603135 Eh   |
          | TOTAL ENTHALPY           -151.485791902267 Eh   |
          | TOTAL FREE ENERGY        -151.616175198993 Eh   |
          | GRADIENT NORM               0.000187296915 Eh/α |
           -------------------------------------------------

 * finished run on 2025/08/24 at 22:35:23.076
