   * xtb version 6.7.1 (edcfbbe) compiled by 'albert@albert-system' on 2024-07-22

   ID    Z sym.   atoms
    1    6 C      1-5, 7-22, 24-48
    2    7 N      6, 23
    3    1 H      49-94

          program call               : xtb data2507/gas/DC–TC/DC–TC_gas_S0_finalOpt.xtbopt.xyz --gfn 2 --spinpol --tblite --uhf 2 --ohess vtight --parallel 40 --molden --ceasefiles --namespace data2507/gas/DC–TC/DC–TC_gas_T1_preOpt
 * total energy  :  -127.7558768 Eh     change        0.6665955E-07 Eh
 * total energy  :  -127.7583913 Eh     change       -0.2514578E-02 Eh
 * total energy  :  -127.7588691 Eh     change       -0.4777247E-03 Eh
 * total energy  :  -127.7589447 Eh     change       -0.7561197E-04 Eh
 * total energy  :  -127.7590155 Eh     change       -0.7083490E-04 Eh
 * total energy  :  -127.7590604 Eh     change       -0.4493207E-04 Eh
 * total energy  :  -127.7591496 Eh     change       -0.8914720E-04 Eh
 * total energy  :  -127.7592594 Eh     change       -0.1097760E-03 Eh
 * total energy  :  -127.7593290 Eh     change       -0.6964475E-04 Eh
 * total energy  :  -127.7593703 Eh     change       -0.4125455E-04 Eh
 * total energy  :  -127.7615738 Eh     change       -0.1721505E-05 Eh
 * total energy  :  -127.7615757 Eh     change       -0.1840389E-05 Eh
 * total energy  :  -127.7615776 Eh     change       -0.1901449E-05 Eh
 * total energy  :  -127.7615795 Eh     change       -0.1953068E-05 Eh
 * total energy  :  -127.7615815 Eh     change       -0.1918855E-05 Eh
 * total energy  :  -127.7615836 Eh     change       -0.2128881E-05 Eh
 * total energy  :  -127.7615858 Eh     change       -0.2167677E-05 Eh
 * total energy  :  -127.7615880 Eh     change       -0.2234684E-05 Eh
 * total energy  :  -127.7615881 Eh     change       -0.8173538E-07 Eh
   *** GEOMETRY OPTIMIZATION CONVERGED AFTER 221 ITERATIONS ***

 final structure:
================
94
 xtb: 6.7.1 (edcfbbe)
C           -1.85649371668102       -5.31047640449540        2.56974892161204
C           -2.36461119523979       -4.04666198988819        1.94743629893680
C           -1.51891680518142       -3.19382659903736        1.24449459990717
C           -1.99166380811697       -2.03186483274607        0.67394443100234
C           -3.34128135324071       -1.68067595704566        0.79663728965105
N           -3.81082719788935       -0.49462703451105        0.23426883657014
C           -5.09189355359196       -0.41918802415378       -0.30807473551173
C           -5.66923059874231       -1.51798691742535       -0.95450831352613
C           -6.93237504374155       -1.42178023835317       -1.49376990227369
C           -7.66357996430775       -0.23661558997836       -1.41848251265896
C           -9.03107358175923       -0.14906697985937       -2.02256417116416
C           -7.08098287447571        0.85551305512896       -0.78233919814243
C           -5.81905877015507        0.77400105828890       -0.23457194672314
C           -2.97269887062737        0.61167806437147        0.19147112439945
C           -2.12224255394387        0.92142491585209        1.28215251159138
C           -1.26980320323136        1.98228998376469        1.21953718910321
C           -1.16560214767894        2.79618706162232        0.06447867078912
C           -0.04435125357153        3.80518314673501       -0.06506261892022
C            1.05989307927787        2.77632112024434       -0.14466440153976
C            1.85424526387756        2.42551738331744        0.97879263476986
C            2.71834469675793        1.36873818031932        0.95144742446437
C            2.82277556846284        0.54936934089515       -0.19085611843329
N            3.64126595915046       -0.57092959987344       -0.19984744537937
C            4.88357443812717       -0.53126279959182        0.42969699318230
C            5.63914102975450        0.64665523300117        0.42584501267138
C            6.86157830628939        0.69211657167102        1.06020994738783
C            7.37549284287657       -0.42197988826434        1.71749561906036
C            8.69948591420868       -0.37452955762866        2.41546349235525
C            6.61609452333010       -1.59203554148511        1.72257564505430
C            5.39193756243154       -1.65247145897158        1.09591092070157
C            3.18901866788593       -1.73927059496070       -0.81132653879886
C            1.82865530798547       -2.06998668041452       -0.77902760652129
C            1.37521814132772       -3.21473433469447       -1.39770689219713
C            2.25019756518912       -4.06986217174847       -2.06119752697335
C            1.76289232210798       -5.31470053148843       -2.73596676923091
C            3.60465064167267       -3.73424213263362       -2.09259009677312
C            4.07182664533961       -2.59067196660978       -1.48558574772566
C            2.03820472431291        0.88709676798377       -1.32362327616729
C            1.20516572544729        1.96487664844217       -1.29618588394066
C           -0.13161718434715        4.68846563713374       -1.31868216305769
C            1.07695811421900        5.61569857833600       -1.41704732692154
C            1.14781904448798        6.54172758689964       -0.21002427175087
C            1.21198358944088        5.70849411225097        1.06322323778570
C            0.02084735812443        4.75717387401959        1.14026359292955
C           -2.03894085557900        2.48663989787590       -1.00821079660312
C           -2.92379059328741        1.44784785352075       -0.94251420214913
C           -4.19383777622177       -2.52987083851835        1.51102053286825
C           -3.70837474562608       -3.69107445807050        2.06881887695033
H           -0.82787667592253       -5.50242390889208        2.27473251772413
H           -1.89548824878171       -5.23992230567240        3.65718029213171
H           -2.47124759982600       -6.15903683430551        2.27190312862531
H           -0.47441249990489       -3.44997373853565        1.13575570332278
H           -1.33114803052500       -1.38785044412502        0.11240589392037
H           -5.10999705439447       -2.43850801207734       -1.03670841531466
H           -7.36417497715715       -2.27827001765007       -1.99179013673269
H           -9.63775474781504       -1.00351183735295       -1.72642354282300
H           -8.96438857877172       -0.15154155483289       -3.11118478544408
H           -9.53520329481938        0.76313183656853       -1.71326207130136
H           -7.63083401957651        1.78287496859355       -0.70731039756656
H           -5.38564946763210        1.62418749827790        0.27099776289280
H           -2.18115395934830        0.31576176537246        2.17497397299275
H           -0.64022527630350        2.18820741453955        2.07127990127340
H            1.78730167003991        3.00236481653719        1.88695819087331
H            3.30879987283987        1.12566605245810        1.82380108028841
H            5.25998294595294        1.51351678465833       -0.09484224409946
H            7.43487159601578        1.60799176921972        1.03822127868553
H            9.31552407133189       -1.22575952202798        2.12911566323256
H            8.55925261175337       -0.41618173321877        3.49622839005445
H            9.23359710981939        0.54126178275761        2.17478772038613
H            6.99437186233939       -2.46497007851909        2.23533294997678
H            4.80899403344699       -2.56144841351002        1.12405232365238
H            1.14437530416150       -1.42480053064196       -0.24819097000254
H            0.32219099471537       -3.45577928576891       -1.35845830798679
H            0.71826657870612       -5.50128939815476       -2.49954904958552
H            2.35265028157638       -6.17610680996406       -2.42484713670153
H            1.85949000987633       -5.22179479386794       -3.81818898797745
H            4.29726218209563       -4.38208271761160       -2.61082788257629
H            5.12046259082081       -2.33564845426636       -1.53417076227066
H            2.13270612233316        0.28847558949529       -2.21806319114802
H            0.62491907281190        2.18728319584338       -2.17841681067631
H           -1.04555326635450        5.28556120854889       -1.26641294263366
H           -0.17587999453940        4.08602870504440       -2.22445234217898
H            1.01198661080340        6.20257347037777       -2.33645477887977
H            1.98574990170264        5.01097120058581       -1.46594967117874
H            2.02465604429863        7.18910052774484       -0.28138540178465
H            0.26059774167384        7.17972707742263       -0.18736796710872
H            1.21483718206919        6.36059190911190        1.94026423805606
H            2.14157716777112        5.13631970254399        1.06515364793168
H           -0.90343617843103        5.34168778659298        1.14466545858484
H            0.05017460163957        4.20547811566561        2.07874650403555
H           -2.02489796841136        3.08818445601731       -1.90258593539766
H           -3.57724626794865        1.23548039517138       -1.77700282589509
H           -5.23303711002815       -2.25987112798275        1.62993710023094
H           -4.37800701985263       -4.33693690198742        2.61880906203443

 projected vibrational frequencies (cm⁻¹)
eigval :       -0.00    -0.00     0.00     0.00     0.00     0.00
eigval :       -8.50    -7.25     9.87    10.80    19.46    21.03
eigval :       21.35    22.48    31.46    34.89    40.19    43.17
eigval :       46.86    49.82    54.61    64.54    70.01    76.18
eigval :       99.41   107.64   110.73   119.43   129.85   141.61
eigval :      147.73   148.76   165.73   173.90   193.24   214.70
eigval :      225.37   242.08   260.12   260.86   262.10   277.28
eigval :      290.85   303.15   308.82   316.67   324.43   329.52
eigval :      333.36   346.54   357.42   361.68   365.65   371.16
eigval :      374.89   379.43   380.97   385.22   388.81   391.84
eigval :      404.65   413.67   426.38   437.32   440.15   444.70
eigval :      467.43   476.49   479.98   498.19   500.00   515.36
eigval :      534.17   535.41   539.57   572.10   597.34   598.79
eigval :      605.25   608.93   609.68   610.05   618.70   625.74
eigval :      628.11   638.14   653.24   653.91   654.88   655.71
eigval :      698.82   734.13   775.57   781.38   786.60   787.40
eigval :      796.80   798.33   798.89   800.90   805.53   816.24
eigval :      820.48   821.72   824.99   860.34   861.04   862.80
eigval :      864.19   880.56   889.46   893.12   894.12   898.34
eigval :      900.65   902.53   907.47   908.36   909.93   911.27
eigval :      914.63   916.68   918.03   921.08   922.70   923.39
eigval :      926.97   940.79   954.80   971.56   976.03   980.13
eigval :      998.41  1003.49  1004.22  1004.38  1005.28  1007.76
eigval :     1011.92  1015.74  1018.37  1029.83  1029.91  1030.05
eigval :     1030.20  1046.25  1090.47  1094.85  1118.37  1124.31
eigval :     1139.62  1143.54  1143.86  1145.58  1148.49  1151.03
eigval :     1155.97  1175.13  1180.80  1181.97  1187.23  1194.67
eigval :     1196.50  1198.17  1214.45  1217.67  1220.51  1224.21
eigval :     1229.31  1238.25  1240.51  1241.27  1252.09  1255.75
eigval :     1258.79  1268.57  1270.06  1273.25  1275.68  1294.84
eigval :     1304.98  1310.68  1312.61  1316.71  1324.42  1325.73
eigval :     1327.93  1329.00  1334.10  1336.29  1336.77  1341.86
eigval :     1343.20  1348.49  1351.70  1360.95  1361.35  1398.70
eigval :     1402.71  1403.36  1404.19  1405.03  1407.38  1409.15
eigval :     1419.08  1420.90  1434.63  1448.80  1450.14  1454.78
eigval :     1457.49  1460.80  1464.04  1466.08  1470.68  1474.08
eigval :     1476.52  1479.18  1480.63  1481.17  1481.43  1481.59
eigval :     1482.08  1488.62  1491.28  1491.92  1492.35  1493.56
eigval :     1495.60  1498.17  1513.47  1522.47  1541.22  1545.62
eigval :     1547.39  1609.04  2954.89  2956.75  2959.83  2962.75
eigval :     2966.84  2978.32  2979.66  2989.95  2992.17  2992.46
eigval :     2993.16  2994.09  3006.28  3007.09  3014.28  3014.46
eigval :     3017.23  3018.66  3042.80  3042.86  3042.98  3043.10
eigval :     3068.18  3069.14  3070.71  3071.03  3071.45  3071.55
eigval :     3072.58  3072.94  3073.28  3073.42  3073.97  3074.17
eigval :     3085.59  3085.79  3087.30  3087.52  3088.52  3088.97
eigval :     3089.33  3090.03  3092.28  3093.94  3104.85  3105.93

   temp. (K)  partition function   enthalpy   heat capacity  entropy
                                   cal/mol     cal/K/mol   cal/K/mol   J/K/mol
 298.15  VIB  0.969E+24            26888.954    159.428    172.443
         ROT  0.868E+08              888.752      2.981     39.305
         INT  0.840E+32            27777.707    162.409    211.748
         TR   0.152E+29             1481.254      4.968     45.169
         TOT                       29258.9607   167.3768   256.9173  1074.9421

       T/K    H(0)-H(T)+PV         H(T)/Eh          T*S/Eh         G(T)/Eh
   ------------------------------------------------------------------------
    298.15    0.466271E-01    0.816769E+00    0.122070E+00    0.694699E+00
   ------------------------------------------------------------------------

         :::::::::::::::::::::::::::::::::::::::::::::::::::::
         ::                  THERMODYNAMIC                  ::
         :::::::::::::::::::::::::::::::::::::::::::::::::::::
         :: total free energy        -127.066889258258 Eh   ::
         ::.................................................::
         :: total energy             -127.761588074871 Eh   ::
         :: zero point energy           0.770141403239 Eh   ::
         :: G(RRHO) w/o ZPVE           -0.075442586627 Eh   ::
         :: G(RRHO) contrib.            0.694698816613 Eh   ::
         :::::::::::::::::::::::::::::::::::::::::::::::::::::

           -------------------------------------------------
          | TOTAL ENERGY             -127.761588074871 Eh   |
          | TOTAL ENTHALPY           -126.944819549855 Eh   |
          | TOTAL FREE ENERGY        -127.066889258258 Eh   |
          | GRADIENT NORM               0.000107333304 Eh/α |
           -------------------------------------------------

 * finished run on 2025/09/13 at 21:27:34.419
