   * xtb version 6.7.1 (edcfbbe) compiled by 'albert@albert-system' on 2024-07-22

   ID    Z sym.   atoms
    1    6 C      1-5, 7-22, 24-48
    2    7 N      6, 23
    3    1 H      49-94

          program call               : xtb data2507/gas/DC–TC/DC–TC_gas_S0_crest.xyz --gfn 2 --ohess vtight --parallel 40 --molden --ceasefiles --namespace data2507/gas/DC–TC/DC–TC_gas_S0_finalOpt
          :  Hamiltonian                  GFN2-xTB          :
 * total energy  :  -127.8683012 Eh     change       -0.2610278E-08 Eh
 * total energy  :  -127.8683027 Eh     change       -0.1468708E-05 Eh
 * total energy  :  -127.8683043 Eh     change       -0.1625505E-05 Eh
 * total energy  :  -127.8683102 Eh     change       -0.5882764E-05 Eh
 * total energy  :  -127.8683152 Eh     change       -0.5000553E-05 Eh
 * total energy  :  -127.8683169 Eh     change       -0.1681110E-05 Eh
 * total energy  :  -127.8683183 Eh     change       -0.1427948E-05 Eh
 * total energy  :  -127.8683207 Eh     change       -0.2352557E-05 Eh
 * total energy  :  -127.8683230 Eh     change       -0.2350647E-05 Eh
 * total energy  :  -127.8683246 Eh     change       -0.1591213E-05 Eh
 * total energy  :  -127.8683496 Eh     change       -0.8398978E-06 Eh
 * total energy  :  -127.8683508 Eh     change       -0.1224956E-05 Eh
 * total energy  :  -127.8683521 Eh     change       -0.1348904E-05 Eh
 * total energy  :  -127.8683533 Eh     change       -0.1148790E-05 Eh
 * total energy  :  -127.8683543 Eh     change       -0.9776235E-06 Eh
 * total energy  :  -127.8683552 Eh     change       -0.9281058E-06 Eh
 * total energy  :  -127.8683563 Eh     change       -0.1091540E-05 Eh
 * total energy  :  -127.8683579 Eh     change       -0.1562974E-05 Eh
 * total energy  :  -127.8683579 Eh     change       -0.3869104E-08 Eh
   *** GEOMETRY OPTIMIZATION CONVERGED AFTER 44 ITERATIONS ***

 final structure:
================
94
 xtb: 6.7.1 (edcfbbe)
C           -3.34560358705059       -5.74243060970407        2.12159081057971
C           -3.62431117516230       -4.34364896910592        1.66082041180137
C           -2.72556541771506       -3.66829517425445        0.84387935951013
C           -2.98677855394214       -2.38866321783558        0.39720099819256
C           -4.16304538371083       -1.73847813665425        0.76893903187005
N           -4.42868532780726       -0.43650467868765        0.32993631518384
C           -5.73495285505068       -0.06077152042685       -0.00052620521330
C           -6.59822230344751       -0.96089828186576       -0.62558206308889
C           -7.88590468183936       -0.58417433128421       -0.94566984222221
C           -8.35365146258860        0.69560447909006       -0.66576002132896
C           -9.75490666420692        1.08599414700801       -1.02731861195308
C           -7.48888793553325        1.58851178738746       -0.04742597194454
C           -6.20008289412830        1.22094042734862        0.28714650677031
C           -3.38223498867867        0.48286398396202        0.20887465066065
C           -2.32895861437902        0.48694810801315        1.12322161447543
C           -1.28491969318137        1.37414535279811        0.97980008268840
C           -1.24859627826639        2.30029894328234       -0.06103830853034
C           -0.04167479490557        3.22727702412605       -0.16578675696320
C            1.16034256219164        2.29301166100238       -0.17432233893760
C            2.03412144637768        2.14144935172982        0.89617325270952
C            3.06318709952592        1.21961576070106        0.86363278759777
C            3.25213852551609        0.40309224671718       -0.24754433984360
N            4.28434887942055       -0.54016617158421       -0.28018660206924
C            5.52491803989806       -0.23893977935180        0.29050357424395
C            6.05138276035192        1.04867044198544        0.20582498199728
C            7.27399080930514        1.34338165701704        0.77689194940431
C            8.01179644196902        0.37075684018953        1.43816695721327
C            9.34556154249180        0.68088675533226        2.04765795927842
C            7.48377440936682       -0.91370913034289        1.51594946963232
C            6.25965734651725       -1.21894334043622        0.95830963146204
C            4.06468014346127       -1.79050456109670       -0.86836465456534
C            2.82878206829419       -2.42520464459064       -0.74884273025978
C            2.61597595067626       -3.65468838530528       -1.33904257168926
C            3.62123741275870       -4.29411372423929       -2.05445532145956
C            3.39143837884814       -5.64153266970254       -2.66947602793244
C            4.85253236593727       -3.65947436067262       -2.16525790304735
C            5.07558439455260       -2.42526706110600       -1.58867582677417
C            2.37059619016019        0.53421950705564       -1.31944948331140
C            1.34409973985399        1.45255993770813       -1.27085979021146
C           -0.06767298355956        4.08844563901674       -1.44056323020857
C            1.11367296356780        5.05236837576106       -1.48023631424530
C            1.02559512922747        6.02490812407506       -0.31083414219408
C            1.03319314747186        5.24628921329592        0.99870903978598
C           -0.08293460587798        4.20235171951918        1.02802111821121
C           -2.30939639488419        2.30141642757934       -0.95685226685092
C           -3.35702471960307        1.40811533989009       -0.83079515653152
C           -5.06727606622902       -2.41027741743014        1.59035276589974
C           -4.79862678912201       -3.69392093910430        2.02128190153772
H           -2.27547011736307       -5.91457436020995        2.21240548825969
H           -3.81704163441478       -5.93493676893182        3.08274901218076
H           -3.74239619888945       -6.46049688723999        1.40251361681704
H           -1.80729722012801       -4.15477002599810        0.54659538696628
H           -2.27897313538589       -1.88258311749084       -0.24308341725312
H           -6.24886118963715       -1.95580778402708       -0.86025836576905
H           -8.54096455661469       -1.29348877574940       -1.43154030724210
H          -10.47263373753479        0.44727263284313       -0.51328118396538
H           -9.91761625058530        0.97185579673851       -2.09863465883862
H           -9.95350404494787        2.11936351832191       -0.75448138778463
H           -7.82966902772849        2.58745467513181        0.18565686438952
H           -5.54444992246617        1.92624078491618        0.77665470633514
H           -2.33315650577267       -0.21669753513977        1.94283061185815
H           -0.47330062447447        1.34001773919514        1.69156092679182
H            1.91519056432698        2.72575759216992        1.79455265097050
H            3.72205753421436        1.11969241116219        1.71425479518994
H            5.49603099872933        1.81648633815490       -0.31285805289051
H            7.66424585274331        2.34831926841348        0.69846698572779
H           10.13838817246009        0.16462274832394        1.50605099780205
H            9.38016134188144        0.34705163756377        3.08373640927155
H            9.54815469139852        1.74854090042035        2.01766099451821
H            8.03874697353261       -1.68478208303922        2.03148591312564
H            5.86024066416139       -2.21941288245929        1.03886812257678
H            2.03702551619497       -1.94729908247639       -0.19034288396996
H            1.65090294215738       -4.13042373747442       -1.23613513881817
H            2.34808251492631       -5.76678018745928       -2.95023755117779
H            3.64484514785531       -6.42741146311007       -1.95647544625487
H            4.01316080851631       -5.77597460162282       -3.55179829432673
H            5.64800258016543       -4.13459353235526       -2.72182491727035
H            6.03544465688805       -1.94142559130653       -1.69607742759009
H            2.49090682100532       -0.09725936131196       -2.18764284652798
H            0.66260475732239        1.50315620434316       -2.10665053394204
H           -0.98797055317717        4.67682671703718       -1.45032920472734
H           -0.05791908433343        3.46131652131295       -2.33184851469790
H            1.10642292880726        5.60046691998531       -2.42520331607203
H            2.04849413875161        4.49004447205711       -1.42355040521265
H            1.86448732405163        6.72373882027903       -0.33338494443503
H            0.10322631884919        6.60578638672782       -0.39083333022388
H            0.90348831416737        5.92967095174275        1.84171023725740
H            2.00517243491404        4.76382291791337        1.10651644123392
H           -1.04648660186100        4.71887514561344        0.99115380854797
H           -0.05491301010722        3.65227752209206        1.96962196222238
H           -2.33244543889614        2.99169434617492       -1.78487103391272
H           -4.16188874257860        1.41969005063668       -1.55143354379827
H           -5.97950732013982       -1.91635027137986        1.89171706649763
H           -5.51074623115229       -4.19713356507463        2.65997754014056

          :  Hamiltonian                  GFN2-xTB          :
         :: gradient norm              0.000045999084 Eh/a0 ::
         :: HOMO-LUMO gap              3.043472056402 eV    ::
         :: SCC energy              -130.172250689242 Eh    ::
         :: -> dispersion             -0.120069289973 Eh    ::
         :: repulsion energy           2.303892832042 Eh    ::

    * Orbital Energies and Occupations

         #    Occupation            Energy/Eh            Energy/eV
      -------------------------------------------------------------
         1        2.0000           -0.6555657             -17.8389
       ...           ...                  ...                  ...
       108        2.0000           -0.4009432             -10.9102
       109        2.0000           -0.3999114             -10.8821
       110        2.0000           -0.3987435             -10.8504
       111        2.0000           -0.3971000             -10.8056
       112        2.0000           -0.3968438             -10.7987
       113        2.0000           -0.3962012             -10.7812
       114        2.0000           -0.3952261             -10.7546
       115        2.0000           -0.3911925             -10.6449
       116        2.0000           -0.3898741             -10.6090
       117        2.0000           -0.3896716             -10.6035
       118        2.0000           -0.3858456             -10.4994
       119        2.0000           -0.3392798              -9.2323
       120        2.0000           -0.3363466              -9.1525 (HOMO)
       121                         -0.2245011              -6.1090 (LUMO)
       122                         -0.2204700              -5.9993
       123                         -0.2202337              -5.9929
       124                         -0.2196916              -5.9781
       125                         -0.2187977              -5.9538
       126                         -0.2172872              -5.9127
       127                         -0.2135911              -5.8121
       128                         -0.2134180              -5.8074
       129                         -0.2128120              -5.7909
       130                         -0.2119134              -5.7665
       131                         -0.1863683              -5.0713
       ...                                ...                  ...
       238                          0.6790855              18.4789
      -------------------------------------------------------------
                  HL-Gap            0.1118456 Eh            3.0435 eV

     #   Z          covCN         q      C6AA      α(0)
     1   6 C        3.757    -0.108    22.607     6.779
     2   6 C        2.965     0.008    27.834     8.654
     3   6 C        2.925    -0.040    28.991     8.830
     4   6 C        2.921    -0.050    29.231     8.866
     5   6 C        2.924     0.061    26.641     8.464
     6   7 N        2.752    -0.077    22.731     7.081
     7   6 C        2.924     0.061    26.640     8.464
     8   6 C        2.921    -0.050    29.235     8.867
     9   6 C        2.925    -0.040    29.005     8.832
    10   6 C        2.965     0.008    27.835     8.654
    11   6 C        3.757    -0.108    22.609     6.779
    12   6 C        2.924    -0.040    28.992     8.830
    13   6 C        2.921    -0.050    29.244     8.868
    14   6 C        2.924     0.061    26.622     8.461
    15   6 C        2.921    -0.050    29.244     8.868
    16   6 C        2.927    -0.037    28.924     8.820
    17   6 C        2.983    -0.000    28.028     8.684
    18   6 C        3.911     0.011    20.331     6.409
    19   6 C        2.979     0.007    27.864     8.659
    20   6 C        2.925    -0.038    28.952     8.824
    21   6 C        2.922    -0.052    29.283     8.874
    22   6 C        2.924     0.061    26.630     8.463
    23   7 N        2.752    -0.077    22.745     7.083
    24   6 C        2.924     0.061    26.637     8.464
    25   6 C        2.921    -0.050    29.245     8.868
    26   6 C        2.924    -0.040    28.994     8.830
    27   6 C        2.965     0.008    27.840     8.655
    28   6 C        3.757    -0.108    22.607     6.779
    29   6 C        2.925    -0.040    29.004     8.832
    30   6 C        2.921    -0.050    29.241     8.868
    31   6 C        2.924     0.061    26.638     8.464
    32   6 C        2.921    -0.050    29.232     8.866
    33   6 C        2.925    -0.040    28.992     8.830
    34   6 C        2.965     0.008    27.836     8.654
    35   6 C        3.757    -0.107    22.606     6.779
    36   6 C        2.925    -0.040    29.000     8.831
    37   6 C        2.921    -0.050    29.238     8.867
    38   6 C        2.921    -0.050    29.248     8.869
    39   6 C        2.928    -0.036    28.904     8.817
    40   6 C        3.813    -0.057    21.589     6.614
    41   6 C        3.806    -0.053    21.522     6.604
    42   6 C        3.806    -0.055    21.551     6.609
    43   6 C        3.805    -0.055    21.558     6.610
    44   6 C        3.812    -0.054    21.542     6.606
    45   6 C        2.924    -0.040    28.998     8.831
    46   6 C        2.922    -0.051    29.272     8.872
    47   6 C        2.921    -0.050    29.237     8.867
    48   6 C        2.925    -0.040    29.000     8.831
    49   1 H        0.925     0.041     2.434     2.440
    50   1 H        0.925     0.041     2.438     2.442
    51   1 H        0.924     0.044     2.391     2.418
    52   1 H        0.926     0.029     2.598     2.520
    53   1 H        0.926     0.030     2.580     2.512
    54   1 H        0.926     0.030     2.584     2.514
    55   1 H        0.926     0.030     2.590     2.516
    56   1 H        0.925     0.043     2.403     2.424
    57   1 H        0.925     0.043     2.404     2.425
    58   1 H        0.925     0.039     2.458     2.452
    59   1 H        0.926     0.029     2.603     2.523
    60   1 H        0.926     0.030     2.582     2.513
    61   1 H        0.926     0.030     2.585     2.514
    62   1 H        0.926     0.030     2.593     2.518
    63   1 H        0.926     0.034     2.524     2.484
    64   1 H        0.926     0.028     2.611     2.527
    65   1 H        0.926     0.030     2.592     2.518
    66   1 H        0.926     0.029     2.606     2.524
    67   1 H        0.925     0.044     2.399     2.422
    68   1 H        0.925     0.043     2.414     2.430
    69   1 H        0.925     0.039     2.458     2.452
    70   1 H        0.926     0.029     2.594     2.519
    71   1 H        0.926     0.030     2.587     2.515
    72   1 H        0.926     0.030     2.581     2.512
    73   1 H        0.926     0.029     2.602     2.523
    74   1 H        0.925     0.041     2.437     2.441
    75   1 H        0.924     0.044     2.392     2.419
    76   1 H        0.925     0.041     2.440     2.443
    77   1 H        0.926     0.029     2.599     2.521
    78   1 H        0.926     0.030     2.584     2.514
    79   1 H        0.926     0.029     2.601     2.522
    80   1 H        0.926     0.028     2.609     2.526
    81   1 H        0.924     0.034     2.528     2.486
    82   1 H        0.925     0.031     2.577     2.510
    83   1 H        0.924     0.025     2.656     2.548
    84   1 H        0.924     0.031     2.568     2.506
    85   1 H        0.924     0.025     2.662     2.551
    86   1 H        0.924     0.029     2.598     2.520
    87   1 H        0.924     0.025     2.655     2.548
    88   1 H        0.924     0.036     2.506     2.475
    89   1 H        0.924     0.030     2.581     2.513
    90   1 H        0.924     0.030     2.588     2.516
    91   1 H        0.926     0.033     2.544     2.494
    92   1 H        0.926     0.030     2.586     2.515
    93   1 H        0.926     0.030     2.583     2.513
    94   1 H        0.926     0.029     2.597     2.520

molecular dipole:
                 x           y           z       tot (Debye)
 q only:       -0.031      -0.066       0.011
   full:       -0.035      -0.161       0.012       0.419

 projected vibrational frequencies (cm⁻¹)
eigval :       -0.00    -0.00    -0.00     0.00     0.00     0.00
eigval :      -11.40    -6.13     4.21     8.21     9.34    12.23
eigval :       12.73    24.77    31.72    32.35    38.28    40.44
eigval :       45.33    47.99    56.53    61.07    62.45    75.93
eigval :       96.95   102.61   107.91   125.68   138.15   143.94
eigval :      150.32   155.48   167.63   176.63   191.17   215.76
eigval :      236.01   253.10   260.60   260.81   273.93   281.83
eigval :      295.93   311.08   318.92   325.61   334.85   339.02
eigval :      351.17   357.38   363.75   367.40   373.31   378.71
eigval :      379.82   381.55   382.67   387.36   390.42   401.38
eigval :      411.42   414.16   427.81   439.25   469.70   473.62
eigval :      487.97   488.77   489.75   510.43   513.83   525.50
eigval :      545.46   555.52   565.54   582.99   605.05   609.45
eigval :      610.62   612.23   612.63   613.28   620.75   660.40
eigval :      661.90   663.51   666.55   670.85   685.35   696.88
eigval :      718.91   793.74   794.78   800.81   801.61   802.12
eigval :      804.32   812.66   817.19   820.93   823.35   827.98
eigval :      845.87   868.87   870.99   871.29   871.54   873.41
eigval :      873.82   894.31   908.86   912.61   913.37   914.61
eigval :      915.03   915.54   918.68   925.65   925.98   926.24
eigval :      927.07   927.90   929.19   930.35   935.66   935.83
eigval :      943.08   955.06   963.99   974.56  1001.08  1008.32
eigval :     1008.49  1008.71  1009.18  1011.77  1019.87  1029.82
eigval :     1029.89  1030.09  1033.43  1033.49  1033.52  1033.54
eigval :     1039.49  1095.75  1097.88  1123.25  1136.69  1144.47
eigval :     1144.92  1145.80  1146.86  1151.72  1154.82  1156.50
eigval :     1187.58  1188.08  1198.00  1199.33  1202.68  1203.79
eigval :     1205.61  1209.81  1214.72  1219.95  1224.80  1237.90
eigval :     1238.18  1252.92  1255.04  1258.97  1259.76  1274.60
eigval :     1275.10  1279.27  1280.09  1281.16  1284.02  1291.36
eigval :     1316.95  1317.58  1326.81  1327.72  1328.56  1329.08
eigval :     1330.11  1334.43  1337.09  1337.32  1339.45  1342.38
eigval :     1351.89  1356.92  1364.72  1405.08  1405.17  1405.25
eigval :     1405.43  1405.97  1407.67  1418.73  1420.01  1422.63
eigval :     1423.08  1482.32  1482.73  1482.98  1484.31  1484.66
eigval :     1486.08  1486.25  1487.14  1487.77  1487.84  1489.80
eigval :     1492.35  1495.42  1496.13  1496.61  1496.72  1497.28
eigval :     1501.14  1513.76  1562.87  1563.93  1572.17  1572.58
eigval :     1575.36  1575.42  1602.55  1605.06  1608.29  1608.81
eigval :     1610.73  1611.12  2953.77  2958.51  2962.80  2964.36
eigval :     2970.11  2980.98  2982.89  2989.97  2990.33  2990.62
eigval :     2998.15  2998.99  3001.51  3001.96  3015.27  3018.30
eigval :     3034.40  3034.51  3035.77  3035.88  3043.44  3044.08
eigval :     3069.68  3069.77  3069.91  3070.29  3071.63  3071.89
eigval :     3072.52  3072.73  3077.66  3078.06  3079.46  3080.67
eigval :     3085.26  3085.60  3086.24  3086.57  3087.08  3087.38
eigval :     3088.25  3088.37  3090.05  3091.72  3105.81  3106.40

   temp. (K)  partition function   enthalpy   heat capacity  entropy
                                   cal/mol     cal/K/mol   cal/K/mol   J/K/mol
 298.15  VIB  0.111E+26            26482.616    155.842    172.505
         ROT  0.101E+09              888.752      2.981     39.617
         INT  0.112E+34            27371.369    158.822    212.122
         TR   0.152E+29             1481.254      4.968     45.169
         TOT                       28852.6226   163.7906   257.2914  1076.5074

       T/K    H(0)-H(T)+PV         H(T)/Eh          T*S/Eh         G(T)/Eh
   ------------------------------------------------------------------------
    298.15    0.459796E-01    0.824044E+00    0.122247E+00    0.701796E+00
   ------------------------------------------------------------------------

         :::::::::::::::::::::::::::::::::::::::::::::::::::::
         ::                  THERMODYNAMIC                  ::
         :::::::::::::::::::::::::::::::::::::::::::::::::::::
         :: total free energy        -127.166561559197 Eh   ::
         ::.................................................::
         :: total energy             -127.868357857200 Eh   ::
         :: zero point energy           0.778064181729 Eh   ::
         :: G(RRHO) w/o ZPVE           -0.076267883725 Eh   ::
         :: G(RRHO) contrib.            0.701796298003 Eh   ::
         :::::::::::::::::::::::::::::::::::::::::::::::::::::

           -------------------------------------------------
          | TOTAL ENERGY             -127.868357857200 Eh   |
          | TOTAL ENTHALPY           -127.044314094651 Eh   |
          | TOTAL FREE ENERGY        -127.166561559197 Eh   |
          | GRADIENT NORM               0.000046000299 Eh/α |
          | HOMO-LUMO GAP               3.043472385004 eV   |
           -------------------------------------------------

 * finished run on 2025/09/13 at 21:26:58.415
