   * xtb version 6.7.1 (edcfbbe) compiled by 'albert@albert-system' on 2024-07-22

   ID    Z sym.   atoms
    1    6 C      1-5, 7-22, 24-48
    2    7 N      6, 23
    3    1 H      49-94

          program call               : xtb data2507/gas/DC–TC/DC–TC.xyz --gfn 2 --ohess vtight --parallel 40 --molden --ceasefiles --namespace data2507/gas/DC–TC/DC–TC_gas_S0_preOpt
          :  Hamiltonian                  GFN2-xTB          :
 * total energy  :  -127.8408569 Eh     change       -0.3130737E-08 Eh
 * total energy  :  -127.8555633 Eh     change       -0.1470646E-01 Eh
 * total energy  :  -127.8618561 Eh     change       -0.6292735E-02 Eh
 * total energy  :  -127.8646429 Eh     change       -0.2786887E-02 Eh
 * total energy  :  -127.8661391 Eh     change       -0.1496166E-02 Eh
 * total energy  :  -127.8666452 Eh     change       -0.5060715E-03 Eh
 * total energy  :  -127.8668594 Eh     change       -0.2142156E-03 Eh
 * total energy  :  -127.8670537 Eh     change       -0.1942568E-03 Eh
 * total energy  :  -127.8672116 Eh     change       -0.1579571E-03 Eh
 * total energy  :  -127.8673297 Eh     change       -0.1181348E-03 Eh
 * total energy  :  -127.8680496 Eh     change       -0.6390842E-06 Eh
 * total energy  :  -127.8680502 Eh     change       -0.5394092E-06 Eh
 * total energy  :  -127.8680506 Eh     change       -0.4634811E-06 Eh
 * total energy  :  -127.8680511 Eh     change       -0.4403291E-06 Eh
 * total energy  :  -127.8680516 Eh     change       -0.4976671E-06 Eh
 * total energy  :  -127.8680522 Eh     change       -0.6502602E-06 Eh
 * total energy  :  -127.8680532 Eh     change       -0.9593660E-06 Eh
 * total energy  :  -127.8680545 Eh     change       -0.1334359E-05 Eh
 * total energy  :  -127.8680545 Eh     change       -0.8942663E-08 Eh
   *** GEOMETRY OPTIMIZATION CONVERGED AFTER 94 ITERATIONS ***

 final structure:
================
94
 xtb: 6.7.1 (edcfbbe)
C           -7.02931165081811        1.20265870116598       -5.13964498540590
C           -6.37156517025326        0.86396501903610       -3.83612470795603
C           -5.76341136914363        1.84638415802415       -3.06439370969155
C           -5.18150636589645        1.54393795432714       -1.84959451486151
C           -5.18444154678341        0.23375906766476       -1.37278478816680
N           -4.59608311826010       -0.07931277980303       -0.14338650252707
C           -5.16819662530250       -1.05450866046146        0.68107952779537
C           -6.55329297005924       -1.18254054931919        0.77839902604376
C           -7.10909578220372       -2.14936508173952        1.59133251508167
C           -6.31119096294825       -3.00886273893487        2.33778609495706
C           -6.92652589386459       -4.06605361088542        3.20393318423227
C           -4.93202622855174       -2.87317071084006        2.24095463837702
C           -4.36304833779614       -1.91639626074946        1.42417188591267
C           -3.43558779835688        0.58441045147142        0.26755909065801
C           -2.43659933482439        0.91279565564556       -0.64839070282391
C           -1.29611210073915        1.56406318928496       -0.23120435873831
C           -1.09948069365247        1.91465336009284        1.10330625439583
C            0.19125629103504        2.63169576948280        1.48501296514830
C            1.31190738564756        1.73963724610603        0.96988909496263
C            1.51467698763998        0.50116861369678        1.57586549772873
C            2.48989270067634       -0.37066325890374        1.14130758328449
C            3.29626046854565       -0.04221278137291        0.05266213994015
N            4.29108368605971       -0.91680093979181       -0.39524805814475
C            5.50417274922407       -0.40800028139025       -0.87069216959682
C            6.16073320036451       -1.01426860408538       -1.94068423612266
C            7.36274515943111       -0.51202899262607       -2.39762527525170
C            7.94296376609074        0.60826107593516       -1.81551610304818
C            9.23559115988550        1.16487661677979       -2.33100293890635
C            7.28039135911035        1.21317487709214       -0.75393491065288
C            6.08314082948225        0.71544410653552       -0.28129538824384
C            4.07151055568147       -2.29836098030915       -0.36919862056145
C            5.10837846461342       -3.17746995212579       -0.05825435889769
C            4.88633641239380       -4.53933031557616       -0.03913223168349
C            3.63104042364667       -5.06853237616042       -0.31614166471236
C            3.40661210099545       -6.55046703794130       -0.30940842250782
C            2.60043002030674       -4.18768764988047       -0.61903589894097
C            2.81145375733437       -2.82353175711117       -0.65151961930478
C            3.07409942017383        1.17398205415462       -0.58704425061788
C            2.09813145886006        2.04200529001712       -0.13606849973344
C            0.15575597897335        4.03725814428863        0.85068947410338
C            1.35823012012607        4.90349280643294        1.22494813098956
C            1.50517626907760        5.01895265777580        2.73697524892064
C            1.58518314961902        3.62514118057516        3.34682906755667
C            0.32395675637435        2.83878156944218        3.00424796317849
C           -2.09575227210053        1.57725998876292        2.00980316347335
C           -3.24595275039224        0.92734141070193        1.60324592314229
C           -5.78665691124823       -0.75760437490610       -2.14687000043393
C           -6.37356549093224       -0.43997546272570       -3.35492945904312
H           -6.57222605891197        2.08155874323983       -5.58843342605045
H           -6.95674557664739        0.37138661174257       -5.83761609058408
H           -8.08728743042558        1.41642805859618       -4.98113757290432
H           -5.75190362721963        2.86846828302030       -3.41584768752324
H           -4.72137776237225        2.32302302698769       -1.25948205194865
H           -7.18923360714339       -0.51578181576408        0.21451068586344
H           -8.18483213918741       -2.23244037246526        1.65582437980187
H           -6.23968975091726       -4.37350293901143        3.98893346274969
H           -7.17243823316261       -4.94460841277851        2.60590440427147
H           -7.84586468208491       -3.70521005661041        3.66050665107155
H           -4.29042148310211       -3.53246879936034        2.80837189720953
H           -3.28838437175036       -1.83069112446912        1.35517966738956
H           -2.55950372144967        0.64560544526419       -1.68787867085708
H           -0.52976455724038        1.78742579718784       -0.95887631065223
H            0.89262937152875        0.20080859257292        2.40552014856045
H            2.63131404324748       -1.31727535474218        1.64217027967588
H            5.72105046250787       -1.88169881126636       -2.41099769985526
H            7.85626797589073       -0.99658923806508       -3.22821564442891
H            9.81590858850484        1.60687488909931       -1.52389293237953
H            9.04074853822652        1.94369712116761       -3.06963221980504
H            9.82923224856539        0.38893978098466       -2.80873266318044
H            7.71522427052387        2.08293338487984       -0.28189582261134
H            5.58909468708069        1.19126043830623        0.55328847990777
H            6.08779945314421       -2.78375296266409        0.17132520597224
H            5.70176364030850       -5.20523497768843        0.20567874187042
H            2.35649830266923       -6.78354679523697       -0.15007597590231
H            3.99662752088375       -7.02749732703968        0.47047355006759
H            3.70735421115296       -6.97961414945871       -1.26615419080406
H            1.61609643322805       -4.57477079292794       -0.84145512541429
H            1.99910586368911       -2.15502928088413       -0.89703713143792
H            3.66851333450475        1.43565096898610       -1.45067318526584
H            1.95165469702915        2.95831266236631       -0.68527040721937
H           -0.75437527440109        4.52963892330510        1.20543980182919
H            0.07244874873663        3.96309605995094       -0.23444083128188
H            1.23316093365577        5.89558036977036        0.78380025656501
H            2.27497269408599        4.47189540086181        0.82187917506623
H            2.40134646833648        5.59321788426471        2.98133274183745
H            0.64416979890192        5.54806453046768        3.15328576591561
H            1.68814810462346        3.69588550729136        4.43209995983234
H            2.46164280592633        3.10156826925246        2.95830933690090
H           -0.53834507359993        3.40752434423024        3.35941173530834
H            0.33623595914205        1.88225507687357        3.52634024444985
H           -1.99679041415894        1.82019442310146        3.05558464822090
H           -4.00905683560924        0.68183493729449        2.32762497309507
H           -5.78791182493266       -1.77890411010195       -1.79488147075572
H           -6.83456498898511       -1.22246701737589       -3.94104017624933

          :  Hamiltonian                  GFN2-xTB          :
         :: gradient norm              0.000063917468 Eh/a0 ::
         :: HOMO-LUMO gap              3.052983998390 eV    ::
         :: SCC energy              -130.171913834294 Eh    ::
         :: -> dispersion             -0.119513214368 Eh    ::
         :: repulsion energy           2.303859299613 Eh    ::

    * Orbital Energies and Occupations

         #    Occupation            Energy/Eh            Energy/eV
      -------------------------------------------------------------
         1        2.0000           -0.6554518             -17.8357
       ...           ...                  ...                  ...
       108        2.0000           -0.4010186             -10.9123
       109        2.0000           -0.3996890             -10.8761
       110        2.0000           -0.3988566             -10.8534
       111        2.0000           -0.3968793             -10.7996
       112        2.0000           -0.3966854             -10.7944
       113        2.0000           -0.3964086             -10.7868
       114        2.0000           -0.3951004             -10.7512
       115        2.0000           -0.3910433             -10.6408
       116        2.0000           -0.3897757             -10.6063
       117        2.0000           -0.3895901             -10.6013
       118        2.0000           -0.3855506             -10.4914
       119        2.0000           -0.3389296              -9.2227
       120        2.0000           -0.3365287              -9.1574 (HOMO)
       121                         -0.2243336              -6.1044 (LUMO)
       122                         -0.2202158              -5.9924
       123                         -0.2200663              -5.9883
       124                         -0.2196073              -5.9758
       125                         -0.2186189              -5.9489
       126                         -0.2172495              -5.9117
       127                         -0.2133879              -5.8066
       128                         -0.2132410              -5.8026
       129                         -0.2128644              -5.7923
       130                         -0.2120747              -5.7708
       131                         -0.1862060              -5.0669
       ...                                ...                  ...
       238                          0.6783956              18.4601
      -------------------------------------------------------------
                  HL-Gap            0.1121951 Eh            3.0530 eV

     #   Z          covCN         q      C6AA      α(0)
     1   6 C        3.757    -0.108    22.608     6.779
     2   6 C        2.965     0.008    27.839     8.654
     3   6 C        2.925    -0.040    28.998     8.831
     4   6 C        2.921    -0.050    29.247     8.869
     5   6 C        2.924     0.061    26.640     8.464
     6   7 N        2.752    -0.077    22.737     7.082
     7   6 C        2.924     0.061    26.640     8.464
     8   6 C        2.921    -0.050    29.235     8.867
     9   6 C        2.925    -0.040    29.002     8.832
    10   6 C        2.965     0.008    27.833     8.654
    11   6 C        3.757    -0.108    22.609     6.779
    12   6 C        2.925    -0.040    28.995     8.831
    13   6 C        2.921    -0.050    29.236     8.867
    14   6 C        2.924     0.062    26.622     8.461
    15   6 C        2.921    -0.050    29.234     8.867
    16   6 C        2.927    -0.037    28.924     8.820
    17   6 C        2.981    -0.000    28.024     8.684
    18   6 C        3.910     0.011    20.333     6.409
    19   6 C        2.978     0.007    27.867     8.659
    20   6 C        2.928    -0.036    28.903     8.817
    21   6 C        2.921    -0.050    29.253     8.870
    22   6 C        2.924     0.061    26.629     8.463
    23   7 N        2.752    -0.077    22.744     7.083
    24   6 C        2.924     0.061    26.636     8.464
    25   6 C        2.921    -0.050    29.242     8.868
    26   6 C        2.925    -0.040    28.997     8.831
    27   6 C        2.965     0.008    27.837     8.654
    28   6 C        3.757    -0.108    22.607     6.779
    29   6 C        2.925    -0.040    29.002     8.831
    30   6 C        2.921    -0.050    29.237     8.867
    31   6 C        2.924     0.061    26.639     8.464
    32   6 C        2.921    -0.050    29.239     8.867
    33   6 C        2.925    -0.040    29.003     8.832
    34   6 C        2.965     0.008    27.834     8.654
    35   6 C        3.757    -0.108    22.608     6.779
    36   6 C        2.925    -0.040    28.994     8.830
    37   6 C        2.921    -0.050    29.236     8.867
    38   6 C        2.922    -0.052    29.286     8.875
    39   6 C        2.925    -0.038    28.952     8.824
    40   6 C        3.812    -0.054    21.541     6.606
    41   6 C        3.805    -0.055    21.559     6.610
    42   6 C        3.806    -0.055    21.551     6.609
    43   6 C        3.806    -0.053    21.522     6.604
    44   6 C        3.813    -0.057    21.591     6.614
    45   6 C        2.924    -0.040    28.999     8.831
    46   6 C        2.922    -0.051    29.266     8.872
    47   6 C        2.921    -0.050    29.244     8.868
    48   6 C        2.925    -0.040    29.000     8.831
    49   1 H        0.925     0.041     2.441     2.443
    50   1 H        0.925     0.041     2.436     2.441
    51   1 H        0.924     0.044     2.391     2.418
    52   1 H        0.926     0.029     2.599     2.521
    53   1 H        0.926     0.030     2.587     2.515
    54   1 H        0.926     0.030     2.582     2.513
    55   1 H        0.926     0.029     2.594     2.519
    56   1 H        0.925     0.040     2.444     2.445
    57   1 H        0.924     0.045     2.390     2.417
    58   1 H        0.925     0.041     2.429     2.437
    59   1 H        0.926     0.029     2.596     2.520
    60   1 H        0.926     0.030     2.581     2.512
    61   1 H        0.926     0.030     2.583     2.513
    62   1 H        0.926     0.030     2.589     2.516
    63   1 H        0.926     0.028     2.608     2.526
    64   1 H        0.926     0.029     2.600     2.522
    65   1 H        0.926     0.030     2.585     2.514
    66   1 H        0.926     0.029     2.600     2.522
    67   1 H        0.925     0.041     2.435     2.440
    68   1 H        0.924     0.044     2.391     2.418
    69   1 H        0.925     0.040     2.443     2.444
    70   1 H        0.926     0.029     2.598     2.521
    71   1 H        0.926     0.030     2.592     2.517
    72   1 H        0.926     0.030     2.584     2.514
    73   1 H        0.926     0.029     2.596     2.520
    74   1 H        0.925     0.040     2.444     2.445
    75   1 H        0.925     0.041     2.431     2.438
    76   1 H        0.924     0.044     2.391     2.418
    77   1 H        0.926     0.029     2.596     2.519
    78   1 H        0.926     0.030     2.581     2.512
    79   1 H        0.926     0.028     2.613     2.528
    80   1 H        0.926     0.034     2.526     2.485
    81   1 H        0.924     0.030     2.583     2.513
    82   1 H        0.924     0.030     2.589     2.516
    83   1 H        0.924     0.025     2.654     2.548
    84   1 H        0.924     0.036     2.505     2.475
    85   1 H        0.924     0.025     2.662     2.551
    86   1 H        0.924     0.029     2.598     2.521
    87   1 H        0.924     0.025     2.656     2.549
    88   1 H        0.924     0.031     2.569     2.506
    89   1 H        0.924     0.034     2.527     2.486
    90   1 H        0.925     0.031     2.576     2.510
    91   1 H        0.926     0.033     2.542     2.493
    92   1 H        0.926     0.030     2.587     2.515
    93   1 H        0.926     0.030     2.586     2.515
    94   1 H        0.926     0.029     2.598     2.520

molecular dipole:
                 x           y           z       tot (Debye)
 q only:       -0.026      -0.014      -0.026
   full:       -0.047      -0.072      -0.077       0.294

 projected vibrational frequencies (cm⁻¹)
eigval :       -0.00    -0.00    -0.00     0.00     0.00     0.00
eigval :        1.34     6.84     7.25     7.49     7.87     9.71
eigval :       11.64    24.64    30.63    32.46    40.02    41.59
eigval :       44.84    47.26    53.68    60.70    62.95    76.91
eigval :       96.77   101.21   108.65   126.33   139.36   143.66
eigval :      149.76   156.35   167.47   168.83   194.24   217.48
eigval :      234.87   256.76   259.91   260.56   273.81   279.47
eigval :      297.40   311.06   319.14   326.94   334.62   338.64
eigval :      353.51   357.82   363.79   366.10   373.78   379.13
eigval :      379.69   381.22   382.92   387.25   390.52   400.17
eigval :      411.00   421.55   428.29   432.88   469.99   473.10
eigval :      487.64   487.95   490.59   511.35   513.30   525.60
eigval :      543.81   553.96   568.22   582.62   605.47   609.57
eigval :      610.55   612.42   612.52   613.01   620.29   660.52
eigval :      661.48   664.01   666.19   670.71   685.48   696.75
eigval :      719.10   792.56   794.60   800.59   801.84   802.17
eigval :      805.01   812.65   817.22   820.95   823.29   828.03
eigval :      846.09   869.50   871.01   871.15   871.50   873.28
eigval :      873.85   893.55   908.67   912.92   913.48   914.64
eigval :      915.23   915.27   918.90   925.45   925.90   926.32
eigval :      927.21   927.81   929.01   930.49   935.62   935.79
eigval :      943.71   955.13   963.68   974.53  1001.31  1008.54
eigval :     1008.62  1008.78  1009.04  1011.61  1019.89  1029.61
eigval :     1029.77  1030.12  1033.19  1033.34  1033.38  1033.44
eigval :     1039.41  1095.55  1097.65  1123.11  1136.85  1144.87
eigval :     1145.01  1146.26  1146.37  1151.04  1154.77  1156.22
eigval :     1187.30  1188.17  1198.69  1198.80  1202.94  1203.45
eigval :     1205.02  1209.98  1214.61  1219.73  1225.05  1238.00
eigval :     1238.13  1252.81  1255.03  1259.17  1259.73  1274.61
eigval :     1275.21  1279.15  1280.24  1280.93  1283.60  1290.81
eigval :     1317.32  1317.77  1326.54  1327.27  1328.91  1329.34
eigval :     1329.90  1334.60  1336.30  1337.02  1339.44  1342.34
eigval :     1351.73  1356.94  1364.80  1405.15  1405.21  1405.29
eigval :     1405.35  1405.57  1407.65  1418.63  1419.95  1422.82
eigval :     1423.02  1482.34  1484.07  1484.18  1484.49  1484.51
eigval :     1486.13  1486.23  1486.53  1486.65  1487.25  1489.86
eigval :     1492.49  1495.46  1496.32  1496.48  1496.81  1497.38
eigval :     1501.41  1514.26  1562.72  1563.83  1572.22  1572.47
eigval :     1575.30  1575.36  1602.25  1604.86  1608.42  1608.56
eigval :     1610.71  1610.99  2953.55  2958.45  2962.95  2964.36
eigval :     2970.21  2981.00  2983.09  2989.94  2990.75  2990.94
eigval :     2991.52  2991.72  2998.41  3001.49  3030.34  3030.45
eigval :     3032.38  3032.96  3037.08  3037.67  3039.14  3039.24
eigval :     3070.02  3070.03  3070.28  3070.40  3071.71  3071.79
eigval :     3072.45  3072.60  3077.03  3078.11  3079.58  3080.44
eigval :     3085.41  3085.60  3086.41  3086.63  3087.22  3087.42
eigval :     3088.24  3088.30  3089.40  3091.90  3105.30  3107.06

   temp. (K)  partition function   enthalpy   heat capacity  entropy
                                   cal/mol     cal/K/mol   cal/K/mol   J/K/mol
 298.15  VIB  0.878E+26            26501.723    155.811    174.576
         ROT  0.108E+09              888.752      2.981     39.740
         INT  0.948E+34            27390.475    158.792    214.316
         TR   0.152E+29             1481.254      4.968     45.169
         TOT                       28871.7294   163.7603   259.4851  1085.6856

       T/K    H(0)-H(T)+PV         H(T)/Eh          T*S/Eh         G(T)/Eh
   ------------------------------------------------------------------------
    298.15    0.460100E-01    0.824038E+00    0.123290E+00    0.700748E+00
   ------------------------------------------------------------------------

         :::::::::::::::::::::::::::::::::::::::::::::::::::::
         ::                  THERMODYNAMIC                  ::
         :::::::::::::::::::::::::::::::::::::::::::::::::::::
         :: total free energy        -127.167306165111 Eh   ::
         ::.................................................::
         :: total energy             -127.868054534679 Eh   ::
         :: zero point energy           0.778028076998 Eh   ::
         :: G(RRHO) w/o ZPVE           -0.077279707430 Eh   ::
         :: G(RRHO) contrib.            0.700748369568 Eh   ::
         :::::::::::::::::::::::::::::::::::::::::::::::::::::

           -------------------------------------------------
          | TOTAL ENERGY             -127.868054534679 Eh   |
          | TOTAL ENTHALPY           -127.044016428245 Eh   |
          | TOTAL FREE ENERGY        -127.167306165111 Eh   |
          | GRADIENT NORM               0.000063914708 Eh/α |
          | HOMO-LUMO GAP               3.052983646834 eV   |
           -------------------------------------------------

 * finished run on 2025/09/13 at 21:10:57.572
