   * xtb version 6.7.1 (edcfbbe) compiled by 'albert@albert-system' on 2024-07-22

   ID    Z sym.   atoms
    1    6 C      1-5, 7-22, 24-48
    2    7 N      6, 23
    3    1 H      49-94

          program call               : xtb data2507/gas/DC–TC/DC–TC_gas_T1_crest.xyz --gfn 2 --spinpol --tblite --uhf 2 --ohess vtight --parallel 40 --molden --ceasefiles --namespace data2507/gas/DC–TC/DC–TC_gas_T1_finalOpt
 * total energy  :  -127.7657671 Eh     change        0.4326137E-07 Eh
 * total energy  :  -127.7657808 Eh     change       -0.1372848E-04 Eh
 * total energy  :  -127.7657860 Eh     change       -0.5194788E-05 Eh
 * total energy  :  -127.7657879 Eh     change       -0.1900474E-05 Eh
 * total energy  :  -127.7657899 Eh     change       -0.1976291E-05 Eh
 * total energy  :  -127.7657915 Eh     change       -0.1572964E-05 Eh
 * total energy  :  -127.7657935 Eh     change       -0.1968351E-05 Eh
 * total energy  :  -127.7657948 Eh     change       -0.1334028E-05 Eh
 * total energy  :  -127.7657954 Eh     change       -0.6208133E-06 Eh
 * total energy  :  -127.7657963 Eh     change       -0.8830991E-06 Eh
 * total energy  :  -127.7658050 Eh     change       -0.3389306E-06 Eh
 * total energy  :  -127.7658054 Eh     change       -0.3719269E-06 Eh
 * total energy  :  -127.7658057 Eh     change       -0.3672219E-06 Eh
 * total energy  :  -127.7658057 Eh     change        0.1954334E-08 Eh
 * total energy  :  -127.7658059 Eh     change       -0.1828584E-06 Eh
 * total energy  :  -127.7658059 Eh     change        0.6876078E-08 Eh
 * total energy  :  -127.7658061 Eh     change       -0.1535148E-06 Eh
 * total energy  :  -127.7658061 Eh     change       -0.1675244E-07 Eh
 * total energy  :  -127.7658062 Eh     change       -0.7881394E-07 Eh
   *** GEOMETRY OPTIMIZATION CONVERGED AFTER 38 ITERATIONS ***

 final structure:
================
94
 xtb: 6.7.1 (edcfbbe)
C           -2.46500485725165       -3.55808618460273        3.68853282838869
C           -2.25063178139939       -2.21604366624557        3.05849891041971
C           -1.09650725556010       -1.93611912272305        2.33610280391253
C           -0.89850218055081       -0.70199079276411        1.75428179180527
C           -1.85787415819521        0.30525302740947        1.88705533807013
N           -1.66133917609948        1.55898217381591        1.30374608739101
C           -2.74416141115003        2.26462815370587        0.77807046729357
C           -3.80504122423868        1.59825966101469        0.15858700336249
C           -4.85786487682091        2.31183211615053       -0.37409869218802
C           -4.89236325613200        3.70184754275118       -0.31473431087163
C           -6.02732291046855        4.47045722721934       -0.91925448462188
C           -3.83244835044380        4.35981559325811        0.30229081253042
C           -2.77426697033085        3.66024327180559        0.84235396109716
C           -0.36882843768315        2.04517545559689        1.16169185414206
C            0.60600071615733        1.79993961605662        2.15858136201819
C            1.91766819278955        2.08286624102394        1.94216435127380
C            2.37619906500714        2.58976784270365        0.68458338276782
C            3.80161838047460        2.38930644720420        0.22107367455702
C            3.34295460339355        1.05973027033843       -0.32958327906891
C            3.21682825695936       -0.09696813361590        0.50304268590183
C            2.38878447156374       -1.12724063263917        0.17938037139639
C            1.63393199215065       -1.09895472646155       -1.01878635076805
N            0.62195841465465       -2.01585038639165       -1.26888627269974
C            0.71764217678724       -3.32267481244602       -0.78888062433375
C            1.94542323296587       -3.99079267657185       -0.80304132947352
C            2.04644871974450       -5.27160383957111       -0.30512814117426
C            0.93808186072066       -5.93138818372718        0.22067111035408
C            1.06651453622855       -7.32777181114573        0.74792403270900
C           -0.28118457710398       -5.26298209210366        0.22929341423325
C           -0.39759076200197       -3.97930437399436       -0.26294905444316
C           -0.54231120414966       -1.59024908562523       -1.91246618974937
C           -1.00909151905786       -0.28259579241138       -1.75470142050203
C           -2.15626995748086        0.13142459452334       -2.39733301611053
C           -2.88243612421393       -0.73474358408129       -3.20687108815318
C           -4.12723900117989       -0.28001440953418       -3.90516153571831
C           -2.41019246142937       -2.03494731605460       -3.36696362622605
C           -1.25899246130060       -2.46021092532107       -2.73930359602429
C            1.92250499183607       -0.07361296926305       -1.95029534659731
C            2.75860016190813        0.94984868523733       -1.63138004858831
C            4.30969328831459        3.39947341659268       -0.81186990132540
C            5.64533523045062        2.95194469434984       -1.40044165695713
C            6.69579831240378        2.81675752426923       -0.30551476751619
C            6.19867511920321        1.85181911777626        0.76324117896968
C            4.85773583609105        2.31479402120566        1.32763134879690
C            1.35058441601761        3.04536757940984       -0.20483638225350
C            0.03586093693605        2.77338775597143        0.01631757821428
C           -3.01226512333404        0.03494013269032        2.62788207624806
C           -3.20088640116949       -1.20692259366184        3.19515474970753
H           -3.46713645764340       -3.92737529374067        3.47602513034675
H           -1.73812986628682       -4.27739885067810        3.31900344416903
H           -2.35973462420117       -3.48907586851304        4.77179329368550
H           -0.34396058418932       -2.70252936924241        2.21583852379686
H           -0.00034728012796       -0.51199317802861        1.18803506534371
H           -3.78695204185270        0.52069818181466        0.08792633059975
H           -5.66819101196735        1.77984401731176       -0.85258233643939
H           -6.94396642790497        3.88498638961860       -0.90469978863806
H           -5.80242973521528        4.71801079026693       -1.95795155873476
H           -6.19411653318839        5.40162899613626       -0.38229828122657
H           -3.84278882034984        5.43854998042620        0.36714867468386
H           -1.96553460988149        4.18308348921361        1.33146043379281
H            0.28275219477391        1.39433770731062        3.10706451516143
H            2.62339491873324        1.91261525362085        2.73927055665461
H            3.75750568023165       -0.14446171319068        1.43459073502344
H            2.27280770854053       -1.96107807000969        0.85686237379246
H            2.81056192291283       -3.49523341892759       -1.21856598426981
H            3.00140805589745       -5.77707464159565       -0.32830273097147
H            0.15701903708328       -7.63712826946354        1.25702719658715
H            1.90050091253911       -7.40017064840962        1.44453855618902
H            1.25637912150725       -8.02408459382909       -0.06935127957699
H           -1.15467619638969       -5.75221257675797        0.63698561048762
H           -1.34851459438089       -3.46835364142992       -0.22983107551632
H           -0.46977357238195        0.40393690479100       -1.12122408095279
H           -2.50254207814727        1.14559887129118       -2.25693338711698
H           -3.92059213832468       -0.08883308225815       -4.95897032646573
H           -4.50446501083805        0.63781042068920       -3.46042586699230
H           -4.90098343519216       -1.04386656739273       -3.85191080192763
H           -2.95238915506287       -2.72182401660198       -4.00144832688362
H           -0.90081989168693       -3.46859049704807       -2.88774450526518
H            1.47152302578155       -0.12586386993890       -2.93140633620201
H            2.97272920276555        1.69699842075704       -2.37858197683827
H            4.43452423504296        4.36392830601440       -0.31261348010355
H            3.59617686933915        3.54394720398054       -1.62022211382195
H            5.97651204096822        3.67356780915873       -2.15116915654312
H            5.51337909362550        1.98650952611568       -1.89410850429307
H            7.63690175075022        2.45832424723843       -0.72839881576332
H            6.88179696371227        3.79529619411236        0.14467155895807
H            6.93095349140014        1.77698691145866        1.57077006936791
H            6.07582113272110        0.85870895045340        0.32481590636725
H            4.96750638914351        3.30933429494173        1.76769522943705
H            4.56049284347040        1.63654878168808        2.12441152334358
H            1.62053892771110        3.58677148367831       -1.09714809991570
H           -0.70877235817136        3.08208180842615       -0.70336615452416
H           -3.75413607894496        0.80943266947076        2.75796019169799
H           -4.09997170243452       -1.39904113435198        3.76356202430253

 projected vibrational frequencies (cm⁻¹)
eigval :       -0.00    -0.00    -0.00    -0.00    -0.00     0.00
eigval :       -1.18    13.11    17.40    20.19    27.49    27.76
eigval :       31.69    33.09    36.43    38.80    43.91    49.77
eigval :       52.01    64.96    67.49    79.88    83.05    89.42
eigval :      104.77   108.25   111.66   131.27   140.37   150.79
eigval :      155.50   162.03   168.27   184.05   205.98   225.79
eigval :      238.49   246.55   260.66   261.23   271.21   272.81
eigval :      293.57   306.55   311.72   316.27   328.70   330.15
eigval :      335.72   353.30   354.45   356.92   366.12   382.18
eigval :      387.46   387.61   390.74   394.71   398.81   400.13
eigval :      410.91   416.87   418.67   424.88   441.10   444.19
eigval :      470.89   475.07   485.19   499.99   500.67   515.71
eigval :      532.08   534.27   541.26   576.74   591.01   595.42
eigval :      600.88   609.23   610.61   611.18   611.40   621.62
eigval :      628.56   656.13   660.00   660.20   662.88   666.78
eigval :      707.71   754.72   777.78   783.56   789.33   791.19
eigval :      796.50   801.94   803.11   804.62   806.74   808.68
eigval :      818.32   820.60   822.25   866.61   867.59   870.78
eigval :      874.48   878.85   882.22   890.55   892.20   894.76
eigval :      901.62   902.85   906.58   914.25   914.71   916.00
eigval :      919.54   924.34   927.76   928.49   929.30   930.44
eigval :      932.10   946.04   953.22   973.03   974.40   977.33
eigval :      997.26  1007.04  1007.35  1008.73  1009.14  1014.69
eigval :     1015.57  1023.91  1024.13  1030.73  1031.03  1031.29
eigval :     1031.44  1087.81  1091.63  1106.64  1119.42  1138.44
eigval :     1143.60  1144.34  1146.97  1148.06  1148.81  1150.53
eigval :     1155.48  1173.99  1183.64  1192.51  1194.83  1202.12
eigval :     1202.40  1205.60  1212.86  1219.80  1222.87  1230.40
eigval :     1236.88  1239.74  1247.52  1250.01  1252.81  1257.49
eigval :     1259.53  1274.06  1274.80  1279.62  1280.70  1306.46
eigval :     1308.70  1314.31  1317.58  1320.20  1323.96  1326.54
eigval :     1330.36  1333.59  1333.73  1334.84  1336.27  1339.96
eigval :     1342.55  1355.30  1360.06  1366.14  1375.59  1403.07
eigval :     1403.51  1404.44  1404.54  1413.10  1413.68  1417.85
eigval :     1419.64  1426.95  1430.63  1475.93  1476.87  1480.61
eigval :     1481.23  1481.65  1482.04  1482.44  1483.08  1483.45
eigval :     1483.56  1485.22  1485.78  1487.07  1487.49  1487.73
eigval :     1488.68  1494.42  1495.91  1500.83  1511.03  1534.93
eigval :     1536.55  1543.82  1546.03  1581.67  1582.56  1588.42
eigval :     1595.70  1613.03  2956.44  2957.17  2961.52  2964.51
eigval :     2967.36  2978.43  2979.11  2984.85  2986.81  2990.96
eigval :     2993.28  2996.06  3017.08  3017.41  3017.88  3018.93
eigval :     3022.61  3033.50  3034.33  3038.97  3040.43  3041.31
eigval :     3065.85  3065.97  3069.59  3069.94  3070.56  3071.09
eigval :     3071.28  3071.65  3073.81  3074.20  3074.44  3074.67
eigval :     3084.93  3085.30  3087.82  3088.10  3089.21  3090.04
eigval :     3094.36  3095.93  3101.04  3101.83  3105.42  3108.29

   temp. (K)  partition function   enthalpy   heat capacity  entropy
                                   cal/mol     cal/K/mol   cal/K/mol   J/K/mol
 298.15  VIB  0.451E+23            26470.458    160.056    168.885
         ROT  0.617E+08              888.752      2.981     38.627
         INT  0.278E+31            27359.210    163.037    207.512
         TR   0.152E+29             1481.254      4.968     45.169
         TOT                       28840.4644   168.0048   252.6813  1057.2184

       T/K    H(0)-H(T)+PV         H(T)/Eh          T*S/Eh         G(T)/Eh
   ------------------------------------------------------------------------
    298.15    0.459602E-01    0.819484E+00    0.120057E+00    0.699427E+00
   ------------------------------------------------------------------------

         :::::::::::::::::::::::::::::::::::::::::::::::::::::
         ::                  THERMODYNAMIC                  ::
         :::::::::::::::::::::::::::::::::::::::::::::::::::::
         :: total free energy        -127.066379390265 Eh   ::
         ::.................................................::
         :: total energy             -127.765806230012 Eh   ::
         :: zero point energy           0.773523660981 Eh   ::
         :: G(RRHO) w/o ZPVE           -0.074096821234 Eh   ::
         :: G(RRHO) contrib.            0.699426839747 Eh   ::
         :::::::::::::::::::::::::::::::::::::::::::::::::::::

           -------------------------------------------------
          | TOTAL ENERGY             -127.765806230012 Eh   |
          | TOTAL ENTHALPY           -126.946322363548 Eh   |
          | TOTAL FREE ENERGY        -127.066379390265 Eh   |
          | GRADIENT NORM               0.000083748736 Eh/α |
           -------------------------------------------------

 * finished run on 2025/09/13 at 21:44:22.296
