   * xtb version 6.7.1 (edcfbbe) compiled by 'albert@albert-system' on 2024-07-22

   ID    Z sym.   atoms
    1    8 O      1
    2   15 P      2
    3    6 C      3-30, 32-35, 37-41, 43-53
    4    7 N      31, 36, 42
    5    1 H      54-85

          program call               : xtb data2507/toluene/p-PO15NCzDPA/p-PO15NCzDPA_toluene_T1_crest.xyz --gfn 2 --uhf 2 --gbsa toluene --ohess vtight --parallel 40 --molden --ceasefiles --namespace data2507/toluene/p-PO15NCzDPA/p-PO15NCzDPA_toluene_T1_finalOpt
      * Solvation model:               GBSA
        Solvent                        toluene
        Solvent mass                       9.2140E+01 g/mol
          :  Hamiltonian                  GFN2-xTB          :
 * total energy  :  -134.5244071 Eh     change       -0.1633509E-08 Eh
 * total energy  :  -134.5245205 Eh     change       -0.1134589E-03 Eh
 * total energy  :  -134.5245695 Eh     change       -0.4900918E-04 Eh
 * total energy  :  -134.5245848 Eh     change       -0.1529090E-04 Eh
 * total energy  :  -134.5245987 Eh     change       -0.1383333E-04 Eh
 * total energy  :  -134.5246131 Eh     change       -0.1445883E-04 Eh
 * total energy  :  -134.5246210 Eh     change       -0.7880614E-05 Eh
 * total energy  :  -134.5246272 Eh     change       -0.6216578E-05 Eh
 * total energy  :  -134.5246326 Eh     change       -0.5426521E-05 Eh
 * total energy  :  -134.5246328 Eh     change       -0.1950812E-06 Eh
 * total energy  :  -134.5247008 Eh     change       -0.1622599E-05 Eh
 * total energy  :  -134.5247025 Eh     change       -0.1684751E-05 Eh
 * total energy  :  -134.5247042 Eh     change       -0.1694015E-05 Eh
 * total energy  :  -134.5247059 Eh     change       -0.1728818E-05 Eh
 * total energy  :  -134.5247079 Eh     change       -0.1920561E-05 Eh
 * total energy  :  -134.5247097 Eh     change       -0.1784765E-05 Eh
 * total energy  :  -134.5247108 Eh     change       -0.1136616E-05 Eh
 * total energy  :  -134.5247116 Eh     change       -0.8029845E-06 Eh
 * total energy  :  -134.5247116 Eh     change       -0.8167945E-08 Eh
   *** GEOMETRY OPTIMIZATION CONVERGED AFTER 44 ITERATIONS ***

 final structure:
================
85
 xtb: 6.7.1 (edcfbbe)
O            7.64229184431737       -1.62866208554104        1.51655244836712
P            7.18902833946734       -0.58102055083483        0.57856220225123
C            7.68448696138098        1.09308095124195        1.09089900015831
C            7.23093774560022        2.22925102869630        0.43064382517985
C            7.62701580644390        3.47950367096581        0.86850952951597
C            8.46965205153828        3.59859598458696        1.96402633797703
C            8.91625311620403        2.46671799830269        2.62671666298346
C            8.52244315575792        1.21346394407017        2.19050966954000
C            7.83744130901955       -0.83230575389887       -1.10947577669774
C            7.39338915345402       -1.96466387443620       -1.78146067450765
C            7.88617387843762       -2.26273763213805       -3.03839439170758
C            8.82896005131928       -1.43081670890603       -3.62344673610759
C            9.28016563592566       -0.30778406812233       -2.94976222791555
C            8.78740495110880       -0.00632845465132       -1.69069821674001
C            5.38322606666064       -0.51508066596556        0.39743695700442
C            4.75171178968957       -0.05139546340582       -0.75290586160899
C            3.37633800483056        0.01342881125604       -0.80755718250821
C            2.58945384504169       -0.38931018000371        0.28056895425111
C            1.13509000678890       -0.32163629715587        0.21610016725823
C            0.35379325358347       -1.48860670922376        0.48322862665354
C            0.94634367942975       -2.73266077967292        0.72133496306941
C            0.18738766064359       -3.84695276565649        1.07241695640347
C           -1.18044800451827       -3.73040521517239        1.19900943907488
C           -1.80198321592600       -2.51860309355795        0.90531185481431
C           -1.07128765934036       -1.40299637743270        0.48525432021686
C           -1.71173961024394       -0.18504819320087        0.09622924987261
C           -3.16478507847145       -0.11209529099194        0.04198582414078
C           -3.86521262185798        0.89170694443575        0.72479427214147
C           -5.24075010028771        0.95376503579033        0.68999056373132
C           -5.96448577705721        0.02039339529050       -0.04894627653871
N           -7.36662858486688        0.08679366938141       -0.08829890595552
C           -8.24348157541507       -0.97685222868976       -0.02448776825047
C           -8.03114808069596       -2.33020019300402        0.19534417532544
C           -9.15724668801229       -3.13575538183663        0.23108385923009
C          -10.42361229838874       -2.57591838299524        0.06173785888841
N          -10.64722795935662       -1.28638185756982       -0.11228183621768
C           -9.57870560271894       -0.50193169545428       -0.14801988292136
C           -9.49123547919699        0.92166051338511       -0.28502691779830
C          -10.39389935247609        1.96258847547046       -0.44601617219528
C           -9.87138604871914        3.24220071644801       -0.54283845310581
C           -8.49240388122851        3.43082001433924       -0.48213945461196
N           -7.60753858073804        2.45795216777011       -0.33052629199647
C           -8.10793361430780        1.23666450249778       -0.23121840170676
C           -5.28346380651133       -0.96760137453251       -0.75835636386461
C           -3.90849707722218       -1.03842178398753       -0.70067036132681
C           -0.92750884156285        0.96316804029149       -0.23757844012185
C           -1.51111779618819        2.13933787495087       -0.71839865310782
C           -0.75391464386966        3.28475592704427       -0.95531862969587
C            0.60258821629763        3.27254240830636       -0.70973523036554
C            1.21983144146662        2.09384460533871       -0.29676059574115
C            0.49382969999561        0.91270778396237       -0.11401185353896
C            3.23952867271888       -0.86115718348799        1.42930977989991
C            4.61532918053618       -0.91539691631333        1.48628349581818
H            6.57388769205485        2.12725670468062       -0.42079638285100
H            7.27873405011037        4.36451194724563        0.35627251055768
H            8.77674585442918        4.57713778688733        2.30286895602383
H            9.56960661745147        2.55956102371950        3.48195993094203
H            8.85365779126456        0.31343502371838        2.69027128313939
H            6.66076060722455       -2.60241432698718       -1.30286910773529
H            7.53797817084432       -3.14152065744304       -3.56125282727686
H            9.21553919422615       -1.66159457021814       -4.60517829643438
H           10.01994275300464        0.33524093684692       -3.40380713049147
H            9.13780576830618        0.86772429030379       -1.15934568194557
H            5.34318929565437        0.23848622689747       -1.61029854965544
H            2.88953276353089        0.34542057160007       -1.71324746086934
H            2.01635425072626       -2.83801893835855        0.62895351357475
H            0.67975954677059       -4.79004418017976        1.25781629620556
H           -1.77766509829968       -4.57428935903405        1.51112917453608
H           -2.87265802919118       -2.44126956756299        1.01312201503576
H           -3.31530566097465        1.60221766024041        1.32363547271314
H           -5.76840507656450        1.72332466214280        1.23029801717714
H           -7.04404298302297       -2.73965783970356        0.34754909440932
H           -9.06055762610347       -4.19720743495146        0.39701684307194
H          -11.30803297271272       -3.19862213473343        0.08131963854508
H          -11.45531608707389        1.77215940073172       -0.49257864210066
H          -10.52085861220465        4.09420513321338       -0.66647238227405
H           -8.06663105396332        4.42251153158463       -0.55879320940893
H           -5.83393232638791       -1.66102358123930       -1.37650424697572
H           -3.38937341719221       -1.79117984166467       -1.27535138222262
H           -2.57125301863124        2.16402939742110       -0.91754060249088
H           -1.24012377302454        4.17903733278253       -1.31570357869494
H            1.19542243609936        4.16433949579194       -0.84856807191729
H            2.28237183568170        2.09809850929292       -0.10870940292437
H            2.65097223744977       -1.15221343140258        2.28743980054496
H            5.12170571304075       -1.27493876414709        2.37216988407135

          :  Hamiltonian                  GFN2-xTB          :
         :: gradient norm              0.000064708291 Eh/a0 ::
         :: HOMO-LUMO gap              0.455176755870 eV    ::
         :: SCC energy              -136.966836499990 Eh    ::
         :: -> dispersion             -0.123942438741 Eh    ::
         :: -> Gsolv                  -0.062555924794 Eh    ::
         :: repulsion energy           2.442124900585 Eh    ::

    * Orbital Energies and Occupations

         #    Occupation            Energy/Eh            Energy/eV
      -------------------------------------------------------------
         1        2.0000           -0.6969811             -18.9658
       ...           ...                  ...                  ...
       114        2.0000           -0.4131528             -11.2425
       115        2.0000           -0.4116510             -11.2016
       116        2.0000           -0.4078581             -11.0984
       117        2.0000           -0.4055604             -11.0359
       118        2.0000           -0.4040685             -10.9953
       119        2.0000           -0.4030215             -10.9668
       120        2.0000           -0.4014423             -10.9238
       121        2.0000           -0.3993188             -10.8660
       122        2.0000           -0.3843662             -10.4591
       123        2.0000           -0.3818684             -10.3912
       124        2.0000           -0.3776439             -10.2762
       125        1.0000           -0.3536165              -9.6224
       126        0.9998           -0.2936915              -7.9918 (HOMO)
       127        0.0002           -0.2769641              -7.5366 (LUMO)
       128                         -0.2553619              -6.9488
       129                         -0.2533567              -6.8942
       130                         -0.2453381              -6.6760
       131                         -0.2442061              -6.6452
       132                         -0.2402040              -6.5363
       133                         -0.2358163              -6.4169
       134                         -0.2345229              -6.3817
       135                         -0.2335599              -6.3555
       136                         -0.2326618              -6.3310
       137                         -0.2300725              -6.2606
       ...                                ...                  ...
       249                          1.1834389              32.2030
      -------------------------------------------------------------
                  HL-Gap            0.0167274 Eh            0.4552 eV

     #   Z          covCN         q      C6AA      α(0)
     1   8 O        0.808    -0.401    21.720     6.247
     2  15 P        4.070     0.046   158.177    22.592
     3   6 C        2.921     0.012    27.751     8.639
     4   6 C        2.980    -0.026    28.634     8.778
     5   6 C        2.919    -0.027    28.671     8.781
     6   6 C        2.920    -0.024    28.601     8.770
     7   6 C        2.919    -0.027    28.670     8.780
     8   6 C        3.018    -0.019    28.466     8.752
     9   6 C        2.920     0.014    27.705     8.632
    10   6 C        3.028    -0.018    28.431     8.746
    11   6 C        2.919    -0.026    28.656     8.778
    12   6 C        2.920    -0.024    28.614     8.772
    13   6 C        2.920    -0.026    28.660     8.779
    14   6 C        2.971    -0.024    28.601     8.772
    15   6 C        2.919     0.006    27.891     8.660
    16   6 C        2.971    -0.027    28.663     8.782
    17   6 C        2.923    -0.031    28.784     8.798
    18   6 C        2.973     0.020    27.549     8.610
    19   6 C        2.972    -0.008    28.210     8.712
    20   6 C        2.977     0.010    27.798     8.648
    21   6 C        2.921    -0.036    28.894     8.815
    22   6 C        2.913    -0.031    28.762     8.794
    23   6 C        2.914    -0.030    28.754     8.793
    24   6 C        2.921    -0.038    28.938     8.822
    25   6 C        2.976     0.010    27.792     8.647
    26   6 C        2.972    -0.009    28.235     8.716
    27   6 C        2.972     0.016    27.653     8.626
    28   6 C        2.924    -0.029    28.736     8.791
    29   6 C        2.918    -0.039    28.965     8.825
    30   6 C        2.913     0.062    26.602     8.457
    31   7 N        2.795    -0.051    22.222     7.001
    32   6 C        3.082     0.038    27.067     8.529
    33   6 C        2.915    -0.034    28.845     8.807
    34   6 C        2.921    -0.045    29.127     8.850
    35   6 C        2.922     0.052    26.839     8.496
    36   7 N        1.832    -0.252    27.403     7.757
    37   6 C        3.071     0.071    26.337     8.415
    38   6 C        3.061    -0.035    28.819     8.803
    39   6 C        2.918    -0.014    28.359     8.733
    40   6 C        2.918    -0.052    29.295     8.876
    41   6 C        2.930     0.059    26.679     8.471
    42   7 N        1.832    -0.267    27.785     7.811
    43   6 C        3.099     0.141    24.809     8.163
    44   6 C        2.918    -0.045    29.110     8.848
    45   6 C        2.924    -0.031    28.782     8.798
    46   6 C        2.977     0.010    27.788     8.647
    47   6 C        2.921    -0.037    28.915     8.818
    48   6 C        2.914    -0.029    28.736     8.790
    49   6 C        2.913    -0.030    28.758     8.794
    50   6 C        2.921    -0.036    28.896     8.815
    51   6 C        2.977     0.010    27.796     8.648
    52   6 C        2.922    -0.031    28.785     8.798
    53   6 C        3.019    -0.021    28.512     8.759
    54   1 H        0.926     0.046     2.367     2.406
    55   1 H        0.926     0.046     2.369     2.407
    56   1 H        0.926     0.046     2.368     2.407
    57   1 H        0.926     0.043     2.408     2.427
    58   1 H        0.925     0.048     2.347     2.396
    59   1 H        0.925     0.038     2.475     2.460
    60   1 H        0.926     0.044     2.391     2.418
    61   1 H        0.926     0.047     2.362     2.403
    62   1 H        0.926     0.045     2.381     2.413
    63   1 H        0.925     0.038     2.469     2.457
    64   1 H        0.926     0.040     2.447     2.446
    65   1 H        0.926     0.045     2.378     2.411
    66   1 H        0.926     0.034     2.531     2.488
    67   1 H        0.926     0.032     2.555     2.499
    68   1 H        0.926     0.033     2.538     2.491
    69   1 H        0.926     0.037     2.484     2.465
    70   1 H        0.926     0.048     2.341     2.393
    71   1 H        0.926     0.051     2.304     2.374
    72   1 H        0.926     0.047     2.362     2.403
    73   1 H        0.926     0.046     2.365     2.405
    74   1 H        0.925     0.039     2.468     2.457
    75   1 H        0.926     0.051     2.312     2.378
    76   1 H        0.926     0.046     2.374     2.410
    77   1 H        0.925     0.043     2.408     2.427
    78   1 H        0.926     0.042     2.418     2.431
    79   1 H        0.926     0.047     2.355     2.400
    80   1 H        0.926     0.040     2.455     2.450
    81   1 H        0.926     0.035     2.518     2.482
    82   1 H        0.926     0.034     2.529     2.487
    83   1 H        0.926     0.036     2.502     2.474
    84   1 H        0.926     0.042     2.418     2.432
    85   1 H        0.925     0.043     2.410     2.428

molecular dipole:
                 x           y           z       tot (Debye)
 q only:       -0.269       1.245      -1.165
   full:       -0.318       1.132      -1.186       4.246

 projected vibrational frequencies (cm⁻¹)
eigval :       -0.00    -0.00    -0.00     0.00     0.00     0.00
eigval :        9.01    10.12    11.44    20.36    22.77    27.48
eigval :       30.37    38.65    43.56    49.70    57.94    59.70
eigval :       64.38    71.22    82.19    86.06   100.64   108.10
eigval :      133.91   135.36   141.03   147.78   151.24   156.47
eigval :      176.51   198.86   210.03   210.43   222.31   232.52
eigval :      234.58   257.66   266.18   274.10   283.21   288.23
eigval :      312.35   328.13   345.43   361.82   365.68   367.43
eigval :      369.52   371.14   378.44   383.14   396.53   403.34
eigval :      406.90   416.47   417.55   423.26   426.55   438.88
eigval :      452.22   465.50   469.08   473.45   498.51   514.47
eigval :      519.61   528.54   544.26   553.20   567.43   578.84
eigval :      580.27   585.04   585.59   586.40   600.41   602.18
eigval :      605.77   616.24   632.55   640.17   657.68   660.72
eigval :      670.72   675.75   677.79   690.38   692.98   706.62
eigval :      717.19   719.48   721.58   734.98   738.88   739.99
eigval :      745.46   751.29   759.54   778.37   790.17   799.77
eigval :      804.98   816.63   844.53   848.69   865.62   872.69
eigval :      874.70   877.22   890.21   892.82   893.56   899.02
eigval :      899.94   900.85   901.81   902.90   903.96   905.85
eigval :      912.79   915.99   917.16   921.50   922.75   923.81
eigval :      924.67   926.09   930.49   933.68   934.22   934.83
eigval :      944.85   952.17   971.29   975.26  1003.71  1019.49
eigval :     1031.00  1076.01  1076.56  1082.27  1088.41  1100.79
eigval :     1103.15  1111.25  1112.17  1113.07  1117.43  1120.83
eigval :     1121.68  1126.12  1126.92  1130.29  1134.94  1142.12
eigval :     1167.06  1177.51  1178.71  1179.66  1179.87  1180.35
eigval :     1188.55  1189.24  1190.39  1197.29  1202.66  1211.16
eigval :     1215.30  1229.11  1231.12  1252.17  1258.58  1263.90
eigval :     1268.32  1269.76  1277.60  1280.89  1287.07  1296.98
eigval :     1298.31  1310.31  1315.13  1318.03  1320.68  1327.11
eigval :     1329.72  1337.92  1338.49  1359.44  1368.05  1373.06
eigval :     1374.67  1390.36  1402.44  1406.85  1409.01  1419.57
eigval :     1420.96  1423.24  1449.89  1451.36  1453.17  1461.48
eigval :     1471.97  1477.11  1479.65  1486.20  1521.69  1525.83
eigval :     1529.10  1531.99  1550.31  1551.34  1557.98  1563.13
eigval :     1570.16  1578.76  1580.72  1582.77  1583.80  1585.61
eigval :     1592.71  3046.97  3060.77  3061.21  3061.37  3062.34
eigval :     3065.90  3068.81  3074.14  3074.68  3076.13  3076.47
eigval :     3077.80  3079.02  3080.27  3081.24  3082.08  3083.19
eigval :     3083.35  3083.83  3084.76  3087.50  3088.37  3092.15
eigval :     3092.30  3092.50  3094.84  3096.32  3098.72  3099.93
eigval :     3100.27  3102.91  3109.87

   temp. (K)  partition function   enthalpy   heat capacity  entropy
                                   cal/mol     cal/K/mol   cal/K/mol   J/K/mol
 298.15  VIB  0.290E+21            25230.509    157.218    158.239
         ROT  0.148E+09              888.752      2.981     40.370
         INT  0.430E+29            26119.261    160.199    198.610
         TR   0.178E+29             1481.254      4.968     45.488
         TOT                       27600.5153   165.1667   244.0978  1021.3053

       T/K    H(0)-H(T)+PV         H(T)/Eh          T*S/Eh         G(T)/Eh
   ------------------------------------------------------------------------
    298.15    0.439842E-01    0.684616E+00    0.115979E+00    0.568637E+00
   ------------------------------------------------------------------------

         :::::::::::::::::::::::::::::::::::::::::::::::::::::
         ::                  THERMODYNAMIC                  ::
         :::::::::::::::::::::::::::::::::::::::::::::::::::::
         :: total free energy        -133.956074244992 Eh   ::
         ::.................................................::
         :: total energy             -134.524711600260 Eh   ::
         :: zero point energy           0.640631884224 Eh   ::
         :: G(RRHO) w/o ZPVE           -0.071994528956 Eh   ::
         :: G(RRHO) contrib.            0.568637355268 Eh   ::
         :::::::::::::::::::::::::::::::::::::::::::::::::::::

           -------------------------------------------------
          | TOTAL ENERGY             -134.524711600260 Eh   |
          | TOTAL ENTHALPY           -133.840095495210 Eh   |
          | TOTAL FREE ENERGY        -133.956074244992 Eh   |
          | GRADIENT NORM               0.000064701132 Eh/α |
          | HOMO-LUMO GAP               0.455175932385 eV   |
           -------------------------------------------------

 * finished run on 2025/08/25 at 07:56:57.883
