   * xtb version 6.7.1 (edcfbbe) compiled by 'albert@albert-system' on 2024-07-22

   ID    Z sym.   atoms
    1    8 O      1
    2   15 P      2
    3    6 C      3-30, 32-35, 37-41, 43-53
    4    7 N      31, 36, 42
    5    1 H      54-85

          program call               : xtb data2507/toluene/p-PO15NCzDPA/p-PO15NCzDPA.xyz --gfn 2 --gbsa toluene --ohess vtight --parallel 40 --molden --ceasefiles --namespace data2507/toluene/p-PO15NCzDPA/p-PO15NCzDPA_toluene_S0_preOpt
      * Solvation model:               GBSA
        Solvent                        toluene
        Solvent mass                       9.2140E+01 g/mol
          :  Hamiltonian                  GFN2-xTB          :
 * total energy  :  -134.5672990 Eh     change       -0.1224720E-08 Eh
 * total energy  :  -134.5859748 Eh     change       -0.1867586E-01 Eh
 * total energy  :  -134.5909606 Eh     change       -0.4985743E-02 Eh
 * total energy  :  -134.5915627 Eh     change       -0.6020632E-03 Eh
 * total energy  :  -134.5920071 Eh     change       -0.4444031E-03 Eh
 * total energy  :  -134.5922094 Eh     change       -0.2023336E-03 Eh
 * total energy  :  -134.5923986 Eh     change       -0.1892238E-03 Eh
 * total energy  :  -134.5925266 Eh     change       -0.1279614E-03 Eh
 * total energy  :  -134.5926324 Eh     change       -0.1058651E-03 Eh
 * total energy  :  -134.5927393 Eh     change       -0.1068345E-03 Eh
 * total energy  :  -134.5933049 Eh     change       -0.2053940E-06 Eh
 * total energy  :  -134.5933050 Eh     change       -0.1312216E-06 Eh
 * total energy  :  -134.5933051 Eh     change       -0.1178586E-06 Eh
 * total energy  :  -134.5933053 Eh     change       -0.1257822E-06 Eh
 * total energy  :  -134.5933055 Eh     change       -0.1867386E-06 Eh
 * total energy  :  -134.5933057 Eh     change       -0.2678324E-06 Eh
 * total energy  :  -134.5933060 Eh     change       -0.2662708E-06 Eh
 * total energy  :  -134.5933062 Eh     change       -0.2303029E-06 Eh
 * total energy  :  -134.5933062 Eh     change       -0.1584453E-08 Eh
   *** GEOMETRY OPTIMIZATION CONVERGED AFTER 94 ITERATIONS ***

 final structure:
================
85
 xtb: 6.7.1 (edcfbbe)
O            7.44336141462925       -1.38905845387254       -2.05513589378589
P            7.02847937421936       -0.59862949740133       -0.88007863648443
C            7.69853918219380       -1.24890605773654        0.68573801452942
C            7.94331994628369       -0.45051164408024        1.79560295768088
C            8.44402976134602       -1.02086565210716        2.95282440431574
C            8.70004037739369       -2.38214536041712        3.00470828526959
C            8.46085458501417       -3.17853778221701        1.89591629734174
C            7.96050913860207       -2.61162828307762        0.73743840659693
C            7.57763829115553        1.13846115442725       -0.96204981523838
C            8.75757346668434        1.38651305793518       -1.65118852948288
C            9.25316181567609        2.67521995847849       -1.73761311414759
C            8.56762758763314        3.71877665862024       -1.13589997095300
C            7.38600462318549        3.47397851010929       -0.45417482352222
C            6.88802483380254        2.18573650737288       -0.36500776431235
C            5.22181706686957       -0.54199876785738       -0.66235730101438
C            4.44215113737287       -0.74610093865286       -1.79319679477005
C            3.06414722555166       -0.68826376752247       -1.70834748566366
C            2.44825116609654       -0.41938218330638       -0.48903369423546
C            0.97218445746313       -0.34300521436231       -0.39321089377500
C            0.21539349357308       -1.52094138745959       -0.34528942995939
C            0.82586237866451       -2.80291845149230       -0.37847260404807
C            0.07921989395937       -3.94011644387210       -0.34118672508153
C           -1.32702482536684       -3.86591492368521       -0.26933696775016
C           -1.95028112460883       -2.65679774211010       -0.22645577289474
C           -1.20952936405170       -1.44531682777502       -0.25152390480956
C           -1.83858196368580       -0.19388359964650       -0.20072051545010
C           -3.31376491439051       -0.11392074891982       -0.10325576528690
C           -3.96090604874072       -0.38118682279529        1.09963371564114
C           -5.33718554958963       -0.30426711361624        1.19358964728495
C           -6.08877764840787        0.04391377753426        0.07711271815225
N           -7.49126048498916        0.13000087954932        0.17233145357037
C           -8.40842097994568       -0.35843424617560       -0.73372198740217
C           -8.24721976549709       -1.12593201582529       -1.87813210473170
C           -9.40367564139331       -1.47747864638612       -2.55405330401882
C          -10.64757029967441       -1.06988324967554       -2.07160531119503
N          -10.82148319777003       -0.36528603584806       -0.96869358010591
C           -9.72339302236977       -0.02103815813710       -0.30963060273079
C           -9.57882771611488        0.70478069664968        0.91738970042373
C          -10.43738018326262        1.31121635288656        1.82247021889257
C           -9.86243655223938        1.93320524343653        2.91909087051661
C           -8.47725949820210        1.92996360124076        3.06690187656548
N           -7.63298169293427        1.36087740603570        2.22077979967251
C           -8.18389794809395        0.76272776007214        1.17640808052631
C           -5.45119906866757        0.32406073723539       -1.12691113123299
C           -4.07448037188498        0.24074896550124       -1.21314919711802
C           -1.08046705703871        0.98427688321235       -0.24516172473731
C           -1.68606105921588        2.26715947258988       -0.17584695157469
C           -0.93901590713094        3.40352752070794       -0.23026160870043
C            0.46324468077385        3.32870747505270       -0.35817435715999
C            1.08389966074357        2.11885464555319       -0.41324339878514
C            0.34368575175272        0.90847576118727       -0.34803655377807
C            3.23560118922961       -0.22493004522179        0.64331966820540
C            4.61360315306092       -0.28922809698918        0.56117391988266
H            7.75368102557024        0.61249485905201        1.74748598254666
H            8.63802533414973       -0.40109389649546        3.81616280074289
H            9.09238184427132       -2.82219877756156        3.90966627472060
H            8.66559060807033       -4.23852900100864        1.93363082499448
H            7.77636176665461       -3.20939118831966       -0.14495181952424
H            9.26876118666334        0.55703956381226       -2.12080800055903
H           10.17160479460949        2.86567969384548       -2.27331914751908
H            8.95270938454317        4.72567343037999       -1.20238160270324
H            6.84961868644919        4.28953692180679        0.00878271836527
H            5.96309035029171        1.99315070841929        0.15944852873417
H            4.93504306654093       -0.95748279298667       -2.73231305437991
H            2.45697920389543       -0.84767972938873       -2.58784698251346
H            1.90319604899227       -2.85899641496833       -0.43559380384625
H            0.55779760855258       -4.90836886924486       -0.36813282112266
H           -1.90403944856858       -4.77908193396261       -0.24890719425046
H           -3.02735459647917       -2.59973057606483       -0.17266150148877
H           -3.37734128440777       -0.65063004582940        1.96752428731822
H           -5.83674623636187       -0.50242860752245        2.12846413868572
H           -7.27510649565659       -1.44612816181331       -2.22190905557981
H           -9.34840723248897       -2.07276593527689       -3.45197745823224
H          -11.55533583453194       -1.33554119453776       -2.59676856255881
H          -11.50564174763849        1.29456018210101        1.66851574618719
H          -10.47617252669523        2.42121088716214        3.65955799622974
H           -8.01111731799911        2.41262073092595        3.91576927591663
H           -6.03133384026576        0.62519398031265       -1.98645226512434
H           -3.58029878845978        0.45940027676030       -2.14845952884271
H           -2.75981804995156        2.32484091771553       -0.07598616383623
H           -1.41450930641883        4.37214610640334       -0.17661910167164
H            1.03917920181624        4.24130416804224       -0.40970901166094
H            2.15793133600439        2.05972242434201       -0.51099815246143
H            2.75794061613149       -0.02622169360231        1.59203263918668
H            5.21819087505492       -0.15298089960547        1.44648419511402

          :  Hamiltonian                  GFN2-xTB          :
         :: gradient norm              0.000035748448 Eh/a0 ::
         :: HOMO-LUMO gap              2.163634962848 eV    ::
         :: SCC energy              -137.054901412319 Eh    ::
         :: -> dispersion             -0.123395530842 Eh    ::
         :: -> Gsolv                  -0.062907250023 Eh    ::
         :: repulsion energy           2.461595185832 Eh    ::

    * Orbital Energies and Occupations

         #    Occupation            Energy/Eh            Energy/eV
      -------------------------------------------------------------
         1        2.0000           -0.6977468             -18.9867
       ...           ...                  ...                  ...
       113        2.0000           -0.4164808             -11.3330
       114        2.0000           -0.4137027             -11.2574
       115        2.0000           -0.4108841             -11.1807
       116        2.0000           -0.4082574             -11.1092
       117        2.0000           -0.4077325             -11.0950
       118        2.0000           -0.4023763             -10.9492
       119        2.0000           -0.4018951             -10.9361
       120        2.0000           -0.4015123             -10.9257
       121        2.0000           -0.4013040             -10.9200
       122        2.0000           -0.3833690             -10.4320
       123        2.0000           -0.3811715             -10.3722
       124        2.0000           -0.3770863             -10.2610
       125        2.0000           -0.3618946              -9.8477 (HOMO)
       126                         -0.2823825              -7.6840 (LUMO)
       127                         -0.2763267              -7.5192
       128                         -0.2529220              -6.8824
       129                         -0.2526072              -6.8738
       130                         -0.2521329              -6.8609
       131                         -0.2429863              -6.6120
       132                         -0.2389849              -6.5031
       133                         -0.2361504              -6.4260
       134                         -0.2353465              -6.4041
       135                         -0.2349924              -6.3945
       136                         -0.2348447              -6.3904
       ...                                ...                  ...
       249                          1.1634450              31.6590
      -------------------------------------------------------------
                  HL-Gap            0.0795121 Eh            2.1636 eV

     #   Z          covCN         q      C6AA      α(0)
     1   8 O        0.808    -0.402    21.734     6.249
     2  15 P        4.071     0.052   157.911    22.573
     3   6 C        2.920     0.011    27.764     8.641
     4   6 C        2.972    -0.026    28.651     8.780
     5   6 C        2.919    -0.027    28.668     8.780
     6   6 C        2.920    -0.024    28.600     8.770
     7   6 C        2.919    -0.026    28.659     8.779
     8   6 C        3.026    -0.019    28.454     8.750
     9   6 C        2.920     0.012    27.758     8.640
    10   6 C        3.028    -0.019    28.449     8.749
    11   6 C        2.919    -0.026    28.658     8.779
    12   6 C        2.920    -0.024    28.601     8.770
    13   6 C        2.919    -0.027    28.670     8.780
    14   6 C        2.970    -0.027    28.660     8.781
    15   6 C        2.920     0.008    27.830     8.651
    16   6 C        3.023    -0.020    28.471     8.752
    17   6 C        2.923    -0.030    28.744     8.792
    18   6 C        2.977     0.024    27.460     8.596
    19   6 C        2.977    -0.006    28.159     8.704
    20   6 C        2.984     0.007    27.851     8.657
    21   6 C        2.917    -0.034    28.844     8.807
    22   6 C        2.914    -0.029    28.735     8.790
    23   6 C        2.914    -0.030    28.742     8.791
    24   6 C        2.917    -0.035    28.865     8.810
    25   6 C        2.983     0.007    27.854     8.657
    26   6 C        2.977    -0.004    28.129     8.700
    27   6 C        2.976     0.017    27.619     8.621
    28   6 C        2.924    -0.029    28.717     8.788
    29   6 C        2.920    -0.038    28.935     8.821
    30   6 C        2.914     0.064    26.572     8.453
    31   7 N        2.796    -0.055    22.297     7.013
    32   6 C        3.083     0.038    27.048     8.526
    33   6 C        2.914    -0.034    28.858     8.809
    34   6 C        2.921    -0.045    29.124     8.850
    35   6 C        2.922     0.051    26.848     8.497
    36   7 N        1.832    -0.252    27.418     7.759
    37   6 C        3.071     0.071    26.343     8.416
    38   6 C        3.062    -0.036    28.828     8.805
    39   6 C        2.918    -0.014    28.364     8.734
    40   6 C        2.918    -0.053    29.309     8.878
    41   6 C        2.931     0.059    26.673     8.470
    42   7 N        1.832    -0.269    27.829     7.817
    43   6 C        3.101     0.142    24.785     8.158
    44   6 C        2.920    -0.044    29.085     8.844
    45   6 C        2.924    -0.031    28.766     8.796
    46   6 C        2.984     0.007    27.850     8.657
    47   6 C        2.917    -0.034    28.854     8.809
    48   6 C        2.914    -0.030    28.740     8.791
    49   6 C        2.914    -0.029    28.733     8.790
    50   6 C        2.917    -0.034    28.850     8.808
    51   6 C        2.984     0.007    27.849     8.656
    52   6 C        2.924    -0.030    28.757     8.794
    53   6 C        2.972    -0.027    28.670     8.783
    54   1 H        0.926     0.044     2.393     2.419
    55   1 H        0.926     0.046     2.372     2.408
    56   1 H        0.926     0.046     2.365     2.405
    57   1 H        0.926     0.044     2.402     2.423
    58   1 H        0.925     0.046     2.377     2.411
    59   1 H        0.925     0.045     2.383     2.414
    60   1 H        0.926     0.043     2.404     2.425
    61   1 H        0.926     0.046     2.366     2.405
    62   1 H        0.926     0.046     2.369     2.407
    63   1 H        0.926     0.045     2.386     2.416
    64   1 H        0.925     0.047     2.361     2.403
    65   1 H        0.926     0.042     2.427     2.436
    66   1 H        0.926     0.029     2.594     2.518
    67   1 H        0.926     0.032     2.563     2.504
    68   1 H        0.926     0.032     2.551     2.498
    69   1 H        0.926     0.033     2.541     2.493
    70   1 H        0.926     0.046     2.372     2.408
    71   1 H        0.926     0.050     2.319     2.381
    72   1 H        0.926     0.046     2.377     2.411
    73   1 H        0.926     0.046     2.372     2.408
    74   1 H        0.925     0.038     2.474     2.460
    75   1 H        0.926     0.050     2.319     2.381
    76   1 H        0.926     0.045     2.381     2.413
    77   1 H        0.925     0.042     2.416     2.431
    78   1 H        0.926     0.042     2.421     2.433
    79   1 H        0.926     0.044     2.390     2.418
    80   1 H        0.926     0.034     2.536     2.490
    81   1 H        0.926     0.033     2.549     2.496
    82   1 H        0.926     0.033     2.547     2.496
    83   1 H        0.926     0.031     2.577     2.511
    84   1 H        0.926     0.044     2.391     2.418
    85   1 H        0.926     0.046     2.369     2.407

molecular dipole:
                 x           y           z       tot (Debye)
 q only:        0.257       0.877       1.373
   full:        0.205       0.833       1.285       3.928

 projected vibrational frequencies (cm⁻¹)
eigval :       -0.00    -0.00     0.00     0.00     0.00     0.00
eigval :        8.53     9.14    12.56    14.14    20.79    29.41
eigval :       32.45    38.60    41.78    45.88    48.30    56.29
eigval :       60.23    66.25    76.63    83.80    99.65   107.53
eigval :      113.11   138.02   140.81   146.16   150.08   159.57
eigval :      176.12   183.64   198.01   212.23   219.68   222.32
eigval :      229.30   251.40   265.85   282.77   283.30   283.69
eigval :      318.88   334.51   343.90   362.27   363.43   367.16
eigval :      377.19   379.41   386.91   392.54   399.82   404.41
eigval :      414.35   420.08   427.13   440.32   443.03   446.91
eigval :      448.02   453.34   461.87   476.48   502.19   517.20
eigval :      521.00   530.70   541.39   554.31   578.88   584.50
eigval :      585.35   586.10   586.76   591.90   601.00   611.82
eigval :      612.25   625.24   641.65   643.04   658.28   660.76
eigval :      674.38   682.95   691.43   696.20   700.37   705.55
eigval :      714.61   724.56   733.83   741.22   743.01   743.28
eigval :      755.00   774.55   776.21   779.19   790.75   801.48
eigval :      803.72   816.25   871.49   875.26   875.84   877.68
eigval :      878.16   880.71   897.38   898.86   903.40   904.34
eigval :      904.39   906.82   912.34   914.43   916.88   918.65
eigval :      918.77   919.27   920.47   923.47   926.44   927.41
eigval :      929.07   929.59   930.40   932.22   933.15   934.24
eigval :      935.59   955.40   971.08   974.28  1010.55  1025.20
eigval :     1031.36  1076.43  1077.29  1077.61  1078.42  1080.59
eigval :     1089.74  1111.71  1113.87  1118.37  1122.64  1123.84
eigval :     1124.52  1129.27  1132.33  1133.96  1143.14  1144.30
eigval :     1168.25  1177.82  1178.24  1178.43  1181.23  1187.00
eigval :     1188.77  1189.82  1191.99  1209.06  1212.09  1217.75
eigval :     1221.56  1224.22  1235.10  1255.79  1259.51  1262.09
eigval :     1265.38  1268.01  1271.47  1280.84  1288.94  1307.80
eigval :     1311.41  1319.13  1319.57  1321.53  1330.10  1333.99
eigval :     1338.33  1348.48  1370.23  1375.66  1382.80  1384.87
eigval :     1400.15  1411.35  1418.42  1421.49  1422.28  1427.83
eigval :     1443.23  1451.08  1452.04  1463.09  1466.07  1477.76
eigval :     1486.36  1497.39  1525.62  1531.06  1542.07  1551.15
eigval :     1556.69  1559.33  1566.98  1581.27  1581.57  1582.04
eigval :     1584.53  1584.83  1585.78  1594.15  1597.13  1607.17
eigval :     1621.73  3059.99  3060.35  3065.20  3066.34  3066.83
eigval :     3068.94  3069.58  3070.36  3071.01  3071.50  3075.51
eigval :     3076.58  3076.73  3077.53  3080.21  3081.53  3081.86
eigval :     3081.99  3082.30  3083.54  3085.38  3086.75  3087.17
eigval :     3087.70  3090.99  3091.95  3092.15  3092.32  3093.17
eigval :     3099.08  3101.79  3109.55

   temp. (K)  partition function   enthalpy   heat capacity  entropy
                                   cal/mol     cal/K/mol   cal/K/mol   J/K/mol
 298.15  VIB  0.794E+21            25202.943    155.754    158.975
         ROT  0.148E+09              888.752      2.981     40.364
         INT  0.117E+30            26091.696    158.735    199.339
         TR   0.178E+29             1481.254      4.968     45.488
         TOT                       27572.9498   163.7034   244.8276  1024.3588

       T/K    H(0)-H(T)+PV         H(T)/Eh          T*S/Eh         G(T)/Eh
   ------------------------------------------------------------------------
    298.15    0.439403E-01    0.687136E+00    0.116326E+00    0.570810E+00
   ------------------------------------------------------------------------

         :::::::::::::::::::::::::::::::::::::::::::::::::::::
         ::                  THERMODYNAMIC                  ::
         :::::::::::::::::::::::::::::::::::::::::::::::::::::
         :: total free energy        -134.022495830475 Eh   ::
         ::.................................................::
         :: total energy             -134.593306225201 Eh   ::
         :: zero point energy           0.643195611445 Eh   ::
         :: G(RRHO) w/o ZPVE           -0.072385216719 Eh   ::
         :: G(RRHO) contrib.            0.570810394726 Eh   ::
         :::::::::::::::::::::::::::::::::::::::::::::::::::::

           -------------------------------------------------
          | TOTAL ENERGY             -134.593306225201 Eh   |
          | TOTAL ENTHALPY           -133.906170321385 Eh   |
          | TOTAL FREE ENERGY        -134.022495830475 Eh   |
          | GRADIENT NORM               0.000035745449 Eh/α |
          | HOMO-LUMO GAP               2.163634943556 eV   |
           -------------------------------------------------

 * finished run on 2025/08/25 at 07:40:50.175
