   * xtb version 6.7.1 (edcfbbe) compiled by 'albert@albert-system' on 2024-07-22

   ID    Z sym.   atoms
    1    8 O      1
    2   15 P      2
    3    6 C      3-30, 32-35, 37-41, 43-53
    4    7 N      31, 36, 42
    5    1 H      54-85

          program call               : xtb data2507/toluene/p-PO15NCzDPA/p-PO15NCzDPA_toluene_S0_crest.xyz --gfn 2 --gbsa toluene --ohess vtight --parallel 40 --molden --ceasefiles --namespace data2507/toluene/p-PO15NCzDPA/p-PO15NCzDPA_toluene_S0_finalOpt
      * Solvation model:               GBSA
        Solvent                        toluene
        Solvent mass                       9.2140E+01 g/mol
          :  Hamiltonian                  GFN2-xTB          :
 * total energy  :  -134.5929933 Eh     change       -0.9435155E-09 Eh
 * total energy  :  -134.5930990 Eh     change       -0.1057312E-03 Eh
 * total energy  :  -134.5931443 Eh     change       -0.4522601E-04 Eh
 * total energy  :  -134.5931599 Eh     change       -0.1560905E-04 Eh
 * total energy  :  -134.5931758 Eh     change       -0.1596074E-04 Eh
 * total energy  :  -134.5931932 Eh     change       -0.1741303E-04 Eh
 * total energy  :  -134.5932009 Eh     change       -0.7611179E-05 Eh
 * total energy  :  -134.5932068 Eh     change       -0.5904317E-05 Eh
 * total energy  :  -134.5932115 Eh     change       -0.4700781E-05 Eh
 * total energy  :  -134.5932153 Eh     change       -0.3817708E-05 Eh
 * total energy  :  -134.5932355 Eh     change       -0.5746672E-05 Eh
 * total energy  :  -134.5932396 Eh     change       -0.4142435E-05 Eh
 * total energy  :  -134.5932425 Eh     change       -0.2865403E-05 Eh
 * total energy  :  -134.5932457 Eh     change       -0.3172239E-05 Eh
 * total energy  :  -134.5932491 Eh     change       -0.3403519E-05 Eh
 * total energy  :  -134.5932516 Eh     change       -0.2500298E-05 Eh
 * total energy  :  -134.5932533 Eh     change       -0.1757166E-05 Eh
 * total energy  :  -134.5932548 Eh     change       -0.1462396E-05 Eh
 * total energy  :  -134.5932548 Eh     change       -0.2121092E-07 Eh
   *** GEOMETRY OPTIMIZATION CONVERGED AFTER 22 ITERATIONS ***

 final structure:
================
85
 xtb: 6.7.1 (edcfbbe)
O            7.53644549763557       -2.11201777603263        0.81648806658649
P            7.15555808780052       -0.78496927653384        0.29128611100645
C            7.74169819456123        0.58914318412720        1.33279113137028
C            7.10937009187351        1.82502527171770        1.37845013483237
C            7.62988509521493        2.83227207027741        2.17120901049543
C            8.77895852453603        2.61026992281168        2.91426684769970
C            9.40902255208497        1.37661288757066        2.87164538556801
C            8.89052236219934        0.36723874733948        2.08010293710375
C            7.82715109151094       -0.45447332775606       -1.36631728819097
C            8.51801713050881       -1.47690035651589       -2.00109500937967
C            9.05164551991905       -1.27283114795754       -3.26198426424543
C            8.89646586662398       -0.04513259194114       -3.88510556374714
C            8.21120793640852        0.97936238477778       -3.24861652716889
C            7.67675867524343        0.77897476247892       -1.98929263423249
C            5.34777889657650       -0.57669673389605        0.17773142240265
C            4.66332044407799       -0.57263063435263       -1.02845261231135
C            3.28257823945319       -0.48872641808767       -1.03587896634852
C            2.57098225581221       -0.41679480439137        0.15830657196505
C            1.09359923419587       -0.33336925679543        0.14296548975799
C            0.33134434187087       -1.44838742356272        0.51783268964116
C            0.93842751547577       -2.67564655596391        0.89594204222993
C            0.18885916002121       -3.74497161195287        1.27911111909357
C           -1.21715440501101       -3.65059530343392        1.31549726656770
C           -1.83815702395335       -2.49865361194248        0.94173022076529
C           -1.09630213511184       -1.36702032831532        0.51000493315046
C           -1.72538119810773       -0.18239879948698        0.09925278814367
C           -3.20150548034094       -0.10771599060375        0.06597521289767
C           -3.89280478672455        0.71167273494066        0.95452653693378
C           -5.27203966534598        0.78096356333231        0.92579277014649
C           -5.98423889707984        0.03275753683007       -0.00480990629521
N           -7.38983496288623        0.10896688940415       -0.04011827523120
C           -8.26795202299784       -0.94653611867931       -0.16498105725414
C           -8.05605065413060       -2.31730986343465       -0.19420988392737
C           -9.18325953695421       -3.11466430868239       -0.30207383732226
C          -10.44904837244963       -2.53173426331284       -0.36539797037124
N          -10.67135835489936       -1.23149757430486       -0.30858990150568
C           -9.60174965194191       -0.45434284023737       -0.20515948336934
C           -9.51038429381252        0.97143995126097       -0.09518447265780
C          -10.40864787385097        2.02826258013171       -0.07776476473814
C           -9.88093328890072        3.30374636086841        0.04336717130216
C           -8.50162115844540        3.47386278439659        0.13863104204390
N           -7.62029093420910        2.48616786587652        0.12549274267762
C           -8.12598368109231        1.26803898235812        0.01344843870077
C           -5.30324356613062       -0.77703603372623       -0.90784238766375
C           -3.92411462058836       -0.84980943353263       -0.86406077625628
C           -0.96184402180530        0.92967087419682       -0.28562782622549
C           -1.56511883446374        2.13519727888303       -0.73356271923695
C           -0.81250546203549        3.21378175880882       -1.08401561765566
C            0.59387631028887        3.15554327163772       -1.00811091599466
C            1.21209490623333        2.01125148805695       -0.60776003139329
C            0.46594844876314        0.85683367816684       -0.25013396134718
C            3.26545462347604       -0.43262618762544        1.36648527467846
C            4.64396628255760       -0.51443210138378        1.37453219604423
H            6.20580531689868        1.98916275804775        0.80834602958980
H            7.13670363067105        3.79251521106112        2.21216356827373
H            9.18151681160434        3.39955659893426        3.53194200429927
H           10.30138239050751        1.20140101997726        3.45462168022581
H            9.35696571147559       -0.60778086523763        2.03695083221974
H            8.62538794900037       -2.42423183096129       -1.49066233484881
H            9.58723117542305       -2.06979260315861       -3.75681953819398
H            9.31192419944323        0.11576488930812       -4.86903249672772
H            8.09432541661493        1.93588003152418       -3.73677507025066
H            7.14264812227555        1.57189807086224       -1.48666159428099
H            5.21151088395730       -0.63346927393461       -1.95843387308574
H            2.74556214916738       -0.48546505244875       -1.97360950900573
H            2.01601826624454       -2.74705372948129        0.87351714120945
H            0.66575203054272       -4.67165830502401        1.56391249770468
H           -1.79614317250638       -4.50243930548348        1.64160022407862
H           -2.91509041932657       -2.42740688491219        0.97265594408430
H           -3.34125077412998        1.29075502603387        1.68035960514403
H           -5.80490729929974        1.41834922069880        1.61322780793704
H           -7.06804254901048       -2.74669593388245       -0.12310243263234
H           -9.08832991632542       -4.18880718153717       -0.33110931793701
H          -11.33427988377696       -3.14716106645599       -0.45478844258320
H          -11.47077838171535        1.85334224595469       -0.15778446684749
H          -10.52683496835375        4.16713800019177        0.06387511232688
H           -8.07222980339717        4.46257255108695        0.23231841811784
H           -5.85164044814408       -1.33222739890699       -1.65408247003277
H           -3.39708276941290       -1.47609615846313       -1.56890300460386
H           -2.64208940655950        2.18276112203701       -0.79346625231324
H           -1.28753211930155        4.12364467683499       -1.42105557394143
H            1.17501478858596        4.02592385868979       -1.27623105500903
H            2.28961270339899        1.96342643591248       -0.55499231387320
H            2.71670797183446       -0.37893027656196        2.29581727758359
H            5.19342303555970       -0.53301104001516        2.30738041113185

          :  Hamiltonian                  GFN2-xTB          :
         :: gradient norm              0.000141855489 Eh/a0 ::
         :: HOMO-LUMO gap              2.125826044296 eV    ::
         :: SCC energy              -137.054511004422 Eh    ::
         :: -> dispersion             -0.123797510840 Eh    ::
         :: -> Gsolv                  -0.062742324918 Eh    ::
         :: repulsion energy           2.461256190325 Eh    ::

    * Orbital Energies and Occupations

         #    Occupation            Energy/Eh            Energy/eV
      -------------------------------------------------------------
         1        2.0000           -0.6982715             -19.0009
       ...           ...                  ...                  ...
       113        2.0000           -0.4164891             -11.3332
       114        2.0000           -0.4135970             -11.2545
       115        2.0000           -0.4107127             -11.1761
       116        2.0000           -0.4073742             -11.0852
       117        2.0000           -0.4062542             -11.0547
       118        2.0000           -0.4036994             -10.9852
       119        2.0000           -0.4023960             -10.9498
       120        2.0000           -0.4019647             -10.9380
       121        2.0000           -0.4011121             -10.9148
       122        2.0000           -0.3837104             -10.4413
       123        2.0000           -0.3812214             -10.3736
       124        2.0000           -0.3770820             -10.2609
       125        2.0000           -0.3610560              -9.8248 (HOMO)
       126                         -0.2829333              -7.6990 (LUMO)
       127                         -0.2762862              -7.5181
       128                         -0.2570654              -6.9951
       129                         -0.2526350              -6.8745
       130                         -0.2455621              -6.6821
       131                         -0.2427891              -6.6066
       132                         -0.2407290              -6.5506
       133                         -0.2371486              -6.4531
       134                         -0.2354228              -6.4062
       135                         -0.2348595              -6.3909
       136                         -0.2342319              -6.3738
       ...                                ...                  ...
       249                          1.1858754              32.2693
      -------------------------------------------------------------
                  HL-Gap            0.0781227 Eh            2.1258 eV

     #   Z          covCN         q      C6AA      α(0)
     1   8 O        0.808    -0.401    21.713     6.246
     2  15 P        4.073     0.053   157.901    22.573
     3   6 C        2.920     0.011    27.774     8.642
     4   6 C        2.974    -0.024    28.607     8.773
     5   6 C        2.919    -0.026    28.662     8.779
     6   6 C        2.920    -0.024    28.597     8.769
     7   6 C        2.918    -0.026    28.662     8.779
     8   6 C        3.026    -0.019    28.464     8.751
     9   6 C        2.921     0.011    27.764     8.641
    10   6 C        3.018    -0.019    28.465     8.752
    11   6 C        2.919    -0.027    28.666     8.780
    12   6 C        2.920    -0.024    28.593     8.769
    13   6 C        2.919    -0.027    28.665     8.780
    14   6 C        2.981    -0.025    28.632     8.777
    15   6 C        2.920     0.010    27.787     8.644
    16   6 C        2.972    -0.024    28.610     8.774
    17   6 C        2.924    -0.030    28.742     8.792
    18   6 C        2.977     0.024    27.473     8.598
    19   6 C        2.977    -0.006    28.160     8.705
    20   6 C        2.984     0.007    27.851     8.657
    21   6 C        2.917    -0.034    28.850     8.808
    22   6 C        2.914    -0.030    28.739     8.791
    23   6 C        2.914    -0.030    28.748     8.792
    24   6 C        2.917    -0.035    28.877     8.812
    25   6 C        2.983     0.007    27.856     8.658
    26   6 C        2.976    -0.005    28.133     8.700
    27   6 C        2.976     0.017    27.629     8.622
    28   6 C        2.925    -0.029    28.718     8.788
    29   6 C        2.920    -0.038    28.943     8.822
    30   6 C        2.913     0.064    26.572     8.453
    31   7 N        2.796    -0.054    22.291     7.012
    32   6 C        3.083     0.038    27.049     8.526
    33   6 C        2.914    -0.034    28.858     8.809
    34   6 C        2.921    -0.045    29.124     8.850
    35   6 C        2.922     0.051    26.848     8.497
    36   7 N        1.832    -0.252    27.418     7.759
    37   6 C        3.071     0.071    26.342     8.415
    38   6 C        3.062    -0.036    28.828     8.805
    39   6 C        2.918    -0.014    28.364     8.733
    40   6 C        2.918    -0.053    29.309     8.878
    41   6 C        2.931     0.059    26.674     8.470
    42   7 N        1.832    -0.269    27.827     7.817
    43   6 C        3.101     0.142    24.787     8.159
    44   6 C        2.920    -0.044    29.092     8.845
    45   6 C        2.925    -0.031    28.765     8.795
    46   6 C        2.983     0.007    27.849     8.656
    47   6 C        2.917    -0.035    28.867     8.810
    48   6 C        2.914    -0.030    28.743     8.791
    49   6 C        2.914    -0.029    28.735     8.790
    50   6 C        2.917    -0.035    28.863     8.810
    51   6 C        2.983     0.007    27.848     8.656
    52   6 C        2.923    -0.029    28.734     8.790
    53   6 C        3.022    -0.019    28.462     8.751
    54   1 H        0.926     0.042     2.420     2.433
    55   1 H        0.926     0.047     2.363     2.404
    56   1 H        0.926     0.047     2.362     2.403
    57   1 H        0.926     0.043     2.404     2.424
    58   1 H        0.925     0.045     2.380     2.412
    59   1 H        0.925     0.049     2.337     2.391
    60   1 H        0.926     0.044     2.402     2.423
    61   1 H        0.926     0.047     2.363     2.404
    62   1 H        0.926     0.047     2.363     2.404
    63   1 H        0.926     0.047     2.358     2.401
    64   1 H        0.925     0.039     2.462     2.454
    65   1 H        0.926     0.044     2.396     2.420
    66   1 H        0.926     0.030     2.593     2.518
    67   1 H        0.926     0.031     2.572     2.508
    68   1 H        0.926     0.032     2.555     2.500
    69   1 H        0.926     0.034     2.535     2.490
    70   1 H        0.926     0.046     2.365     2.405
    71   1 H        0.926     0.050     2.321     2.382
    72   1 H        0.926     0.046     2.376     2.411
    73   1 H        0.926     0.046     2.371     2.408
    74   1 H        0.925     0.038     2.474     2.460
    75   1 H        0.926     0.050     2.319     2.381
    76   1 H        0.926     0.045     2.381     2.413
    77   1 H        0.925     0.043     2.415     2.430
    78   1 H        0.926     0.042     2.421     2.433
    79   1 H        0.926     0.045     2.384     2.414
    80   1 H        0.926     0.035     2.511     2.478
    81   1 H        0.926     0.033     2.544     2.494
    82   1 H        0.926     0.033     2.544     2.494
    83   1 H        0.926     0.032     2.563     2.504
    84   1 H        0.926     0.043     2.404     2.425
    85   1 H        0.925     0.038     2.471     2.458

molecular dipole:
                 x           y           z       tot (Debye)
 q only:        0.339       1.575      -0.669
   full:        0.322       1.466      -0.721       4.232

 projected vibrational frequencies (cm⁻¹)
eigval :       -0.00    -0.00     0.00     0.00     0.00     0.00
eigval :        4.17    10.20    10.46    15.10    20.36    26.86
eigval :       29.12    32.36    44.72    46.05    51.91    59.63
eigval :       63.74    68.69    73.04    81.62    97.44   104.29
eigval :      113.39   134.36   140.86   145.99   150.87   152.66
eigval :      174.42   191.65   209.67   210.90   214.65   222.96
eigval :      227.40   249.84   264.63   273.49   282.51   284.41
eigval :      317.54   337.94   348.28   362.43   365.70   366.56
eigval :      377.81   378.98   386.93   391.11   397.72   404.59
eigval :      411.79   420.08   422.22   427.69   443.15   443.83
eigval :      446.95   457.18   458.11   487.51   505.92   513.30
eigval :      520.28   531.09   542.61   554.63   579.16   583.86
eigval :      584.94   585.98   587.12   593.12   600.96   609.58
eigval :      611.49   625.06   641.64   642.91   656.08   659.17
eigval :      673.69   686.05   692.31   692.57   700.74   706.22
eigval :      714.45   725.01   735.13   739.15   740.43   744.21
eigval :      755.29   770.94   776.77   779.19   789.52   799.52
eigval :      802.97   817.70   871.68   873.41   875.18   877.02
eigval :      877.89   879.30   897.25   898.87   903.21   903.58
eigval :      905.28   905.47   911.45   912.13   914.42   916.33
eigval :      918.73   920.17   920.85   923.47   925.26   926.88
eigval :      927.69   928.17   930.12   931.89   932.66   934.02
eigval :      934.50   955.59   972.05   974.50  1010.56  1024.87
eigval :     1031.42  1075.35  1077.36  1079.84  1080.73  1082.42
eigval :     1088.05  1109.72  1114.86  1118.82  1121.59  1124.15
eigval :     1128.18  1128.62  1132.33  1133.96  1140.66  1144.55
eigval :     1168.08  1178.19  1178.94  1179.36  1182.89  1186.66
eigval :     1187.52  1189.95  1191.39  1209.70  1212.38  1215.91
eigval :     1219.02  1226.84  1234.79  1257.36  1259.26  1262.44
eigval :     1266.09  1266.71  1271.84  1281.24  1288.65  1309.12
eigval :     1310.21  1320.10  1320.70  1321.04  1329.63  1332.94
eigval :     1338.72  1348.25  1370.18  1375.32  1381.83  1385.09
eigval :     1400.53  1410.97  1417.58  1421.84  1423.19  1427.20
eigval :     1442.07  1450.65  1451.92  1462.80  1466.39  1477.46
eigval :     1485.99  1496.31  1525.27  1528.67  1540.54  1551.11
eigval :     1556.52  1560.61  1566.65  1581.30  1581.45  1582.00
eigval :     1584.32  1585.50  1586.04  1593.19  1596.78  1606.79
eigval :     1621.09  3047.51  3060.68  3060.87  3065.09  3065.39
eigval :     3066.31  3068.37  3069.91  3070.83  3074.95  3076.26
eigval :     3076.74  3077.78  3078.57  3079.84  3080.16  3081.51
eigval :     3081.92  3082.11  3084.82  3086.07  3086.91  3087.78
eigval :     3088.93  3092.26  3092.44  3092.76  3092.90  3094.54
eigval :     3099.24  3101.95  3110.80

   temp. (K)  partition function   enthalpy   heat capacity  entropy
                                   cal/mol     cal/K/mol   cal/K/mol   J/K/mol
 298.15  VIB  0.208E+22            25238.473    155.860    160.022
         ROT  0.148E+09              888.752      2.981     40.365
         INT  0.308E+30            26127.226    158.840    200.386
         TR   0.178E+29             1481.254      4.968     45.488
         TOT                       27608.4798   163.8086   245.8743  1028.7381

       T/K    H(0)-H(T)+PV         H(T)/Eh          T*S/Eh         G(T)/Eh
   ------------------------------------------------------------------------
    298.15    0.439969E-01    0.687018E+00    0.116823E+00    0.570195E+00
   ------------------------------------------------------------------------

         :::::::::::::::::::::::::::::::::::::::::::::::::::::
         ::                  THERMODYNAMIC                  ::
         :::::::::::::::::::::::::::::::::::::::::::::::::::::
         :: total free energy        -134.023059682917 Eh   ::
         ::.................................................::
         :: total energy             -134.593254816415 Eh   ::
         :: zero point energy           0.643021034892 Eh   ::
         :: G(RRHO) w/o ZPVE           -0.072825901393 Eh   ::
         :: G(RRHO) contrib.            0.570195133499 Eh   ::
         :::::::::::::::::::::::::::::::::::::::::::::::::::::

           -------------------------------------------------
          | TOTAL ENERGY             -134.593254816415 Eh   |
          | TOTAL ENTHALPY           -133.906236868507 Eh   |
          | TOTAL FREE ENERGY        -134.023059682917 Eh   |
          | GRADIENT NORM               0.000142107898 Eh/α |
          | HOMO-LUMO GAP               2.125826003230 eV   |
           -------------------------------------------------

 * finished run on 2025/08/25 at 07:48:04.646
