   * xtb version 6.7.1 (edcfbbe) compiled by 'albert@albert-system' on 2024-07-22

   ID    Z sym.   atoms
    1    8 O      1
    2   15 P      2
    3    6 C      3-30, 32-35, 37-41, 43-53
    4    7 N      31, 36, 42
    5    1 H      54-85

          program call               : xtb data2507/toluene/p-PO15NCzDPA/p-PO15NCzDPA_toluene_S0_finalOpt.xtbopt.xyz --gfn 2 --uhf 2 --gbsa toluene --ohess vtight --parallel 40 --molden --ceasefiles --namespace data2507/toluene/p-PO15NCzDPA/p-PO15NCzDPA_toluene_T1_preOpt
      * Solvation model:               GBSA
        Solvent                        toluene
        Solvent mass                       9.2140E+01 g/mol
          :  Hamiltonian                  GFN2-xTB          :
 * total energy  :  -134.5150177 Eh     change       -0.3601770E-08 Eh
 * total energy  :  -134.5209844 Eh     change       -0.5966649E-02 Eh
 * total energy  :  -134.5224123 Eh     change       -0.1427918E-02 Eh
 * total energy  :  -134.5225626 Eh     change       -0.1503172E-03 Eh
 * total energy  :  -134.5227637 Eh     change       -0.2010877E-03 Eh
 * total energy  :  -134.5228845 Eh     change       -0.1208006E-03 Eh
 * total energy  :  -134.5230373 Eh     change       -0.1528065E-03 Eh
 * total energy  :  -134.5231994 Eh     change       -0.1621111E-03 Eh
 * total energy  :  -134.5233030 Eh     change       -0.1036229E-03 Eh
 * total energy  :  -134.5233724 Eh     change       -0.6937717E-04 Eh
 * total energy  :  -134.5245692 Eh     change       -0.3857577E-06 Eh
 * total energy  :  -134.5245697 Eh     change       -0.4671221E-06 Eh
 * total energy  :  -134.5245702 Eh     change       -0.5248715E-06 Eh
 * total energy  :  -134.5245707 Eh     change       -0.5086668E-06 Eh
 * total energy  :  -134.5245712 Eh     change       -0.5528457E-06 Eh
 * total energy  :  -134.5245719 Eh     change       -0.6262767E-06 Eh
 * total energy  :  -134.5245725 Eh     change       -0.6388422E-06 Eh
 * total energy  :  -134.5245731 Eh     change       -0.5883787E-06 Eh
 * total energy  :  -134.5245731 Eh     change       -0.7250094E-08 Eh
   *** GEOMETRY OPTIMIZATION CONVERGED AFTER 68 ITERATIONS ***

 final structure:
================
85
 xtb: 6.7.1 (edcfbbe)
O            7.59388226431012       -2.08803971328099        0.84630825619085
P            7.17508301482451       -0.78554512229877        0.29048229602408
C            7.71487060933710        0.62598405770317        1.30989056351322
C            7.00433723171271        1.81713041072756        1.37998649547478
C            7.48104844437573        2.85488005450366        2.16133316405708
C            8.66315976281017        2.70619707536970        2.86968767634769
C            9.37095290457515        1.51636127948617        2.80324612572132
C            8.89624882670108        0.47675355388180        2.02360962712740
C            7.85494442045045       -0.46471649405580       -1.36724988494092
C            8.37685354573449       -1.54348461891894       -2.06739467045044
C            8.90880444894476       -1.35711967700204       -3.33144085466525
C            8.92035040647628       -0.09091057932534       -3.89422006034340
C            8.40434235637303        0.98871647059483       -3.19332477439739
C            7.87238838811443        0.80621704080176       -1.92965923077778
C            5.36691271267129       -0.61888155787793        0.16463015707665
C            4.69735638465144       -0.15195426576521       -0.96018829087948
C            3.32047944093672       -0.06288704780286       -0.95642597878843
C            2.57307649540659       -0.44746413345079        0.16399443178065
C            1.11748348301585       -0.35976387825641        0.15518048258901
C            0.33231437822377       -1.51822090827762        0.44462934806504
C            0.91788408900671       -2.76858720253697        0.66690615581166
C            0.15640190060707       -3.87467493601405        1.03826152770657
C           -1.20593665200898       -3.74344737800833        1.20225578558908
C           -1.82223923411912       -2.52473337812057        0.92517919726210
C           -1.09119062224031       -1.41724038707622        0.48543166289166
C           -1.72957558277698       -0.19295492075810        0.11213798972063
C           -3.18261592186427       -0.11203817407932        0.07931114294968
C           -3.87085554637763        0.89642704217032        0.76774715248096
C           -5.24620220045378        0.96867679993066        0.74270779580950
C           -5.98216397911793        0.04074554984966        0.00909375056839
N           -7.38368357842604        0.12180325359499       -0.02660702936986
C           -8.27217155035842       -0.93207120258607        0.03726566640533
C           -8.07533216924864       -2.28694321328573        0.26211729654786
C           -9.21019063659132       -3.08025209644402        0.29531844462168
C          -10.46973980008026       -2.50735899560817        0.11880380752703
N          -10.67877376378921       -1.21599720369228       -0.05967172211832
C           -9.60172375071499       -0.44318294250036       -0.09312506857039
C           -9.49835795945959        0.97882160315152       -0.23512600636483
C          -10.38902510046805        2.02861871203603       -0.40501228680686
C           -9.85223569670089        3.30196997414229       -0.50623640464665
C           -8.47152075523561        3.47584826571891       -0.44096151944367
N           -7.59785753890628        2.49427498751622       -0.28071576863890
C           -8.11191209869879        1.27901815676196       -0.17738619236397
C           -5.31378534458990       -0.95522698386305       -0.70131484397552
C           -3.93915429962240       -1.03587577618001       -0.65378057550397
C           -0.94272101142207        0.94965242146710       -0.23546455456744
C           -1.52515364225288        2.13445812993177       -0.69581969136927
C           -0.76152147937742        3.27254216090632       -0.94810477179360
C            0.60102105754918        3.24363663350026       -0.74113905393248
C            1.21541323091204        2.05560154079002       -0.35125428398366
C            0.48078349363725        0.88283668777855       -0.15057898789616
C            3.26203957066757       -0.92407795338660        1.28797788541505
C            4.63728563551545       -1.00343487675454        1.28652077871655
H            6.07768300320275        1.92264891978695        0.83313907077814
H            6.92806778325122        3.78107583799097        2.22021859082106
H            9.03143863408594        3.51838261786977        3.47904599977245
H           10.28976800030969        1.39895975535112        3.35902155420181
H            9.42373768952374       -0.46571319069088        1.96332094897065
H            8.36261596094077       -2.51941111641307       -1.60168663266515
H            9.31542445890861       -2.19719447141108       -3.87535002418619
H            9.33640535994661        0.05678739851460       -4.87996899467986
H            8.41962895666248        1.97552077976969       -3.63269837148430
H            7.47683179812989        1.64450159933842       -1.37433281637592
H            5.25583405472681        0.13356279853445       -1.84034572754437
H            2.80290589980952        0.27679416995639       -1.84198548573915
H            1.98365440551173       -2.88622287087112        0.54469625720740
H            0.64360389423670       -4.82311979331060        1.20955624328704
H           -1.80382737492320       -4.58119076604986        1.52930623902080
H           -2.88886332955196       -2.43606748189108        1.06117401726464
H           -3.31165965460633        1.60295716667239        1.36266920667460
H           -5.76417788957648        1.74290905105467        1.28574631198927
H           -7.09330207626429       -2.70648885712561        0.41965520026490
H           -9.12567686147151       -4.14223746860483        0.46452849152278
H          -11.36085745949935       -3.12053246067663        0.13597468470309
H          -11.45225315015910        1.84938874202643       -0.45485077997201
H          -10.49181976573302        4.16037218265236       -0.63703818174108
H           -8.03464656284940        4.46239009224808       -0.52142659836940
H           -5.87388619220379       -1.64627361308409       -1.31343610451783
H           -3.42989766873623       -1.79405624235233       -1.23015069753349
H           -2.58960015622073        2.17217437461641       -0.86782703927836
H           -1.24740266381265        4.17395125051739       -1.29077826809156
H            1.20006941153735        4.12899983837204       -0.89401036339648
H            2.28329265058279        2.04448022207858       -0.19725182878243
H            2.70483696126456       -1.20038908892559        2.17148330079173
H            5.17269120201242       -1.36810665590534        2.15363772689194

          :  Hamiltonian                  GFN2-xTB          :
         :: gradient norm              0.000054413963 Eh/a0 ::
         :: HOMO-LUMO gap              0.446222057572 eV    ::
         :: SCC energy              -136.966686090613 Eh    ::
         :: -> dispersion             -0.123909107247 Eh    ::
         :: -> Gsolv                  -0.062491570135 Eh    ::
         :: repulsion energy           2.442112985693 Eh    ::

    * Orbital Energies and Occupations

         #    Occupation            Energy/Eh            Energy/eV
      -------------------------------------------------------------
         1        2.0000           -0.6969209             -18.9642
       ...           ...                  ...                  ...
       114        2.0000           -0.4129044             -11.2357
       115        2.0000           -0.4113974             -11.1947
       116        2.0000           -0.4067847             -11.0692
       117        2.0000           -0.4054014             -11.0315
       118        2.0000           -0.4038083             -10.9882
       119        2.0000           -0.4029142             -10.9639
       120        2.0000           -0.4013975             -10.9226
       121        2.0000           -0.3991298             -10.8609
       122        2.0000           -0.3842464             -10.4559
       123        2.0000           -0.3817889             -10.3890
       124        2.0000           -0.3775604             -10.2739
       125        1.0000           -0.3533087              -9.6140
       126        0.9998           -0.2932692              -7.9803 (HOMO)
       127        0.0002           -0.2768708              -7.5340 (LUMO)
       128                         -0.2544428              -6.9237
       129                         -0.2532627              -6.8916
       130                         -0.2478006              -6.7430
       131                         -0.2438865              -6.6365
       132                         -0.2399175              -6.5285
       133                         -0.2353077              -6.4030
       134                         -0.2347890              -6.3889
       135                         -0.2333688              -6.3503
       136                         -0.2329577              -6.3391
       137                         -0.2298258              -6.2539
       ...                                ...                  ...
       249                          1.1650863              31.7036
      -------------------------------------------------------------
                  HL-Gap            0.0163984 Eh            0.4462 eV

     #   Z          covCN         q      C6AA      α(0)
     1   8 O        0.808    -0.402    21.743     6.251
     2  15 P        4.072     0.049   158.054    22.584
     3   6 C        2.920     0.011    27.772     8.642
     4   6 C        2.974    -0.025    28.622     8.776
     5   6 C        2.919    -0.027    28.667     8.780
     6   6 C        2.920    -0.024    28.603     8.770
     7   6 C        2.919    -0.026    28.662     8.779
     8   6 C        3.023    -0.019    28.460     8.751
     9   6 C        2.920     0.012    27.748     8.638
    10   6 C        3.020    -0.019    28.457     8.750
    11   6 C        2.919    -0.027    28.664     8.780
    12   6 C        2.920    -0.024    28.598     8.770
    13   6 C        2.919    -0.027    28.673     8.781
    14   6 C        2.978    -0.026    28.645     8.779
    15   6 C        2.919     0.008    27.852     8.654
    16   6 C        2.962    -0.028    28.693     8.786
    17   6 C        2.924    -0.031    28.783     8.798
    18   6 C        2.973     0.020    27.547     8.609
    19   6 C        2.972    -0.008    28.221     8.714
    20   6 C        2.977     0.010    27.798     8.648
    21   6 C        2.921    -0.036    28.899     8.816
    22   6 C        2.913    -0.030    28.761     8.794
    23   6 C        2.914    -0.030    28.758     8.794
    24   6 C        2.921    -0.038    28.939     8.822
    25   6 C        2.977     0.010    27.795     8.648
    26   6 C        2.972    -0.009    28.239     8.717
    27   6 C        2.972     0.016    27.655     8.626
    28   6 C        2.924    -0.030    28.739     8.791
    29   6 C        2.918    -0.039    28.965     8.825
    30   6 C        2.913     0.062    26.604     8.458
    31   7 N        2.795    -0.051    22.224     7.002
    32   6 C        3.082     0.038    27.066     8.529
    33   6 C        2.915    -0.034    28.845     8.807
    34   6 C        2.921    -0.045    29.127     8.850
    35   6 C        2.922     0.052    26.840     8.496
    36   7 N        1.832    -0.252    27.404     7.757
    37   6 C        3.071     0.071    26.337     8.415
    38   6 C        3.061    -0.035    28.819     8.803
    39   6 C        2.918    -0.014    28.360     8.733
    40   6 C        2.918    -0.052    29.295     8.876
    41   6 C        2.930     0.059    26.680     8.471
    42   7 N        1.832    -0.267    27.786     7.811
    43   6 C        3.099     0.141    24.808     8.162
    44   6 C        2.918    -0.045    29.111     8.848
    45   6 C        2.924    -0.031    28.781     8.798
    46   6 C        2.977     0.010    27.790     8.647
    47   6 C        2.921    -0.037    28.922     8.819
    48   6 C        2.914    -0.030    28.741     8.791
    49   6 C        2.913    -0.031    28.762     8.794
    50   6 C        2.921    -0.036    28.900     8.816
    51   6 C        2.977     0.010    27.798     8.648
    52   6 C        2.922    -0.031    28.772     8.796
    53   6 C        3.031    -0.020    28.471     8.752
    54   1 H        0.926     0.041     2.430     2.438
    55   1 H        0.926     0.046     2.371     2.408
    56   1 H        0.926     0.046     2.366     2.405
    57   1 H        0.926     0.043     2.406     2.426
    58   1 H        0.925     0.044     2.394     2.420
    59   1 H        0.925     0.047     2.355     2.400
    60   1 H        0.926     0.043     2.405     2.425
    61   1 H        0.926     0.046     2.367     2.406
    62   1 H        0.926     0.046     2.370     2.408
    63   1 H        0.926     0.046     2.366     2.405
    64   1 H        0.926     0.041     2.436     2.441
    65   1 H        0.926     0.045     2.384     2.415
    66   1 H        0.926     0.034     2.536     2.490
    67   1 H        0.926     0.032     2.559     2.502
    68   1 H        0.926     0.033     2.540     2.492
    69   1 H        0.926     0.037     2.487     2.466
    70   1 H        0.926     0.049     2.338     2.391
    71   1 H        0.926     0.051     2.304     2.374
    72   1 H        0.926     0.047     2.363     2.404
    73   1 H        0.926     0.046     2.366     2.405
    74   1 H        0.925     0.039     2.469     2.457
    75   1 H        0.926     0.051     2.313     2.378
    76   1 H        0.926     0.046     2.375     2.410
    77   1 H        0.925     0.043     2.408     2.427
    78   1 H        0.926     0.042     2.422     2.433
    79   1 H        0.926     0.047     2.360     2.402
    80   1 H        0.926     0.039     2.457     2.451
    81   1 H        0.926     0.035     2.523     2.484
    82   1 H        0.926     0.034     2.530     2.487
    83   1 H        0.926     0.036     2.509     2.477
    84   1 H        0.926     0.043     2.409     2.427
    85   1 H        0.925     0.040     2.451     2.448

molecular dipole:
                 x           y           z       tot (Debye)
 q only:       -0.087       1.587      -0.663
   full:       -0.115       1.471      -0.685       4.135

 projected vibrational frequencies (cm⁻¹)
eigval :       -0.00    -0.00    -0.00     0.00     0.00     0.00
eigval :        5.91     8.03    11.07    20.49    21.58    26.07
eigval :       30.43    38.44    43.25    46.81    55.55    59.59
eigval :       63.36    69.61    79.59    85.81    98.42   108.58
eigval :      135.12   136.69   142.17   147.60   154.26   155.51
eigval :      176.58   197.44   209.20   212.76   220.05   229.27
eigval :      233.74   254.07   267.78   281.75   283.33   285.78
eigval :      316.75   333.27   344.63   363.49   364.19   367.05
eigval :      368.30   373.79   381.14   384.53   396.64   401.08
eigval :      406.24   416.42   417.80   424.88   427.95   432.62
eigval :      442.88   456.70   469.39   481.75   499.41   512.82
eigval :      519.30   529.66   544.20   553.36   567.17   578.46
eigval :      579.90   585.19   585.56   586.35   600.25   602.23
eigval :      605.50   616.15   632.39   639.90   657.22   658.75
eigval :      669.94   675.22   679.16   690.24   694.16   706.70
eigval :      713.94   718.71   721.21   735.01   739.17   742.18
eigval :      743.46   752.01   757.45   778.27   790.14   799.81
eigval :      803.45   816.39   843.26   847.20   865.23   873.16
eigval :      877.87   879.28   888.47   891.14   893.45   899.39
eigval :      899.53   900.87   903.67   903.81   904.50   905.39
eigval :      912.84   915.82   916.74   921.29   922.69   924.91
eigval :      926.41   927.30   930.85   933.85   934.72   934.91
eigval :      944.77   952.06   971.60   974.47  1004.62  1019.40
eigval :     1030.92  1075.82  1077.17  1081.88  1088.93  1100.61
eigval :     1102.94  1110.27  1112.47  1113.58  1117.72  1120.51
eigval :     1123.71  1124.35  1126.30  1132.53  1134.35  1140.67
eigval :     1166.19  1177.76  1178.96  1179.46  1180.08  1180.21
eigval :     1187.07  1189.56  1190.64  1197.51  1202.95  1211.23
eigval :     1217.12  1228.87  1230.86  1252.01  1260.69  1264.42
eigval :     1266.77  1270.63  1277.31  1280.89  1287.11  1296.83
eigval :     1297.79  1310.15  1313.94  1319.92  1319.96  1327.21
eigval :     1329.63  1337.86  1338.34  1359.77  1368.77  1373.04
eigval :     1374.21  1389.22  1402.43  1406.70  1408.77  1419.71
eigval :     1421.53  1422.69  1449.87  1451.28  1453.39  1461.38
eigval :     1471.91  1476.98  1479.62  1485.57  1521.35  1526.26
eigval :     1530.33  1531.74  1550.15  1551.73  1557.91  1563.66
eigval :     1570.10  1578.64  1580.85  1582.19  1584.02  1585.19
eigval :     1592.56  3054.55  3059.80  3060.66  3063.86  3065.35
eigval :     3067.42  3069.57  3072.30  3074.29  3075.47  3076.57
eigval :     3077.53  3080.05  3080.07  3081.09  3082.07  3082.75
eigval :     3082.90  3082.96  3084.40  3087.60  3088.06  3091.88
eigval :     3092.27  3092.29  3094.51  3096.66  3098.30  3099.98
eigval :     3100.39  3102.39  3109.63

   temp. (K)  partition function   enthalpy   heat capacity  entropy
                                   cal/mol     cal/K/mol   cal/K/mol   J/K/mol
 298.15  VIB  0.729E+21            25255.858    157.060    159.085
         ROT  0.148E+09              888.752      2.981     40.372
         INT  0.108E+30            26144.610    160.041    199.456
         TR   0.178E+29             1481.254      4.968     45.488
         TOT                       27625.8641   165.0089   244.9445  1024.8479

       T/K    H(0)-H(T)+PV         H(T)/Eh          T*S/Eh         G(T)/Eh
   ------------------------------------------------------------------------
    298.15    0.440246E-01    0.684620E+00    0.116381E+00    0.568239E+00
   ------------------------------------------------------------------------

         :::::::::::::::::::::::::::::::::::::::::::::::::::::
         ::                  THERMODYNAMIC                  ::
         :::::::::::::::::::::::::::::::::::::::::::::::::::::
         :: total free energy        -133.956334186982 Eh   ::
         ::.................................................::
         :: total energy             -134.524573102600 Eh   ::
         :: zero point energy           0.640595344379 Eh   ::
         :: G(RRHO) w/o ZPVE           -0.072356428760 Eh   ::
         :: G(RRHO) contrib.            0.568238915619 Eh   ::
         :::::::::::::::::::::::::::::::::::::::::::::::::::::

           -------------------------------------------------
          | TOTAL ENERGY             -134.524573102600 Eh   |
          | TOTAL ENTHALPY           -133.839953141446 Eh   |
          | TOTAL FREE ENERGY        -133.956334186982 Eh   |
          | GRADIENT NORM               0.000054409720 Eh/α |
          | HOMO-LUMO GAP               0.446222686040 eV   |
           -------------------------------------------------

 * finished run on 2025/08/25 at 07:48:14.615
