   * xtb version 6.7.1 (edcfbbe) compiled by 'albert@albert-system' on 2024-07-22

   ID    Z sym.   atoms
    1    6 C      1-27, 29-39, 41, 45, 47
    2    7 N      28, 40, 42, 44, 46
    3    8 O      43
    4    1 H      48-72

          program call               : xtb data2507/toluene/ANOP-MeFAC/ANOP-MeFAC_toluene_T1_crest.xyz --gfn 2 --uhf 2 --gbsa toluene --ohess vtight --parallel 40 --molden --ceasefiles --namespace data2507/toluene/ANOP-MeFAC/ANOP-MeFAC_toluene_T1_finalOpt
      * Solvation model:               GBSA
        Solvent                        toluene
        Solvent mass                       9.2140E+01 g/mol
          :  Hamiltonian                  GFN2-xTB          :
 * total energy  :  -119.2453181 Eh     change       -0.9612791E-09 Eh
 * total energy  :  -119.2455996 Eh     change       -0.2815610E-03 Eh
 * total energy  :  -119.2458013 Eh     change       -0.2016456E-03 Eh
 * total energy  :  -119.2458139 Eh     change       -0.1264403E-04 Eh
 * total energy  :  -119.2458195 Eh     change       -0.5584475E-05 Eh
 * total energy  :  -119.2458222 Eh     change       -0.2640419E-05 Eh
 * total energy  :  -119.2458276 Eh     change       -0.5408398E-05 Eh
 * total energy  :  -119.2458331 Eh     change       -0.5589447E-05 Eh
 * total energy  :  -119.2458403 Eh     change       -0.7133375E-05 Eh
 * total energy  :  -119.2458492 Eh     change       -0.8879628E-05 Eh
 * total energy  :  -119.2459017 Eh     change       -0.6539201E-06 Eh
 * total energy  :  -119.2459023 Eh     change       -0.6163940E-06 Eh
 * total energy  :  -119.2459029 Eh     change       -0.5786055E-06 Eh
 * total energy  :  -119.2459034 Eh     change       -0.5043122E-06 Eh
 * total energy  :  -119.2459038 Eh     change       -0.4151928E-06 Eh
 * total energy  :  -119.2459042 Eh     change       -0.3738935E-06 Eh
 * total energy  :  -119.2459046 Eh     change       -0.3933849E-06 Eh
 * total energy  :  -119.2459050 Eh     change       -0.3731759E-06 Eh
 * total energy  :  -119.2459050 Eh     change       -0.1167008E-07 Eh
   *** GEOMETRY OPTIMIZATION CONVERGED AFTER 44 ITERATIONS ***

 final structure:
================
72
 xtb: 6.7.1 (edcfbbe)
C           -2.98364591019057        4.79743991269988        1.30689153867824
C           -2.31798608129014        3.48232492134298        1.06230755793642
C           -0.93882452999767        3.34326710159241        1.22537437591886
C           -0.31755950909545        2.13573491534439        1.00933504822554
C           -1.05503740037214        1.01139120134296        0.61108738381181
C           -2.44419740909479        1.13302234999194        0.47090349216907
C           -3.04688126018121        2.36168428469085        0.69320996547745
C           -3.30531570814432       -0.04139983463859        0.09222870076414
C           -4.43954037248732       -0.21209460844119        1.09065322521225
C           -4.35109592482495       -0.49363088270573        2.43579292640676
C           -5.52743520956476       -0.59913755698045        3.16761667888158
C           -6.76085603503164       -0.42553032861693        2.55801979997962
C           -6.85258155420051       -0.14208064350821        1.20413686981130
C           -5.68327381050206       -0.03455320204192        0.46884831396310
C           -5.46061926233365        0.25378889307328       -0.94053341740472
C           -6.35094515036760        0.50385522980270       -1.97218700288554
C           -5.84616657073511        0.75139579262766       -3.23931253040092
C           -4.47968274667562        0.74684955905405       -3.47490737774557
C           -3.58176866736960        0.49657329065893       -2.44476296397725
C           -4.08049036833890        0.25385252301976       -1.18445034559170
C           -2.52089662708592       -1.31605390133083       -0.06292531122912
C           -3.20041696499696       -2.48476773933995       -0.36964826141270
C           -2.54085512619599       -3.68773081501483       -0.57410270948295
C           -3.29218139280132       -4.94362038626194       -0.87495147259962
C           -1.14839382396206       -3.69460435624161       -0.48388857015276
C           -0.45151808966847       -2.54886644637930       -0.17848886184472
C           -1.12418262107769       -1.34185767068820        0.05967154222098
N           -0.42157479172031       -0.19678670320284        0.38634217311987
C            0.99322660707772       -0.25770246143806        0.49774046144473
C            1.57523135182659       -0.86124504124750        1.59444516412044
C            2.96665981797383       -0.96328710209012        1.76458707642637
C            3.78180903810941       -0.43865488041240        0.78954257478844
C            3.17912499005720        0.18198446054740       -0.33360570985860
C            4.15068737180954        0.66988341557697       -1.24098131857470
C            3.72543582145071        1.29979171660720       -2.38487381827704
C            2.33863891038759        1.42662532104549       -2.59991240239376
C            1.39798832281215        0.95278179965390       -1.71816056657232
C            1.80569815003358        0.30206410746170       -0.52941617406594
C            5.43914929051429        0.33890649483332       -0.65962113441834
N            6.65039241036380        0.58411700734302       -1.13602536705116
C            7.65333734601580        0.15730471883707       -0.37867455676343
N            8.94238827812941        0.24058372115238       -0.55786200400198
O            9.52247521477031       -0.36291440701668        0.52959812210019
N            8.58328247060432       -0.83583633067121        1.41260808743346
C            7.41932861755728       -0.54159640568704        0.90145765062183
N            6.19611223899946       -0.77581036022867        1.35648442004164
C            5.21139316435271       -0.33892822805412        0.58148851417206
H           -4.00896049211926        4.78952998143493        0.94703324610210
H           -2.43839779285972        5.59983304518942        0.81305037109139
H           -2.99481690288847        5.01572050873452        2.37516729641303
H           -0.34861590532915        4.19495322525096        1.52878025035774
H            0.74846656905964        2.05274392872949        1.15170758213431
H           -4.11773141185635        2.43906761970612        0.57488839430244
H           -3.39176182964683       -0.62672277096357        2.91430996832359
H           -5.48008547897821       -0.81838583026942        4.22416467797968
H           -7.66226605108929       -0.51159086153519        3.14729404942898
H           -7.81541279382322       -0.00676314030763        0.73456667143026
H           -7.41595155144425        0.50647418667187       -1.79441954724518
H           -6.52599075861988        0.94870870636184       -4.05547618273468
H           -4.10818618185437        0.93994848993704       -4.47051106926386
H           -2.51840568055526        0.48985138314167       -2.63376319289875
H           -4.27660893552897       -2.44723179315844       -0.45471304432202
H           -3.34100424494955       -5.56780098665780        0.01819324043771
H           -2.78911825175153       -5.51734512301248       -1.65076581070519
H           -4.30773689293677       -4.72455381260304       -1.19390127268252
H           -0.60631151827630       -4.61183140407416       -0.65913168736150
H            0.62537650808021       -2.57955876065350       -0.12639205040859
H            0.93052525983833       -1.27399879313945        2.35709865377212
H            3.37218744739153       -1.44074375454082        2.64264371006160
H            4.42802622883732        1.68987878058773       -3.10493028947801
H            2.00917301774416        1.92129554810416       -3.50154781445906
H            0.34718784081984        1.08212647869745       -1.92716683419736

          :  Hamiltonian                  GFN2-xTB          :
         :: gradient norm              0.000069484923 Eh/a0 ::
         :: HOMO-LUMO gap              0.446068947248 eV    ::
         :: SCC energy              -121.301791805501 Eh    ::
         :: -> dispersion             -0.110321535318 Eh    ::
         :: -> Gsolv                  -0.069048544858 Eh    ::
         :: repulsion energy           2.055886817150 Eh    ::

    * Orbital Energies and Occupations

         #    Occupation            Energy/Eh            Energy/eV
      -------------------------------------------------------------
         1        2.0000           -0.7526366             -20.4803
       ...           ...                  ...                  ...
        99        2.0000           -0.4264256             -11.6036
       100        2.0000           -0.4216868             -11.4747
       101        2.0000           -0.4207071             -11.4480
       102        2.0000           -0.4170751             -11.3492
       103        2.0000           -0.4133944             -11.2490
       104        2.0000           -0.4086750             -11.1206
       105        2.0000           -0.4083399             -11.1115
       106        2.0000           -0.4073841             -11.0855
       107        2.0000           -0.4051693             -11.0252
       108        2.0000           -0.3876287             -10.5479
       109        1.5454           -0.3664853              -9.9726
       110        1.4546           -0.3661396              -9.9632
       111        0.9998           -0.3272774              -8.9057 (HOMO)
       112        0.0002           -0.3108847              -8.4596 (LUMO)
       113                         -0.2596313              -7.0649
       114                         -0.2554349              -6.9507
       115                         -0.2482702              -6.7558
       116                         -0.2398447              -6.5265
       117                         -0.2389408              -6.5019
       118                         -0.2378758              -6.4729
       119                         -0.2330626              -6.3420
       120                         -0.2253922              -6.1332
       121                         -0.2198650              -5.9828
       122                         -0.2116463              -5.7592
       ...                                ...                  ...
       213                          0.7206526              19.6100
      -------------------------------------------------------------
                  HL-Gap            0.0163927 Eh            0.4461 eV

     #   Z          covCN         q      C6AA      α(0)
     1   6 C        3.758    -0.115    22.755     6.801
     2   6 C        2.964     0.025    27.441     8.592
     3   6 C        2.923    -0.036    28.901     8.816
     4   6 C        2.919    -0.049    29.212     8.863
     5   6 C        2.928     0.055    26.774     8.486
     6   6 C        2.980     0.003    27.952     8.672
     7   6 C        2.929    -0.041    29.023     8.835
     8   6 C        3.949     0.013    20.287     6.400
     9   6 C        3.056     0.004    27.890     8.661
    10   6 C        2.914    -0.032    28.805     8.801
    11   6 C        2.923    -0.030    28.760     8.795
    12   6 C        2.921    -0.031    28.768     8.796
    13   6 C        2.915    -0.033    28.823     8.804
    14   6 C        3.032     0.003    27.922     8.667
    15   6 C        3.032     0.003    27.917     8.667
    16   6 C        2.915    -0.033    28.819     8.803
    17   6 C        2.921    -0.031    28.769     8.796
    18   6 C        2.923    -0.031    28.766     8.795
    19   6 C        2.914    -0.032    28.809     8.802
    20   6 C        3.056     0.004    27.889     8.661
    21   6 C        2.980     0.003    27.949     8.672
    22   6 C        2.929    -0.041    29.022     8.835
    23   6 C        2.964     0.025    27.442     8.593
    24   6 C        3.758    -0.115    22.754     6.801
    25   6 C        2.923    -0.036    28.899     8.816
    26   6 C        2.919    -0.050    29.236     8.867
    27   6 C        2.926     0.054    26.780     8.487
    28   7 N        2.752    -0.014    21.529     6.891
    29   6 C        2.927     0.056    26.736     8.480
    30   6 C        2.921    -0.036    28.894     8.815
    31   6 C        2.912    -0.022    28.558     8.763
    32   6 C        3.036    -0.009    28.205     8.711
    33   6 C        3.139    -0.014    28.122     8.679
    34   6 C        3.035    -0.007    28.169     8.705
    35   6 C        2.912    -0.018    28.463     8.748
    36   6 C        2.919    -0.024    28.593     8.769
    37   6 C        2.917    -0.026    28.643     8.776
    38   6 C        2.977     0.009    27.820     8.652
    39   6 C        3.073     0.078    26.179     8.389
    40   7 N        1.831    -0.287    28.282     7.881
    41   6 C        2.982     0.197    23.807     8.004
    42   7 N        1.891    -0.215    26.524     7.635
    43   8 O        1.903    -0.081    15.538     5.323
    44   7 N        1.891    -0.217    26.562     7.640
    45   6 C        2.980     0.197    23.811     8.004
    46   7 N        1.831    -0.288    28.320     7.886
    47   6 C        3.071     0.076    26.240     8.399
    48   1 H        0.925     0.053     2.279     2.361
    49   1 H        0.925     0.058     2.217     2.328
    50   1 H        0.924     0.062     2.175     2.306
    51   1 H        0.926     0.049     2.338     2.391
    52   1 H        0.926     0.039     2.461     2.453
    53   1 H        0.926     0.047     2.357     2.401
    54   1 H        0.926     0.030     2.582     2.513
    55   1 H        0.926     0.036     2.505     2.475
    56   1 H        0.926     0.036     2.505     2.475
    57   1 H        0.926     0.038     2.479     2.462
    58   1 H        0.926     0.038     2.475     2.460
    59   1 H        0.926     0.036     2.502     2.474
    60   1 H        0.926     0.036     2.499     2.472
    61   1 H        0.926     0.029     2.603     2.523
    62   1 H        0.926     0.047     2.358     2.401
    63   1 H        0.924     0.063     2.166     2.302
    64   1 H        0.925     0.057     2.230     2.335
    65   1 H        0.925     0.054     2.276     2.359
    66   1 H        0.926     0.049     2.336     2.390
    67   1 H        0.926     0.040     2.443     2.444
    68   1 H        0.926     0.064     2.151     2.293
    69   1 H        0.926     0.058     2.223     2.332
    70   1 H        0.926     0.053     2.281     2.362
    71   1 H        0.926     0.061     2.191     2.315
    72   1 H        0.926     0.056     2.249     2.345

molecular dipole:
                 x           y           z       tot (Debye)
 q only:       -9.748       0.322      -0.421
   full:       -9.765       0.327      -0.418      24.858

 projected vibrational frequencies (cm⁻¹)
eigval :       -0.00    -0.00     0.00     0.00     0.00     0.00
eigval :      -54.92     4.03    18.55    21.64    29.39    42.75
eigval :       43.68    59.24    69.61    76.63    84.54    85.51
eigval :       90.47   104.59   109.32   132.56   134.58   143.83
eigval :      171.10   174.84   190.27   193.51   214.21   219.09
eigval :      222.42   261.07   266.40   278.82   287.38   293.53
eigval :      315.20   334.05   337.66   354.20   367.28   383.27
eigval :      390.30   391.62   410.98   416.76   425.13   431.24
eigval :      436.42   438.71   443.33   449.45   460.98   479.59
eigval :      497.99   503.53   510.36   530.24   532.72   534.24
eigval :      541.34   548.52   563.21   564.51   585.59   588.56
eigval :      601.79   606.43   610.54   628.39   642.67   647.87
eigval :      665.94   673.04   674.68   681.28   683.52   687.75
eigval :      714.51   726.89   730.08   733.47   752.63   757.41
eigval :      784.02   785.57   789.98   798.97   806.94   813.11
eigval :      816.57   840.33   864.60   869.93   874.79   876.90
eigval :      880.31   883.42   884.67   891.95   897.29   909.01
eigval :      911.26   913.27   918.26   920.44   921.96   924.06
eigval :      927.14   928.54   929.82   940.83   965.12   998.16
eigval :     1001.18  1009.53  1015.60  1021.50  1023.85  1030.11
eigval :     1040.77  1069.27  1072.92  1078.05  1089.65  1118.64
eigval :     1131.59  1141.71  1144.00  1146.30  1173.49  1175.03
eigval :     1181.31  1183.67  1190.42  1197.23  1200.29  1205.60
eigval :     1207.72  1216.57  1225.08  1234.53  1236.09  1251.92
eigval :     1255.81  1262.07  1269.57  1279.35  1282.14  1306.87
eigval :     1308.62  1316.04  1322.94  1328.38  1340.51  1342.57
eigval :     1347.13  1365.12  1374.56  1386.14  1398.20  1399.34
eigval :     1419.15  1421.60  1426.43  1427.06  1428.89  1433.24
eigval :     1456.88  1457.69  1463.41  1466.72  1468.43  1469.35
eigval :     1472.75  1474.10  1476.98  1482.78  1539.81  1553.71
eigval :     1570.39  1573.82  1579.18  1582.79  1584.14  1592.61
eigval :     1594.13  1595.97  1599.34  1600.61  1607.57  2994.68
eigval :     2998.26  3025.81  3030.25  3048.25  3049.43  3073.24
eigval :     3073.58  3076.92  3077.64  3083.85  3084.89  3085.07
eigval :     3086.19  3087.56  3087.92  3089.73  3091.01  3091.51
eigval :     3093.24  3096.31  3102.52  3104.94  3105.15  3105.99

   temp. (K)  partition function   enthalpy   heat capacity  entropy
                                   cal/mol     cal/K/mol   cal/K/mol   J/K/mol
 298.15  VIB  0.194E+16            20405.913    132.716    125.964
         ROT  0.651E+08              888.752      2.981     38.736
         INT  0.126E+24            21294.665    135.697    164.700
         TR   0.144E+29             1481.254      4.968     45.057
         TOT                       22775.9193   140.6648   209.7566   877.6217

       T/K    H(0)-H(T)+PV         H(T)/Eh          T*S/Eh         G(T)/Eh
   ------------------------------------------------------------------------
    298.15    0.362957E-01    0.571754E+00    0.996621E-01    0.472092E+00
   ------------------------------------------------------------------------

         :::::::::::::::::::::::::::::::::::::::::::::::::::::
         ::                  THERMODYNAMIC                  ::
         :::::::::::::::::::::::::::::::::::::::::::::::::::::
         :: total free energy        -118.773812719731 Eh   ::
         ::.................................................::
         :: total energy             -119.245904988635 Eh   ::
         :: zero point energy           0.535458671754 Eh   ::
         :: G(RRHO) w/o ZPVE           -0.063366402850 Eh   ::
         :: G(RRHO) contrib.            0.472092268904 Eh   ::
         :::::::::::::::::::::::::::::::::::::::::::::::::::::

           -------------------------------------------------
          | TOTAL ENERGY             -119.245904988635 Eh   |
          | TOTAL ENTHALPY           -118.674150579091 Eh   |
          | TOTAL FREE ENERGY        -118.773812719731 Eh   |
          | GRADIENT NORM               0.000069781493 Eh/α |
          | HOMO-LUMO GAP               0.446067851476 eV   |
           -------------------------------------------------

 * finished run on 2025/09/08 at 11:38:13.742
