   * xtb version 6.7.1 (edcfbbe) compiled by 'albert@albert-system' on 2024-07-22

   ID    Z sym.   atoms
    1    6 C      1-27, 29-39, 41, 45, 47
    2    7 N      28, 40, 42, 44, 46
    3    8 O      43
    4    1 H      48-72

          program call               : xtb data2507/toluene/ANOP-MeFAC/ANOP-MeFAC_toluene_S0_finalOpt.xtbopt.xyz --gfn 2 --uhf 2 --gbsa toluene --ohess vtight --parallel 40 --molden --ceasefiles --namespace data2507/toluene/ANOP-MeFAC/ANOP-MeFAC_toluene_T1_preOpt
      * Solvation model:               GBSA
        Solvent                        toluene
        Solvent mass                       9.2140E+01 g/mol
          :  Hamiltonian                  GFN2-xTB          :
 * total energy  :  -119.2395667 Eh     change       -0.1614286E-07 Eh
 * total energy  :  -119.2434446 Eh     change       -0.3877920E-02 Eh
 * total energy  :  -119.2449306 Eh     change       -0.1485966E-02 Eh
 * total energy  :  -119.2450364 Eh     change       -0.1058604E-03 Eh
 * total energy  :  -119.2451125 Eh     change       -0.7604929E-04 Eh
 * total energy  :  -119.2451344 Eh     change       -0.2186132E-04 Eh
 * total energy  :  -119.2451614 Eh     change       -0.2705862E-04 Eh
 * total energy  :  -119.2451875 Eh     change       -0.2612617E-04 Eh
 * total energy  :  -119.2452112 Eh     change       -0.2367324E-04 Eh
 * total energy  :  -119.2452341 Eh     change       -0.2286370E-04 Eh
 * total energy  :  -119.2459702 Eh     change       -0.1518475E-05 Eh
 * total energy  :  -119.2459713 Eh     change       -0.1098966E-05 Eh
 * total energy  :  -119.2459721 Eh     change       -0.8048479E-06 Eh
 * total energy  :  -119.2459729 Eh     change       -0.7219534E-06 Eh
 * total energy  :  -119.2459737 Eh     change       -0.8069696E-06 Eh
 * total energy  :  -119.2459746 Eh     change       -0.9906630E-06 Eh
 * total energy  :  -119.2459759 Eh     change       -0.1211147E-05 Eh
 * total energy  :  -119.2459772 Eh     change       -0.1359031E-05 Eh
 * total energy  :  -119.2459772 Eh     change       -0.8638978E-08 Eh
   *** GEOMETRY OPTIMIZATION CONVERGED AFTER 94 ITERATIONS ***

 final structure:
================
72
 xtb: 6.7.1 (edcfbbe)
C           -2.95757114786081        4.74272068257163        1.64454709325462
C           -2.30175831491536        3.44039672555584        1.31838367944491
C           -0.93005810943102        3.26800193822168        1.51026835663890
C           -0.31919933364607        2.07038149688708        1.22141427592197
C           -1.06054443196789        0.99087398611997        0.72004942104965
C           -2.44242095724905        1.14568259655851        0.54378072208426
C           -3.03407305395333        2.36386235088351        0.84039104597598
C           -3.30608810250253        0.01809727109364        0.04569612800251
C           -4.46375314841152       -0.22750498588823        1.00129996868723
C           -4.40804093132135       -0.63652969711290        2.31508269395186
C           -5.60118556951268       -0.79625884862301        3.00879860781109
C           -6.81892867983219       -0.54869828111098        2.39325057680229
C           -6.87768109348857       -0.13639468051159        1.07102650507633
C           -5.69152769513308        0.02383446458988        0.37332074420058
C           -5.43546764746486        0.43413469451348       -0.99968511002375
C           -6.30044990769671        0.78739276559725       -2.02270508298644
C           -5.76590956669418        1.13569322933314       -3.25343531507055
C           -4.39498147805037        1.12995443440442       -3.46166808959849
C           -3.52242870851377        0.77727527512711       -2.43969740623830
C           -4.05059041221419        0.43393772468735       -1.21529568359370
C           -2.53102950014651       -1.24822178539938       -0.19911775527022
C           -3.21195163624527       -2.37530084465207       -0.63275127730689
C           -2.55990181185853       -3.56745385715463       -0.91048037439657
C           -3.30755270554937       -4.77130472438174       -1.38403959039724
C           -1.17309821043008       -3.60718126662472       -0.75841159603926
C           -0.47502853297874       -2.50348685004539       -0.32772854209600
C           -1.14133630486902       -1.30794571261162       -0.02275551799356
N           -0.43736614610473       -0.20676403258913        0.42599331921943
C            0.97271804507045       -0.30203920613598        0.58086664101845
C            1.50642861745176       -0.94795722908704        1.67737182486344
C            2.88979135069917       -1.08835763800518        1.88506704971630
C            3.74589115507014       -0.56027177636238        0.94781083110716
C            3.19173964467276        0.10424913999366       -0.17525853645098
C            4.20060424028029        0.58757313061597       -1.04335830517006
C            3.82403017180521        1.25561278409410       -2.18265132208151
C            2.44759532576508        1.42624757836349       -2.43162177314323
C            1.47065965773660        0.95592594502773       -1.58830370522244
C            1.82803160693111        0.26458368509009       -0.40639606312584
C            5.46312504299011        0.20674548698027       -0.43591530766448
N            6.69290415313437        0.42912645221739       -0.87419255876849
C            7.66284400951430       -0.04477087573407       -0.10181300908918
N            8.95803523571447        0.00550619799584       -0.24536091030857
O            9.49158498469617       -0.64082784998703        0.84122904775183
N            8.51619547430617       -1.10798644360681        1.68734963658334
C            7.37501647284473       -0.76785551027320        1.15361096724413
N            6.13395690343127       -0.97855608481314        1.57043570747030
C            5.18303422368284       -0.49459634424541        0.78118865043750
H           -3.96810132541119        4.78187998976047        1.24682058308426
H           -2.38211187593341        5.57292882424638        1.23914701079373
H           -3.00750057427492        4.87333435564677        2.72599343774530
H           -0.33782136847986        4.08516151749169        1.89409913404756
H            0.74146664737348        1.95928416782796        1.38429752304622
H           -4.09909740870037        2.46856996390384        0.69403429919288
H           -3.46120924705845       -0.82923633823546        2.79808485965254
H           -5.57910255642911       -1.11622679357355        4.04019015737774
H           -7.73401965624856       -0.67909817161207        2.95254494320529
H           -7.82843838707764        0.05505441039235        0.59642039711109
H           -7.36880084350104        0.79118508176760       -1.86624946382086
H           -6.42563662804223        1.41404447082719       -4.06244939779124
H           -4.00006018508814        1.40299783931906       -4.42917308994098
H           -2.45551042168902        0.77068176904683       -2.60731587062480
H           -4.28301083292036       -2.31310088384125       -0.75821969589403
H           -3.10085529665805       -4.94621078340227       -2.44033758720708
H           -4.37903350366976       -4.63933959611592       -1.26040721635157
H           -2.99209142425793       -5.65757489925108       -0.83630562639149
H           -0.63732727951874       -4.51715939899648       -0.98379197177075
H            0.59750856554786       -2.55728864792457       -0.22624450161534
H            0.82976007597606       -1.36583381847131        2.40889580564690
H            3.25753992805768       -1.59916520972785        2.76094643078567
H            4.55647318093730        1.64319659219636       -2.87380839914457
H            2.15682308124635        1.95230886016733       -3.32879953332404
H            0.42968694022130        1.11720180671419       -1.82246291147222

          :  Hamiltonian                  GFN2-xTB          :
         :: gradient norm              0.000061772555 Eh/a0 ::
         :: HOMO-LUMO gap              0.443199872189 eV    ::
         :: SCC energy              -121.301960513277 Eh    ::
         :: -> dispersion             -0.110245032425 Eh    ::
         :: -> Gsolv                  -0.069141647850 Eh    ::
         :: repulsion energy           2.055983284703 Eh    ::

    * Orbital Energies and Occupations

         #    Occupation            Energy/Eh            Energy/eV
      -------------------------------------------------------------
         1        2.0000           -0.7525924             -20.4791
       ...           ...                  ...                  ...
        99        2.0000           -0.4265044             -11.6058
       100        2.0000           -0.4217564             -11.4766
       101        2.0000           -0.4207380             -11.4489
       102        2.0000           -0.4170203             -11.3477
       103        2.0000           -0.4134212             -11.2498
       104        2.0000           -0.4087036             -11.1214
       105        2.0000           -0.4084104             -11.1134
       106        2.0000           -0.4074272             -11.0867
       107        2.0000           -0.4051736             -11.0253
       108        2.0000           -0.3876397             -10.5482
       109        1.5449           -0.3664292              -9.9710
       110        1.4551           -0.3660869              -9.9617
       111        0.9998           -0.3272617              -8.9052 (HOMO)
       112        0.0002           -0.3109743              -8.4620 (LUMO)
       113                         -0.2596298              -7.0649
       114                         -0.2555577              -6.9541
       115                         -0.2482825              -6.7561
       116                         -0.2398596              -6.5269
       117                         -0.2388796              -6.5002
       118                         -0.2379016              -6.4736
       119                         -0.2330852              -6.3426
       120                         -0.2254036              -6.1335
       121                         -0.2195510              -5.9743
       122                         -0.2117023              -5.7607
       ...                                ...                  ...
       213                          0.7206450              19.6097
      -------------------------------------------------------------
                  HL-Gap            0.0162875 Eh            0.4432 eV

     #   Z          covCN         q      C6AA      α(0)
     1   6 C        3.758    -0.115    22.755     6.801
     2   6 C        2.964     0.025    27.442     8.592
     3   6 C        2.923    -0.036    28.899     8.816
     4   6 C        2.919    -0.049    29.213     8.863
     5   6 C        2.928     0.055    26.770     8.485
     6   6 C        2.980     0.003    27.953     8.673
     7   6 C        2.929    -0.041    29.022     8.835
     8   6 C        3.948     0.013    20.287     6.400
     9   6 C        3.056     0.004    27.890     8.661
    10   6 C        2.914    -0.032    28.806     8.801
    11   6 C        2.923    -0.030    28.761     8.795
    12   6 C        2.921    -0.031    28.769     8.796
    13   6 C        2.915    -0.033    28.823     8.804
    14   6 C        3.033     0.003    27.922     8.667
    15   6 C        3.032     0.003    27.917     8.667
    16   6 C        2.915    -0.033    28.818     8.803
    17   6 C        2.921    -0.031    28.768     8.796
    18   6 C        2.923    -0.031    28.765     8.795
    19   6 C        2.914    -0.032    28.807     8.801
    20   6 C        3.056     0.004    27.889     8.661
    21   6 C        2.980     0.003    27.950     8.672
    22   6 C        2.929    -0.041    29.020     8.834
    23   6 C        2.964     0.025    27.443     8.593
    24   6 C        3.758    -0.115    22.754     6.801
    25   6 C        2.923    -0.036    28.898     8.816
    26   6 C        2.919    -0.050    29.233     8.866
    27   6 C        2.927     0.055    26.776     8.486
    28   7 N        2.753    -0.015    21.536     6.892
    29   6 C        2.928     0.056    26.735     8.480
    30   6 C        2.920    -0.036    28.888     8.814
    31   6 C        2.912    -0.022    28.558     8.763
    32   6 C        3.036    -0.009    28.202     8.711
    33   6 C        3.139    -0.014    28.120     8.678
    34   6 C        3.035    -0.007    28.168     8.705
    35   6 C        2.912    -0.018    28.461     8.748
    36   6 C        2.919    -0.024    28.592     8.769
    37   6 C        2.917    -0.026    28.641     8.776
    38   6 C        2.977     0.009    27.819     8.652
    39   6 C        3.073     0.078    26.177     8.389
    40   7 N        1.831    -0.287    28.287     7.881
    41   6 C        2.982     0.197    23.807     8.004
    42   7 N        1.891    -0.215    26.524     7.635
    43   8 O        1.903    -0.081    15.538     5.323
    44   7 N        1.891    -0.217    26.565     7.641
    45   6 C        2.980     0.197    23.812     8.004
    46   7 N        1.831    -0.289    28.327     7.887
    47   6 C        3.071     0.076    26.243     8.400
    48   1 H        0.925     0.053     2.279     2.361
    49   1 H        0.925     0.058     2.218     2.329
    50   1 H        0.924     0.062     2.174     2.306
    51   1 H        0.926     0.049     2.337     2.391
    52   1 H        0.926     0.039     2.461     2.453
    53   1 H        0.926     0.047     2.356     2.400
    54   1 H        0.926     0.030     2.583     2.513
    55   1 H        0.926     0.036     2.504     2.475
    56   1 H        0.926     0.036     2.505     2.475
    57   1 H        0.926     0.038     2.478     2.462
    58   1 H        0.926     0.038     2.475     2.460
    59   1 H        0.926     0.036     2.502     2.474
    60   1 H        0.926     0.036     2.499     2.472
    61   1 H        0.926     0.029     2.603     2.523
    62   1 H        0.926     0.047     2.359     2.402
    63   1 H        0.924     0.062     2.175     2.306
    64   1 H        0.925     0.053     2.281     2.362
    65   1 H        0.925     0.059     2.216     2.328
    66   1 H        0.926     0.049     2.335     2.389
    67   1 H        0.926     0.040     2.450     2.448
    68   1 H        0.926     0.064     2.151     2.294
    69   1 H        0.926     0.058     2.223     2.331
    70   1 H        0.926     0.053     2.280     2.361
    71   1 H        0.926     0.061     2.191     2.315
    72   1 H        0.926     0.056     2.251     2.346

molecular dipole:
                 x           y           z       tot (Debye)
 q only:       -9.719       0.592      -0.731
   full:       -9.735       0.599      -0.740      24.861

 projected vibrational frequencies (cm⁻¹)
eigval :       -0.00    -0.00    -0.00    -0.00     0.00     0.00
eigval :        2.77    17.32    20.07    23.12    29.23    39.91
eigval :       41.71    59.58    66.79    68.65    83.39    84.24
eigval :       92.78   105.58   108.97   132.12   133.74   140.54
eigval :      170.21   174.47   189.54   193.74   213.59   217.53
eigval :      222.35   262.27   266.36   278.58   285.67   293.29
eigval :      315.71   334.92   337.20   354.16   367.62   384.70
eigval :      387.73   390.21   410.80   414.46   425.62   431.14
eigval :      437.06   438.09   444.55   449.15   460.56   479.50
eigval :      497.48   503.45   510.36   529.87   533.01   533.88
eigval :      541.47   547.20   563.10   564.85   585.68   588.28
eigval :      601.80   605.97   610.17   628.08   643.72   647.95
eigval :      666.16   674.11   674.58   681.09   682.87   687.28
eigval :      716.02   726.57   729.47   733.70   752.28   757.25
eigval :      783.83   785.77   790.62   799.33   806.94   813.64
eigval :      818.14   838.69   864.71   869.96   875.80   876.23
eigval :      879.27   884.53   885.21   892.31   897.76   908.66
eigval :      909.30   911.69   917.36   920.92   921.98   923.45
eigval :      927.08   929.06   932.52   940.93   964.67   997.81
eigval :     1000.90  1009.63  1015.53  1022.49  1025.33  1029.61
eigval :     1040.91  1069.17  1072.33  1077.75  1089.34  1118.96
eigval :     1132.39  1140.57  1143.57  1146.08  1172.94  1174.14
eigval :     1180.26  1182.55  1190.04  1197.02  1198.64  1204.80
eigval :     1207.20  1218.17  1225.39  1233.85  1235.45  1251.60
eigval :     1254.82  1262.22  1269.89  1278.84  1281.76  1307.89
eigval :     1308.29  1317.24  1322.67  1328.15  1341.26  1342.68
eigval :     1346.93  1364.88  1374.07  1386.56  1397.19  1400.64
eigval :     1419.06  1421.56  1426.35  1426.61  1428.63  1433.87
eigval :     1456.85  1457.25  1465.41  1467.63  1468.59  1468.96
eigval :     1472.17  1473.88  1478.11  1482.97  1539.52  1553.73
eigval :     1570.52  1573.88  1579.05  1582.69  1583.86  1592.73
eigval :     1594.11  1595.84  1599.23  1600.36  1607.68  2997.78
eigval :     2998.05  3025.30  3027.59  3049.25  3049.61  3072.65
eigval :     3073.43  3076.54  3077.18  3083.71  3084.64  3085.85
eigval :     3086.90  3087.34  3087.61  3088.97  3089.45  3091.26
eigval :     3092.95  3096.35  3102.21  3104.35  3105.50  3106.20

   temp. (K)  partition function   enthalpy   heat capacity  entropy
                                   cal/mol     cal/K/mol   cal/K/mol   J/K/mol
 298.15  VIB  0.398E+17            21003.326    133.575    131.146
         ROT  0.651E+08              888.752      2.981     38.736
         INT  0.259E+25            21892.078    136.556    169.881
         TR   0.144E+29             1481.254      4.968     45.057
         TOT                       23373.3319   141.5243   214.9381   899.3010

       T/K    H(0)-H(T)+PV         H(T)/Eh          T*S/Eh         G(T)/Eh
   ------------------------------------------------------------------------
    298.15    0.372478E-01    0.572666E+00    0.102124E+00    0.470542E+00
   ------------------------------------------------------------------------

         :::::::::::::::::::::::::::::::::::::::::::::::::::::
         ::                  THERMODYNAMIC                  ::
         :::::::::::::::::::::::::::::::::::::::::::::::::::::
         :: total free energy        -118.775435081301 Eh   ::
         ::.................................................::
         :: total energy             -119.245977231807 Eh   ::
         :: zero point energy           0.535418398666 Eh   ::
         :: G(RRHO) w/o ZPVE           -0.064876248161 Eh   ::
         :: G(RRHO) contrib.            0.470542150505 Eh   ::
         :::::::::::::::::::::::::::::::::::::::::::::::::::::

           -------------------------------------------------
          | TOTAL ENERGY             -119.245977231807 Eh   |
          | TOTAL ENTHALPY           -118.673311057898 Eh   |
          | TOTAL FREE ENERGY        -118.775435081301 Eh   |
          | GRADIENT NORM               0.000062079951 Eh/α |
          | HOMO-LUMO GAP               0.443204551607 eV   |
           -------------------------------------------------

 * finished run on 2025/09/08 at 11:32:43.957
