   * xtb version 6.7.1 (edcfbbe) compiled by 'albert@albert-system' on 2024-07-22

   ID    Z sym.   atoms
    1    6 C      1-27, 29-39, 41, 45, 47
    2    7 N      28, 40, 42, 44, 46
    3    8 O      43
    4    1 H      48-72

          program call               : xtb data2507/toluene/ANOP-MeFAC/ANOP-MeFAC_toluene_S0_crest.xyz --gfn 2 --gbsa toluene --ohess vtight --parallel 40 --molden --ceasefiles --namespace data2507/toluene/ANOP-MeFAC/ANOP-MeFAC_toluene_S0_finalOpt
      * Solvation model:               GBSA
        Solvent                        toluene
        Solvent mass                       9.2140E+01 g/mol
          :  Hamiltonian                  GFN2-xTB          :
 * total energy  :  -119.2770481 Eh     change       -0.3625672E-08 Eh
 * total energy  :  -119.2771443 Eh     change       -0.9621327E-04 Eh
 * total energy  :  -119.2771777 Eh     change       -0.3336228E-04 Eh
 * total energy  :  -119.2771829 Eh     change       -0.5238640E-05 Eh
 * total energy  :  -119.2771871 Eh     change       -0.4143159E-05 Eh
 * total energy  :  -119.2771909 Eh     change       -0.3866057E-05 Eh
 * total energy  :  -119.2771952 Eh     change       -0.4306780E-05 Eh
 * total energy  :  -119.2772002 Eh     change       -0.4990619E-05 Eh
 * total energy  :  -119.2772057 Eh     change       -0.5449337E-05 Eh
 * total energy  :  -119.2772103 Eh     change       -0.4588366E-05 Eh
 * total energy  :  -119.2772343 Eh     change       -0.5015241E-06 Eh
 * total energy  :  -119.2772349 Eh     change       -0.5449657E-06 Eh
 * total energy  :  -119.2772355 Eh     change       -0.6803674E-06 Eh
 * total energy  :  -119.2772363 Eh     change       -0.7903105E-06 Eh
 * total energy  :  -119.2772372 Eh     change       -0.8249347E-06 Eh
 * total energy  :  -119.2772381 Eh     change       -0.8975802E-06 Eh
 * total energy  :  -119.2772390 Eh     change       -0.9952335E-06 Eh
 * total energy  :  -119.2772401 Eh     change       -0.1069128E-05 Eh
 * total energy  :  -119.2772401 Eh     change       -0.1114446E-07 Eh
   *** GEOMETRY OPTIMIZATION CONVERGED AFTER 44 ITERATIONS ***

 final structure:
================
72
 xtb: 6.7.1 (edcfbbe)
C           -2.84672936706103        4.59228425664748        1.92460036115233
C           -2.22140891933686        3.27948772134460        1.56824359437940
C           -0.86949438300148        3.04943829360604        1.80595148915756
C           -0.28617656146312        1.84647225223996        1.47397170471229
C           -1.03042744864031        0.82971255046590        0.86653588364364
C           -2.39783293329043        1.02878319316680        0.67809537067055
C           -2.96620475168312        2.24843560051949        1.02000052239279
C           -3.27828765986560       -0.05343258208584        0.10894310428716
C           -4.58549536889262       -0.14937182454174        0.87052667278109
C           -4.77729044410705       -0.46973577333842        2.19674926174820
C           -6.07492637652334       -0.49548817224450        2.69178326914039
C           -7.15407324478968       -0.20486197244926        1.87042019451894
C           -6.96547768527977        0.11927732078691        0.53574159295000
C           -5.67341885701422        0.14688425127002        0.03646884952542
C           -5.16693943694034        0.44873136879186       -1.29453688596626
C           -5.82478547009413        0.79700914865864       -2.46294099760724
C           -5.07309720183533        1.03185380190826       -3.60374118609803
C           -3.69119209579623        0.91810919024280       -3.58119089533544
C           -3.02678811456414        0.56678667797504       -2.41312683007954
C           -3.76982461104231        0.33677362446420       -1.27655309248013
C           -2.57303752786210       -1.38539493446910        0.03597511467424
C           -3.32086796591884       -2.50839042295705       -0.28435503424760
C           -2.74022465951886       -3.75206378909151       -0.48247059131740
C           -3.58029831209465       -4.94266735223004       -0.82705808609819
C           -1.35658188069126       -3.83841572612061       -0.39721076349524
C           -0.59336342903878       -2.73450671570605       -0.07706072708943
C           -1.18725078276479       -1.49809627490933        0.18673253163895
N           -0.41963825269302       -0.37970726912360        0.52528803583036
C            0.97731574819867       -0.45410220701653        0.56843764391472
C            1.61719147688863       -1.33651244897926        1.43194645110919
C            3.00622224572458       -1.45737397180571        1.51844732571633
C            3.78662901982315       -0.67127572093263        0.69548035276077
C            3.14181271672250        0.22994270324349       -0.18994185906898
C            4.06408977760849        0.95776005182556       -0.97801558638801
C            3.59314969729634        1.86360242033225       -1.89959322468923
C            2.20214240094933        2.01970567965622       -2.01933652190121
C            1.30487242877296        1.31506427130038       -1.24920350916747
C            1.75785259419136        0.38399469753938       -0.28735570625763
C            5.38122795925876        0.51044125679895       -0.56873920352945
N            6.53657907469613        0.90989597265330       -1.01663854598620
C            7.56515821033992        0.27821878766983       -0.40843507347114
N            8.85536632526285        0.42615401463407       -0.60329474821120
O            9.45183685219312       -0.42601007368146        0.24055656566278
N            8.58863974083767       -1.13146815449660        0.98664660121684
C            7.39000690792624       -0.73063099212129        0.62179999785238
N            6.18687685891065       -1.13441420096561        1.07484424169715
C            5.20079141869453       -0.51233885037016        0.47970768711877
H           -3.88609659231645        4.62636306821612        1.60866334179056
H           -2.30763257427992        5.41129835183784        1.45040176243286
H           -2.80615898160878        4.74900109284224        3.00239543307297
H           -0.26768177022041        3.81917834444913        2.26634342680071
H            0.75851905383839        1.68979746792558        1.69459545370172
H           -4.02436361519953        2.38764988984443        0.85215736097402
H           -3.93762712753696       -0.69524471758964        2.83831510156017
H           -6.24538910385522       -0.74423859037887        3.72915406718425
H           -8.15488096916228       -0.23089616824130        2.27705857460909
H           -7.80902736566491        0.34588119055847       -0.09947921560704
H           -6.90095147581328        0.88441678285607       -2.48634652679587
H           -5.56960584997380        1.30553978936626       -4.52362561952591
H           -3.12477441621159        1.10315143462804       -4.48226797089460
H           -1.95074998475693        0.46978369169273       -2.40247616222726
H           -4.39083236016995       -2.40200963481346       -0.39175618277572
H           -3.85090339557668       -4.91617089982790       -1.88328532101785
H           -4.50109265283434       -4.94371238830122       -0.24728369018892
H           -3.04016504813610       -5.86697152325124       -0.63745225477917
H           -0.86282468583069       -4.78002184355884       -0.58804295139791
H            0.47954486373567       -2.83822710741069       -0.04742383103005
H            1.00569349880069       -1.93853369799793        2.08828796567607
H            3.45255930801458       -2.14086596950866        2.22334153020711
H            4.26910143202463        2.43504753760768       -2.51598100418910
H            1.82651846760950        2.72169924548008       -2.74831850396306
H            0.24597807264075        1.47832874686015       -1.37879194208819

          :  Hamiltonian                  GFN2-xTB          :
         :: gradient norm              0.000063281525 Eh/a0 ::
         :: HOMO-LUMO gap              0.424328618489 eV    ::
         :: SCC energy              -121.328758645158 Eh    ::
         :: -> dispersion             -0.111277826938 Eh    ::
         :: -> Gsolv                  -0.056822386472 Eh    ::
         :: repulsion energy           2.051518514865 Eh    ::

    * Orbital Energies and Occupations

         #    Occupation            Energy/Eh            Energy/eV
      -------------------------------------------------------------
         1        2.0000           -0.7970076             -21.6877
       ...           ...                  ...                  ...
        98        2.0000           -0.4270676             -11.6211
        99        2.0000           -0.4249031             -11.5622
       100        2.0000           -0.4235291             -11.5248
       101        2.0000           -0.4172013             -11.3526
       102        2.0000           -0.4148220             -11.2879
       103        2.0000           -0.4125343             -11.2256
       104        2.0000           -0.4037735             -10.9872
       105        2.0000           -0.4023057             -10.9473
       106        2.0000           -0.4000177             -10.8850
       107        2.0000           -0.3982231             -10.8362
       108        2.0000           -0.3826976             -10.4137
       109        2.0000           -0.3826178             -10.4116
       110        1.9995           -0.3585071              -9.7555 (HOMO)
       111        0.0005           -0.3429130              -9.3311 (LUMO)
       112                         -0.3191947              -8.6857
       113                         -0.2653309              -7.2200
       114                         -0.2593183              -7.0564
       115                         -0.2551959              -6.9442
       116                         -0.2368867              -6.4460
       117                         -0.2338613              -6.3637
       118                         -0.2296008              -6.2478
       119                         -0.2290249              -6.2321
       120                         -0.2275126              -6.1909
       121                         -0.2195703              -5.9748
       ...                                ...                  ...
       213                          0.7249938              19.7281
      -------------------------------------------------------------
                  HL-Gap            0.0155941 Eh            0.4243 eV

     #   Z          covCN         q      C6AA      α(0)
     1   6 C        3.758    -0.111    22.683     6.790
     2   6 C        2.964     0.014    27.701     8.633
     3   6 C        2.925    -0.042    29.032     8.836
     4   6 C        2.922    -0.054    29.352     8.884
     5   6 C        2.928     0.050    26.880     8.503
     6   6 C        2.982    -0.003    28.104     8.696
     7   6 C        2.931    -0.044    29.097     8.846
     8   6 C        3.950     0.013    20.298     6.402
     9   6 C        3.055     0.003    27.912     8.664
    10   6 C        2.914    -0.032    28.808     8.801
    11   6 C        2.922    -0.032    28.795     8.800
    12   6 C        2.921    -0.033    28.812     8.802
    13   6 C        2.914    -0.035    28.864     8.810
    14   6 C        3.033     0.001    27.966     8.674
    15   6 C        3.033     0.002    27.955     8.672
    16   6 C        2.915    -0.034    28.847     8.807
    17   6 C        2.921    -0.033    28.811     8.802
    18   6 C        2.922    -0.033    28.811     8.802
    19   6 C        2.914    -0.034    28.853     8.808
    20   6 C        3.058     0.002    27.918     8.665
    21   6 C        2.982    -0.004    28.106     8.696
    22   6 C        2.933    -0.045    29.111     8.849
    23   6 C        2.964     0.013    27.725     8.637
    24   6 C        3.757    -0.111    22.674     6.789
    25   6 C        2.925    -0.041    29.026     8.835
    26   6 C        2.921    -0.058    29.436     8.897
    27   6 C        2.921     0.050    26.888     8.503
    28   7 N        2.750    -0.043    22.080     6.979
    29   6 C        2.923     0.070    26.431     8.431
    30   6 C        2.920    -0.040    28.995     8.830
    31   6 C        2.910    -0.015    28.395     8.738
    32   6 C        3.027    -0.019    28.448     8.749
    33   6 C        3.133    -0.002    27.851     8.639
    34   6 C        3.025    -0.012    28.280     8.723
    35   6 C        2.911    -0.012    28.313     8.725
    36   6 C        2.919    -0.023    28.576     8.766
    37   6 C        2.918    -0.018    28.450     8.747
    38   6 C        2.975     0.009    27.822     8.652
    39   6 C        3.102     0.101    25.644     8.298
    40   7 N        1.829    -0.274    27.960     7.836
    41   6 C        3.043     0.172    24.277     8.081
    42   7 N        1.911    -0.163    25.324     7.461
    43   8 O        1.933    -0.010    14.585     5.158
    44   7 N        1.911    -0.168    25.441     7.478
    45   6 C        3.038     0.173    24.250     8.077
    46   7 N        1.829    -0.283    28.189     7.867
    47   6 C        3.096     0.095    25.774     8.320
    48   1 H        0.925     0.046     2.369     2.407
    49   1 H        0.925     0.052     2.298     2.370
    50   1 H        0.925     0.052     2.291     2.367
    51   1 H        0.926     0.039     2.461     2.453
    52   1 H        0.926     0.029     2.604     2.524
    53   1 H        0.926     0.037     2.491     2.468
    54   1 H        0.926     0.028     2.612     2.527
    55   1 H        0.926     0.033     2.547     2.496
    56   1 H        0.926     0.033     2.550     2.497
    57   1 H        0.926     0.034     2.536     2.490
    58   1 H        0.926     0.035     2.522     2.484
    59   1 H        0.926     0.033     2.541     2.493
    60   1 H        0.926     0.034     2.537     2.491
    61   1 H        0.926     0.026     2.646     2.544
    62   1 H        0.926     0.037     2.492     2.469
    63   1 H        0.924     0.052     2.292     2.368
    64   1 H        0.925     0.049     2.332     2.388
    65   1 H        0.925     0.047     2.356     2.400
    66   1 H        0.926     0.038     2.473     2.459
    67   1 H        0.926     0.035     2.516     2.481
    68   1 H        0.926     0.068     2.112     2.273
    69   1 H        0.926     0.065     2.146     2.291
    70   1 H        0.926     0.064     2.149     2.292
    71   1 H        0.926     0.067     2.123     2.278
    72   1 H        0.926     0.063     2.166     2.301

molecular dipole:
                 x           y           z       tot (Debye)
 q only:       -5.472       0.473      -0.254
   full:       -5.591       0.487      -0.267      14.281

 projected vibrational frequencies (cm⁻¹)
eigval :       -0.00    -0.00    -0.00     0.00     0.00     0.00
eigval :        8.89    18.61    29.07    31.03    40.40    45.21
eigval :       50.94    59.74    70.60    79.94    83.43    84.52
eigval :       97.50   107.92   119.43   134.11   135.82   153.23
eigval :      174.97   182.88   185.62   191.14   210.84   220.34
eigval :      226.77   262.35   274.18   280.81   287.44   296.51
eigval :      325.37   337.19   340.22   354.33   369.70   383.29
eigval :      389.68   393.11   412.19   421.22   423.37   429.63
eigval :      433.43   440.74   446.96   453.99   466.21   484.20
eigval :      497.95   503.77   511.25   528.39   535.34   545.70
eigval :      550.22   561.66   571.67   585.37   588.98   601.67
eigval :      609.51   611.91   620.03   630.57   650.95   655.94
eigval :      670.78   679.57   680.49   685.85   687.64   713.59
eigval :      731.48   732.49   752.84   757.04   759.43   767.80
eigval :      784.15   786.47   796.24   802.67   806.37   814.20
eigval :      818.18   849.41   870.29   877.99   879.49   881.63
eigval :      887.61   897.57   898.97   901.26   910.64   910.76
eigval :      912.57   918.73   920.19   924.01   926.25   929.05
eigval :      930.49   935.56   946.55   967.97   971.65   999.55
eigval :     1004.31  1017.78  1029.31  1031.63  1033.29  1034.57
eigval :     1050.45  1073.09  1074.30  1078.74  1092.57  1100.87
eigval :     1132.61  1140.94  1143.85  1147.60  1175.06  1176.66
eigval :     1183.34  1186.11  1194.12  1200.07  1207.80  1209.60
eigval :     1217.16  1234.36  1237.89  1238.03  1255.66  1257.63
eigval :     1265.82  1273.05  1279.00  1282.77  1301.38  1310.89
eigval :     1316.46  1324.09  1330.29  1336.18  1341.16  1346.93
eigval :     1356.89  1365.08  1388.93  1400.90  1403.21  1413.94
eigval :     1418.57  1422.33  1424.97  1427.47  1429.92  1436.53
eigval :     1459.34  1466.20  1469.95  1474.70  1475.16  1475.99
eigval :     1480.30  1481.77  1493.68  1535.87  1553.56  1564.51
eigval :     1569.27  1577.30  1580.83  1584.61  1588.50  1594.92
eigval :     1597.73  1599.68  1602.86  1604.52  1606.96  2994.90
eigval :     3002.43  3018.48  3029.64  3041.22  3046.29  3069.74
eigval :     3070.59  3073.70  3074.31  3079.64  3080.09  3080.50
eigval :     3081.45  3083.43  3084.00  3088.85  3089.75  3090.70
eigval :     3091.03  3096.86  3100.90  3105.33  3106.89  3107.91

   temp. (K)  partition function   enthalpy   heat capacity  entropy
                                   cal/mol     cal/K/mol   cal/K/mol   J/K/mol
 298.15  VIB  0.200E+16            20711.093    133.219    127.760
         ROT  0.642E+08              888.752      2.981     38.707
         INT  0.128E+24            21599.845    136.200    166.467
         TR   0.144E+29             1481.254      4.968     45.057
         TOT                       23081.0989   141.1677   211.5241   885.0167

       T/K    H(0)-H(T)+PV         H(T)/Eh          T*S/Eh         G(T)/Eh
   ------------------------------------------------------------------------
    298.15    0.367821E-01    0.574585E+00    0.100502E+00    0.474083E+00
   ------------------------------------------------------------------------

         :::::::::::::::::::::::::::::::::::::::::::::::::::::
         ::                  THERMODYNAMIC                  ::
         :::::::::::::::::::::::::::::::::::::::::::::::::::::
         :: total free energy        -118.803156695053 Eh   ::
         ::.................................................::
         :: total energy             -119.277240129983 Eh   ::
         :: zero point energy           0.537803274899 Eh   ::
         :: G(RRHO) w/o ZPVE           -0.063719839969 Eh   ::
         :: G(RRHO) contrib.            0.474083434930 Eh   ::
         :::::::::::::::::::::::::::::::::::::::::::::::::::::

           -------------------------------------------------
          | TOTAL ENERGY             -119.277240129983 Eh   |
          | TOTAL ENTHALPY           -118.702654782774 Eh   |
          | TOTAL FREE ENERGY        -118.803156695053 Eh   |
          | GRADIENT NORM               0.000063032533 Eh/α |
          | HOMO-LUMO GAP               0.424336708503 eV   |
           -------------------------------------------------

 * finished run on 2025/09/08 at 11:32:32.547
